Title
82260
    1SAPS     N    1   5.453   0.343  11.037 -0.1818  0.2541 -0.5164
    1SAPS   HN1    2   5.502   0.300  11.118 -1.0630  1.1392  0.5206
    1SAPS   HN2    3   5.391   0.267  11.003 -1.2181  1.6088 -1.7608
    1SAPS   HN3    4   5.511   0.378  10.958  0.8604  0.5332  0.3382
    1SAPS   C12    5   5.376   0.464  11.081 -0.3693  0.3786  0.5401
    1SAPS  H12A    6   5.309   0.433  11.160 -0.3127  0.3725  0.5867
    1SAPS   C13    7   5.466   0.575  11.146  0.8095 -0.3618  0.3658
    1SAPS  O13A    8   5.583   0.551  11.174  0.1658  0.3574  0.5306
    1SAPS  O13B    9   5.408   0.682  11.190  0.0027 -0.0415  0.5580
    1SAPS   C11   10   5.306   0.519  10.956 -0.4501 -0.1209 -0.5475
    1SAPS  H11A   11   5.383   0.571  10.895  0.7453 -0.9382  0.2185
    1SAPS  H11B   12   5.230   0.591  10.994 -2.1529 -2.4771  0.7793
    1SAPS     P   13   5.104   0.371  10.914 -0.4379 -0.0615  0.5542
    1SAPS   O13   14   5.125   0.257  11.007 -0.0200  0.7589  0.4115
    1SAPS   O14   15   5.019   0.484  10.960  0.2622 -0.0036  0.1645
    1SAPS   O12   16   5.246   0.417  10.874  0.5483  0.2906  0.5312
    1SAPS   O11   17   5.042   0.324  10.777  0.2638 -0.6148 -0.4602
    1SAPS    C1   18   5.051   0.400  10.653  0.0492  0.6542  0.4379
    1SAPS    HA   19   4.984   0.488  10.654 -0.4359  0.3946 -1.9836
    1SAPS    HB   20   5.156   0.429  10.634  0.8711 -1.4391  1.4164
    1SAPS    C2   21   5.001   0.322  10.524  0.8358 -0.1003 -0.7822
    1SAPS    HS   22   4.895   0.292  10.538  0.3672  1.9302  0.3915
    1SAPS   O21   23   5.068   0.209  10.506  0.3001 -0.0967  0.4367
    1SAPS   C21   24   5.042   0.103  10.582 -0.0026  0.2168 -0.0744
    1SAPS   O22   25   4.954   0.094  10.669  0.1656 -0.5295 -0.2376
    1SAPS   C22   26   5.132  -0.011  10.546  0.2309  0.2583 -0.4690
    1SAPS   H2R   27   5.226   0.034  10.509  0.6406 -0.2125 -0.0243
    1SAPS   H2S   28   5.160  -0.074  10.633  1.0362  0.7687 -0.3489
    1SAPS    C3   29   5.005   0.400  10.396  0.0896 -0.8068  0.0824
    1SAPS    HX   30   5.110   0.424  10.367 -0.5637  1.3524 -0.6665
    1SAPS    HY   31   4.967   0.501  10.420  2.8927  0.4205 -0.2175
    1SAPS   O31   32   4.930   0.335  10.291 -0.5053 -0.4581  0.3209
    1SAPS   C31   33   4.980   0.348  10.162  0.4377  0.4324  0.1124
    1SAPS   O32   34   5.073   0.415  10.127  0.5054 -0.4648 -0.3419
    1SAPS   C32   35   4.883   0.279  10.065  0.4019 -0.1648  0.2454
    1SAPS   H2X   36   4.785   0.332  10.073 -0.9757 -1.9894 -2.8791
    1SAPS   H2Y   37   4.870   0.173  10.095  0.4803  0.1580  1.5161
    1SAPS   C23   38   5.072  -0.108  10.433  0.0033 -0.5716  0.0695
    1SAPS   H3R   39   4.985  -0.149  10.488 -1.1391 -0.2526 -1.4454
    1SAPS   H3S   40   5.148  -0.188  10.424  2.6627  1.8680 -0.6279
    1SAPS   C24   41   5.047  -0.039  10.298  0.8065  0.2192 -0.5333
    1SAPS   H4R   42   4.967   0.038  10.306 -0.0109 -0.8384  4.0493
    1SAPS   H4S   43   5.014  -0.110  10.219  0.9433  1.0554 -1.3640
    1SAPS   C25   44   5.169   0.031  10.248  0.3294 -0.2128  0.5743
    1SAPS   H5R   45   5.188   0.135  10.279 -0.4188  0.3548 -0.7872
    1SAPS   C26   46   5.248  -0.018  10.154  0.0867  0.0863  0.2862
    1SAPS   H6R   47   5.344   0.031  10.132 -0.4964  0.3618 -1.9254
    1SAPS   C27   48   5.229  -0.138  10.072 -0.4713  0.5487 -0.0053
    1SAPS   H7R   49   5.149  -0.123   9.997 -0.1981  0.6858 -0.2679
    1SAPS   H7S   50   5.198  -0.218  10.143  1.1742 -1.1574 -1.1236
    1SAPS   C28   51   5.354  -0.189  10.005 -0.3128 -0.0344  0.0088
    1SAPS   H8R   52   5.435  -0.223  10.071  3.2366  1.7730 -3.0483
    1SAPS   C29   53   5.377  -0.198   9.874 -0.0763  0.9443 -0.0047
    1SAPS   H9R   54   5.476  -0.228   9.836 -0.1181 -0.4201  0.9065
    1SAPS  C210   55   5.275  -0.154   9.771  0.2199  0.3812  0.2488
    1SAPS  H10R   56   5.185  -0.216   9.792 -1.6364  3.0354  0.6246
    1SAPS  H10S   57   5.315  -0.203   9.679 -2.4922 -0.1880 -0.7200
    1SAPS  C211   58   5.234  -0.014   9.743  0.3798 -0.6876 -0.3175
    1SAPS  H11R   59   5.238   0.056   9.828 -2.4629 -0.4399 -0.2888
    1SAPS  C212   60   5.191   0.034   9.627 -0.3840 -0.9541 -0.6378
    1SAPS  H12R   61   5.150   0.135   9.642  0.1956 -0.9998  1.8276
    1SAPS  C213   62   5.174  -0.037   9.498  0.0759 -0.5652  0.3216
    1SAPS  H13R   63   5.186  -0.142   9.533  0.1347 -0.0926  1.8273
    1SAPS  H13S   64   5.259  -0.025   9.428  1.1471  3.3028  2.0074
    1SAPS  C214   65   5.034  -0.031   9.440 -0.1310  1.3481  0.3236
    1SAPS  H14R   66   4.954   0.022   9.494 -0.0134  0.6971  1.1590
    1SAPS  C215   67   4.999  -0.081   9.321  0.1317 -0.0200 -0.1849
    1SAPS  H15R   68   4.896  -0.067   9.284 -0.2652  1.4309  1.3676
    1SAPS  C216   69   5.087  -0.165   9.229 -0.2704  0.3110  0.2025
    1SAPS  H16R   70   5.027  -0.246   9.182 -1.2217  0.7003  0.7124
    1SAPS  H16S   71   5.173  -0.210   9.285 -0.4468 -1.5888 -0.9536
    1SAPS  C217   72   5.156  -0.094   9.121 -0.3223  0.3077  0.2991
    1SAPS  H17R   73   5.222  -0.171   9.074 -0.1968 -0.5322  1.7890
    1SAPS  H17S   74   5.213  -0.006   9.157 -1.4527  0.9842  0.4627
    1SAPS  C218   75   5.058  -0.029   9.022 -0.3127 -0.6058  0.3433
    1SAPS  H18R   76   5.005   0.053   9.075  1.2160  0.2822  0.5443
    1SAPS  H18S   77   4.990  -0.110   8.986  1.6545 -1.6708 -1.1775
    1SAPS  C219   78   5.134   0.039   8.905  0.7780 -0.4862 -0.0698
    1SAPS  H19R   79   5.207   0.115   8.942 -0.4444  1.0169 -0.6527
    1SAPS  H19S   80   5.061   0.097   8.844 -1.8694  0.2907  3.4909
    1SAPS  C220   81   5.218  -0.050   8.816 -0.4009 -0.0802  0.0072
    1SAPS  H20R   82   5.294  -0.098   8.882  0.1010  0.3508 -0.2469
    1SAPS  H20S   83   5.266   0.003   8.731  1.4399 -0.8671  0.4878
    1SAPS  H20T   84   5.154  -0.124   8.764 -0.2125 -0.0661 -0.2524
    1SAPS   C33   85   4.932   0.297   9.912  0.6069 -0.4767 -0.6245
    1SAPS   H3X   86   5.037   0.262   9.904  0.5934 -0.2827 -1.9704
    1SAPS   H3Y   87   4.935   0.406   9.893  1.3673 -0.2294  0.8226
    1SAPS   C34   88   4.834   0.221   9.818 -0.4430  0.2382  0.7561
    1SAPS   H4X   89   4.731   0.255   9.840 -0.5074 -0.1906  1.1274
    1SAPS   H4Y   90   4.842   0.112   9.840  2.1207 -0.2340 -1.9555
    1SAPS   C35   91   4.851   0.252   9.669  0.6472  0.5662  0.8952
    1SAPS   H5X   92   4.950   0.222   9.631  0.2412  0.2475  0.0595
    1SAPS   H5Y   93   4.838   0.361   9.655 -3.1883  0.0992 -0.3206
    1SAPS   C36   94   4.747   0.188   9.575 -0.1475  0.5926  0.4911
    1SAPS   H6X   95   4.652   0.205   9.631 -1.7064 -2.2076 -1.0513
    1SAPS   H6Y   96   4.767   0.078   9.573  0.9609  0.8030 -0.3966
    1SAPS   C37   97   4.749   0.233   9.435  0.2964  0.0280  0.5684
    1SAPS   H7X   98   4.674   0.183   9.369  1.1994  0.3807 -0.7561
    1SAPS   H7Y   99   4.840   0.202   9.379  0.5171  2.0872 -0.2809
    1SAPS   C38  100   4.719   0.383   9.402 -0.0907 -0.0506  0.3142
    1SAPS   H8X  101   4.796   0.444   9.455 -0.2356  0.2729  0.1557
    1SAPS   H8Y  102   4.616   0.402   9.440 -1.9025  0.9883 -4.4278
    1SAPS   C39  103   4.730   0.420   9.251  0.5238 -0.1073  0.2087
    1SAPS   H9X  104   4.712   0.528   9.232  0.6117 -0.2678 -0.8044
    1SAPS   H9Y  105   4.657   0.363   9.191 -0.4798 -1.7046  2.7527
    1SAPS  C310  106   4.872   0.405   9.184  0.5867 -0.0163 -0.8453
    1SAPS  H10X  107   4.882   0.297   9.158  0.1265  0.0434 -1.2897
    1SAPS  H10Y  108   4.943   0.431   9.265 -0.3864 -1.2445  0.4694
    1SAPS  C311  109   4.898   0.484   9.052 -0.9608  0.8828  0.5388
    1SAPS  H11X  110   4.932   0.588   9.072 -1.0913  0.8561  0.9175
    1SAPS  H11Y  111   4.802   0.496   8.997 -1.3854 -1.2299  0.7428
    1SAPS  C312  112   4.998   0.420   8.957  0.3716 -0.1638 -0.5928
    1SAPS  H12X  113   4.938   0.336   8.915  2.1143 -3.1144  2.3432
    1SAPS  H12Y  114   5.092   0.391   9.010 -0.4574 -0.9714  0.4865
    1SAPS  C313  115   5.047   0.511   8.846 -0.5845 -0.2782  1.0644
    1SAPS  H13X  116   5.108   0.595   8.886  2.1367 -1.8246  0.4383
    1SAPS  H13Y  117   4.960   0.563   8.801  0.5413  0.3891 -0.4367
    1SAPS  C314  118   5.119   0.431   8.732 -0.0192 -0.3483  0.7351
    1SAPS  H14X  119   5.054   0.359   8.678 -0.0921  0.2057  0.0615
    1SAPS  H14Y  120   5.207   0.371   8.763 -0.7860 -2.5752 -1.1466
    1SAPS  C315  121   5.176   0.536   8.626  0.0239  0.4414 -0.2703
    1SAPS  H15X  122   5.230   0.477   8.549  0.0675 -0.5140  0.4803
    1SAPS  H15Y  123   5.248   0.595   8.686 -1.2574 -0.7253  2.5818
    1SAPS  C316  124   5.068   0.636   8.578 -0.1846 -0.0809  0.6451
    1SAPS  H16X  125   5.124   0.702   8.508  2.0133 -0.0307  2.3598
    1SAPS  H16Y  126   5.040   0.704   8.661  0.6505 -1.3320  1.9897
    1SAPS  C317  127   4.933   0.586   8.500  0.0080  0.6914  0.4092
    1SAPS  H17X  128   4.881   0.677   8.464 -1.5358 -1.6719 -4.0416
    1SAPS  H17Y  129   4.865   0.530   8.568  0.0699  1.6573  1.2917
    1SAPS  C318  130   4.967   0.509   8.367 -1.2248 -0.0589 -0.0237
    1SAPS  H18X  131   5.032   0.424   8.398 -2.1032 -1.0637 -0.8613
    1SAPS  H18Y  132   5.019   0.580   8.300  1.5093 -0.6045  1.3776
    1SAPS  H18Z  133   4.873   0.468   8.324 -0.4310  0.7529 -2.6644
    2SAPS     N  134   4.863   0.700  10.856 -0.4843  0.4507 -0.9359
    2SAPS   HN1  135   4.781   0.708  10.919 -0.1617  0.8317 -0.5587
    2SAPS   HN2  136   4.911   0.609  10.870  0.4151  1.1513  0.7769
    2SAPS   HN3  137   4.931   0.770  10.891  1.2116 -1.5111 -0.0963
    2SAPS   C12  138   4.821   0.720  10.715  0.2147 -0.3695 -0.0149
    2SAPS  H12A  139   4.906   0.697  10.653 -0.8183 -2.2981 -0.7818
    2SAPS   C13  140   4.716   0.616  10.658  0.2517 -0.0829 -0.0859
    2SAPS  O13A  141   4.686   0.516  10.729 -0.4652 -0.4128 -0.1747
    2SAPS  O13B  142   4.705   0.609  10.531 -0.0815  0.2799  0.2661
    2SAPS   C11  143   4.765   0.864  10.692  0.1902  0.0711  0.3747
    2SAPS  H11A  144   4.671   0.876  10.749 -0.3169  0.8853 -0.6008
    2SAPS  H11B  145   4.740   0.875  10.585  2.0423 -1.4410 -0.2761
    2SAPS     P  146   4.988   1.016  10.688 -0.4142  0.1166 -0.7655
    2SAPS   O13  147   5.031   1.129  10.765 -0.1591  0.6336 -0.2179
    2SAPS   O14  148   5.082   0.904  10.686 -0.3091 -0.4287 -0.3472
    2SAPS   O12  149   4.844   0.975  10.739 -0.5279  0.5559  0.4549
    2SAPS   O11  150   4.963   1.063  10.542 -0.8462 -0.2517  0.5337
    2SAPS    C1  151   5.056   1.049  10.434  0.1126  0.0314 -0.2976
    2SAPS    HA  152   5.121   1.138  10.424  0.0459 -0.0247 -1.3071
    2SAPS    HB  153   5.118   0.959  10.451  1.3031  0.7824 -0.5536
    2SAPS    C2  154   4.987   1.028  10.295  0.0504  0.3318  0.4879
    2SAPS    HS  155   4.929   1.120  10.271  1.1569  1.1717  0.9477
    2SAPS   O21  156   4.909   0.911  10.300  0.2251  0.6123 -0.2864
    2SAPS   C21  157   4.813   0.901  10.208 -1.2892  0.3585  0.0142
    2SAPS   O22  158   4.786   0.984  10.122 -0.2503  0.6463  0.1207
    2SAPS   C22  159   4.756   0.762  10.210 -0.3415 -0.5111  0.6019
    2SAPS   H2R  160   4.825   0.682  10.244  0.2984 -0.8810 -1.4300
    2SAPS   H2S  161   4.686   0.764  10.296 -0.1705 -0.9309  0.7483
    2SAPS    C3  162   5.099   1.005  10.192 -0.0013 -0.7471  0.0857
    2SAPS    HX  163   5.057   0.959  10.100 -0.5655  0.8120 -0.4692
    2SAPS    HY  164   5.168   0.926  10.231 -0.3045  0.2550  2.8640
    2SAPS   O31  165   5.181   1.127  10.173  0.4115 -0.2579 -0.2408
    2SAPS   C31  166   5.265   1.105  10.071  0.4723 -0.5964  0.3447
    2SAPS   O32  167   5.278   1.009   9.997  0.2014  0.0325 -0.2561
    2SAPS   C32  168   5.359   1.225  10.072 -0.8442 -0.4225 -0.0938
    2SAPS   H2X  169   5.433   1.199  10.150 -1.7107 -0.9855  0.5611
    2SAPS   H2Y  170   5.296   1.313  10.095 -1.2686 -0.1633 -2.0389
    2SAPS   C23  171   4.692   0.709  10.079 -0.0317  0.3822 -0.3337
    2SAPS   H3R  172   4.612   0.777  10.043 -0.0998  0.4736 -0.0110
    2SAPS   H3S  173   4.645   0.614  10.114  0.8500  0.4921  1.2227
    2SAPS   C24  174   4.792   0.665   9.970 -0.4380  0.0422  0.1941
    2SAPS   H4R  175   4.869   0.606  10.025  1.0810  1.8705  0.1635
    2SAPS   H4S  176   4.848   0.756   9.940  1.4290 -0.0348  2.9783
    2SAPS   C25  177   4.728   0.591   9.858  0.3917  0.0374 -0.0175
    2SAPS   H5R  178   4.650   0.525   9.899 -1.0473  1.3608 -0.5393
    2SAPS   C26  179   4.738   0.613   9.724 -0.9924 -0.9409  0.4337
    2SAPS   H6R  180   4.679   0.560   9.648  0.4711 -2.1892  0.1211
    2SAPS   C27  181   4.825   0.720   9.655  0.3194  0.1504 -0.1221
    2SAPS   H7R  182   4.845   0.681   9.553  0.8473 -1.3002  0.5022
    2SAPS   H7S  183   4.925   0.727   9.704 -0.7336 -1.4986  2.5182
    2SAPS   C28  184   4.766   0.849   9.653  0.9634 -0.3462  0.0474
    2SAPS   H8R  185   4.772   0.907   9.746  0.9800 -0.7447  0.2957
    2SAPS   C29  186   4.726   0.913   9.541  0.6982 -0.1227  0.7666
    2SAPS   H9R  187   4.679   1.012   9.557 -1.3072 -1.3703  3.3381
    2SAPS  C210  188   4.740   0.866   9.396 -0.1365  0.3288  0.2432
    2SAPS  H10R  189   4.748   0.755   9.389  1.3470  0.4863 -0.8843
    2SAPS  H10S  190   4.844   0.890   9.367 -0.1320 -1.4681 -1.4438
    2SAPS  C211  191   4.646   0.933   9.294  0.6664 -0.2841 -0.8093
    2SAPS  H11R  192   4.582   1.016   9.327  0.9141  0.2926 -1.7441
    2SAPS  C212  193   4.638   0.901   9.171  0.1789 -0.0976  0.3756
    2SAPS  H12R  194   4.587   0.973   9.105  2.2222  0.3069 -0.8514
    2SAPS  C213  195   4.708   0.793   9.095  0.1688  0.6654 -0.1797
    2SAPS  H13R  196   4.635   0.750   9.024  0.1604  0.8901 -0.3073
    2SAPS  H13S  197   4.734   0.713   9.168 -1.0015  1.4450  1.1483
    2SAPS  C214  198   4.831   0.841   9.013  0.1487  0.1777 -0.7786
    2SAPS  H14R  199   4.918   0.874   9.072 -0.8250  0.5984  0.4647
    2SAPS  C215  200   4.840   0.851   8.880  0.0212 -0.1182 -0.6807
    2SAPS  H15R  201   4.940   0.871   8.838 -0.4873  1.0975 -1.3863
    2SAPS  C216  202   4.733   0.818   8.782 -0.7925 -0.9563  0.3066
    2SAPS  H16R  203   4.628   0.795   8.807 -1.4610  0.4858 -0.9875
    2SAPS  H16S  204   4.764   0.728   8.725 -0.9785 -1.5700  1.1531
    2SAPS  C217  205   4.728   0.939   8.680 -0.8127 -0.2493 -0.3699
    2SAPS  H17R  206   4.823   0.954   8.626  0.1578 -1.6512  0.8525
    2SAPS  H17S  207   4.698   1.028   8.738  0.6873 -0.9807  1.6515
    2SAPS  C218  208   4.624   0.913   8.573 -0.3643 -0.2275  0.4096
    2SAPS  H18R  209   4.528   0.886   8.622  0.2841  1.0418  2.5487
    2SAPS  H18S  210   4.648   0.826   8.509 -2.4576  0.4771 -1.4796
    2SAPS  C219  211   4.597   1.026   8.471  0.0957 -0.7427  0.0687
    2SAPS  H19R  212   4.691   1.063   8.425 -0.2236  0.2820  0.2074
    2SAPS  H19S  213   4.562   1.121   8.518  1.0569  0.6742 -1.9121
    2SAPS  C220  214   4.493   0.980   8.372  0.5526  0.6629  0.5283
    2SAPS  H20R  215   4.390   0.992   8.412  0.5738  1.6941  0.2891
    2SAPS  H20S  216   4.522   0.876   8.345 -1.7037  0.2264 -0.3698
    2SAPS  H20T  217   4.507   1.039   8.279  1.1510 -2.9155 -1.8417
    2SAPS   C33  218   5.413   1.238   9.924 -0.0861  0.2695 -0.2434
    2SAPS   H3X  219   5.466   1.144   9.897  1.3341  0.8501  0.3692
    2SAPS   H3Y  220   5.493   1.316   9.926  1.7857 -1.5682  0.2149
    2SAPS   C34  221   5.308   1.280   9.816 -0.4544  0.3471 -0.2369
    2SAPS   H4X  222   5.243   1.354   9.868 -0.2146 -1.8717  3.5833
    2SAPS   H4Y  223   5.248   1.192   9.784  0.4729 -0.0963 -0.7996
    2SAPS   C35  224   5.380   1.345   9.702 -0.5668  0.0919 -0.4264
    2SAPS   H5X  225   5.462   1.282   9.662 -0.2219  0.4660 -0.3188
    2SAPS   H5Y  226   5.436   1.431   9.746 -0.5951 -1.3734  2.7432
    2SAPS   C36  227   5.286   1.387   9.586  0.3591 -0.1675 -0.3531
    2SAPS   H6X  228   5.222   1.471   9.619 -2.7616 -2.8809  1.0466
    2SAPS   H6Y  229   5.219   1.305   9.551  0.0181  0.9611 -2.4890
    2SAPS   C37  230   5.367   1.428   9.458  0.0118  0.3590 -0.8637
    2SAPS   H7X  231   5.449   1.355   9.441 -0.5805 -0.0239 -2.2417
    2SAPS   H7Y  232   5.404   1.533   9.467 -0.1257  0.2324  2.4071
    2SAPS   C38  233   5.280   1.419   9.333 -0.2315  0.1381  0.6959
    2SAPS   H8X  234   5.183   1.461   9.368 -0.3009 -1.7944  3.1280
    2SAPS   H8Y  235   5.264   1.312   9.308 -0.8544  0.7986 -2.0908
    2SAPS   C39  236   5.325   1.496   9.206 -0.3905  0.0361 -0.2638
    2SAPS   H9X  237   5.424   1.450   9.186  0.3141  0.9804  0.9733
    2SAPS   H9Y  238   5.353   1.600   9.232  0.0990 -0.1832  0.1049
    2SAPS  C310  239   5.229   1.504   9.095  0.4577 -0.0101 -0.9485
    2SAPS  H10X  240   5.136   1.558   9.123  0.1656 -0.5394 -0.8900
    2SAPS  H10Y  241   5.194   1.403   9.066 -1.8224  0.7922 -1.2281
    2SAPS  C311  242   5.280   1.570   8.968 -0.2659  0.0036 -0.5473
    2SAPS  H11X  243   5.338   1.656   9.008 -0.5981  0.2154 -0.5174
    2SAPS  H11Y  244   5.195   1.611   8.910 -0.6137 -0.4236 -0.3422
    2SAPS  C312  245   5.356   1.470   8.884  0.0479  0.1808  0.1714
    2SAPS  H12X  246   5.300   1.374   8.887  0.9372 -0.3314  1.2972
    2SAPS  H12Y  247   5.459   1.451   8.921  0.1279 -1.4053 -0.7607
    2SAPS  C313  248   5.376   1.524   8.746 -0.7472 -0.4888  0.1763
    2SAPS  H13X  249   5.278   1.545   8.698 -0.2190  0.8720 -0.3660
    2SAPS  H13Y  250   5.428   1.444   8.688  0.6535 -0.3477  1.1763
    2SAPS  C314  251   5.465   1.650   8.744  1.1074 -0.6061  0.4775
    2SAPS  H14X  252   5.557   1.629   8.803 -1.2587 -2.4293  3.8512
    2SAPS  H14Y  253   5.405   1.735   8.783  1.4339 -0.5558  0.8822
    2SAPS  C315  254   5.505   1.680   8.593  0.5172  0.1934  0.9654
    2SAPS  H15X  255   5.411   1.714   8.545  0.6829 -0.9253 -0.2299
    2SAPS  H15Y  256   5.535   1.587   8.539 -1.3382  1.1501 -1.9868
    2SAPS  C316  257   5.619   1.786   8.584 -0.1856  0.3400 -0.5688
    2SAPS  H16X  258   5.598   1.881   8.638  1.6926  1.3767 -1.5546
    2SAPS  H16Y  259   5.643   1.816   8.479 -0.8367  2.1521 -0.2360
    2SAPS  C317  260   5.754   1.744   8.633  0.1251  0.2044 -0.3070
    2SAPS  H17X  261   5.779   1.642   8.597  1.9417 -0.5355  2.6419
    2SAPS  H17Y  262   5.745   1.736   8.744  0.9291  1.1443 -0.1595
    2SAPS  C318  263   5.872   1.830   8.583 -0.0361  0.1727 -0.4053
    2SAPS  H18X  264   5.880   1.803   8.475  1.4797 -0.5816 -0.1270
    2SAPS  H18Y  265   5.967   1.800   8.631  0.1589  2.1464  0.5109
    2SAPS  H18Z  266   5.854   1.938   8.598 -1.7715  0.0256 -1.1019
    3SAPS     N  267   3.381   1.266  10.613  0.1856 -0.2208 -0.0736
    3SAPS   HN1  268   3.278   1.263  10.628 -0.1063  0.5598 -1.6811
    3SAPS   HN2  269   3.399   1.304  10.518 -2.9739  0.0397 -0.6615
    3SAPS   HN3  270   3.431   1.175  10.621  2.4456  0.6450 -2.5984
    3SAPS   C12  271   3.426   1.367  10.722  0.4246  0.5015  0.6955
    3SAPS  H12A  272   3.437   1.465  10.679 -0.1896 -1.1787 -3.7613
    3SAPS   C13  273   3.314   1.370  10.833  0.2498 -0.3983  0.4509
    3SAPS  O13A  274   3.204   1.318  10.807  0.3808  0.2022 -0.0561
    3SAPS  O13B  275   3.316   1.473  10.905  0.1713 -0.0071 -0.5878
    3SAPS   C11  276   3.564   1.307  10.778  0.2049  0.1467 -0.0405
    3SAPS  H11A  277   3.535   1.205  10.811 -0.2578  0.2206 -0.2107
    3SAPS  H11B  278   3.592   1.375  10.861 -1.0239  0.3694  0.2096
    3SAPS     P  279   3.796   1.217  10.744  0.4161 -0.1010 -0.0172
    3SAPS   O13  280   3.827   1.258  10.882 -0.1365 -0.2015 -0.0504
    3SAPS   O14  281   3.776   1.071  10.721  0.1034  0.1321  0.4946
    3SAPS   O12  282   3.667   1.300  10.685  0.2987  0.2707 -0.5750
    3SAPS   O11  283   3.915   1.272  10.659  0.3881 -0.4396 -0.0196
    3SAPS    C1  284   3.896   1.366  10.552  0.1652  1.2324  0.7200
    3SAPS    HA  285   3.822   1.446  10.572  0.5403  1.9480 -0.5701
    3SAPS    HB  286   3.991   1.417  10.523  0.4731 -1.2152 -3.4657
    3SAPS    C2  287   3.838   1.297  10.429  0.8125 -0.6172 -0.7906
    3SAPS    HS  288   3.741   1.252  10.455 -0.6427  2.6079 -0.1446
    3SAPS   O21  289   3.936   1.213  10.364  0.2251 -0.2544 -0.2367
    3SAPS   C21  290   3.894   1.096  10.328  0.0100  0.0876 -0.2404
    3SAPS   O22  291   3.781   1.050  10.346 -0.3203 -0.2072 -0.5158
    3SAPS   C22  292   4.012   1.018  10.271  0.1388  0.0700 -1.0583
    3SAPS   H2R  293   4.108   1.043  10.320  0.1201 -2.5143  0.4976
    3SAPS   H2S  294   3.996   0.912  10.303 -0.0547  0.3158 -0.3163
    3SAPS    C3  295   3.799   1.404  10.324 -0.0093  0.1415 -0.3987
    3SAPS    HX  296   3.882   1.476  10.307  0.1592  0.4382  1.5019
    3SAPS    HY  297   3.713   1.461  10.364  0.2490  0.5957 -0.4938
    3SAPS   O31  298   3.759   1.347  10.197  0.0327  0.3270 -0.1361
    3SAPS   C31  299   3.728   1.441  10.111 -0.3230 -0.0497 -0.4698
    3SAPS   O32  300   3.717   1.556  10.135  0.8268 -0.3792  0.3376
    3SAPS   C32  301   3.715   1.360   9.978  0.0813  0.1100  0.1106
    3SAPS   H2X  302   3.643   1.286  10.017  1.0332 -1.8130 -1.5802
    3SAPS   H2Y  303   3.812   1.309   9.962 -0.5348 -1.1570  0.3191
    3SAPS   C23  304   4.028   1.033  10.119 -0.2978 -0.6145 -0.3317
    3SAPS   H3R  305   4.036   1.143  10.106  0.8618 -0.9235 -2.9430
    3SAPS   H3S  306   3.939   0.984  10.074  1.2838 -5.3352  1.1531
    3SAPS   C24  307   4.155   0.960  10.068 -0.3342 -0.2587  0.4948
    3SAPS   H4R  308   4.142   0.950   9.959  2.0127 -0.3146  0.1804
    3SAPS   H4S  309   4.149   0.858  10.110 -0.8726  0.5539  2.5519
    3SAPS   C25  310   4.283   1.028  10.113 -0.2662 -0.2032  0.1028
    3SAPS   H5R  311   4.299   1.021  10.222 -1.1951  1.1472  0.3483
    3SAPS   C26  312   4.366   1.079  10.021 -0.3377 -0.7813  0.4599
    3SAPS   H6R  313   4.458   1.134  10.046 -1.0434  0.4093  0.4675
    3SAPS   C27  314   4.333   1.084   9.875  0.1255  0.2221  0.0981
    3SAPS   H7R  315   4.384   1.178   9.842  1.8703 -0.5231  0.5487
    3SAPS   H7S  316   4.229   1.113   9.846  0.2792  1.0374  0.3223
    3SAPS   C28  317   4.370   0.965   9.788 -0.0888 -0.0057  0.3348
    3SAPS   H8R  318   4.409   0.883   9.849 -0.1736 -0.7534 -0.6037
    3SAPS   C29  319   4.366   0.963   9.653 -0.1608 -0.1929  0.2601
    3SAPS   H9R  320   4.394   0.879   9.588  1.0196 -0.5312  1.1659
    3SAPS  C210  321   4.311   1.080   9.574  0.0708 -0.5263 -0.0904
    3SAPS  H10R  322   4.369   1.085   9.480  0.0448 -0.1550 -0.0869
    3SAPS  H10S  323   4.311   1.179   9.625  0.3659 -1.1016  1.0570
    3SAPS  C211  324   4.165   1.042   9.540 -0.7158  0.3458  0.2245
    3SAPS  H11R  325   4.106   1.034   9.632  2.3350 -1.4803  2.1759
    3SAPS  C212  326   4.107   1.010   9.420  0.1402 -0.3440  0.4159
    3SAPS  H12R  327   3.998   0.996   9.421  0.0714  0.1848  0.3075
    3SAPS  C213  328   4.178   1.012   9.287 -0.5782 -0.1953  0.3152
    3SAPS  H13R  329   4.261   0.939   9.288 -0.0944  0.3500  0.2853
    3SAPS  H13S  330   4.221   1.114   9.279 -1.8229  0.2034 -2.6794
    3SAPS  C214  331   4.093   0.985   9.171  0.0470  0.4134 -0.2648
    3SAPS  H14R  332   3.985   0.974   9.184 -0.0540  0.0359 -1.2709
    3SAPS  C215  333   4.138   0.952   9.048 -0.1119  0.0597 -0.7166
    3SAPS  H15R  334   4.067   0.947   8.965  0.4500  0.4639 -1.2315
    3SAPS  C216  335   4.286   0.935   9.003 -0.4820  0.0303  0.2215
    3SAPS  H16R  336   4.298   0.829   8.973  0.2282 -0.0863  0.8954
    3SAPS  H16S  337   4.358   0.966   9.082  0.8503 -1.0627 -0.5225
    3SAPS  C217  338   4.321   1.018   8.883 -0.0023 -0.6339  0.2434
    3SAPS  H17R  339   4.243   0.994   8.808  0.9294  0.9133 -1.2857
    3SAPS  H17S  340   4.426   1.003   8.852  1.3278  2.5752  2.6356
    3SAPS  C218  341   4.303   1.170   8.897 -0.0326  0.3371 -0.3671
    3SAPS  H18R  342   4.198   1.196   8.922 -0.0269 -0.3802  0.4699
    3SAPS  H18S  343   4.336   1.216   8.801  0.6520 -1.6023 -1.1190
    3SAPS  C219  344   4.392   1.228   9.008  0.3497  0.3758  0.2597
    3SAPS  H19R  345   4.495   1.186   9.020  0.4339  0.3256 -0.5819
    3SAPS  H19S  346   4.339   1.199   9.102  0.5434 -1.0745 -0.0504
    3SAPS  C220  347   4.403   1.377   8.990 -0.6143 -0.2095 -0.2812
    3SAPS  H20R  348   4.494   1.393   8.928  1.6505 -0.3201  2.7767
    3SAPS  H20S  349   4.415   1.433   9.085 -0.3097  1.1089 -1.0765
    3SAPS  H20T  350   4.311   1.415   8.941  0.7607  0.9307 -2.0948
    3SAPS   C33  351   3.646   1.426   9.857 -0.3392 -0.1810  0.2640
    3SAPS   H3X  352   3.562   1.484   9.901 -0.0451  0.2392  0.2754
    3SAPS   H3Y  353   3.594   1.347   9.800 -0.3365 -0.2101  0.3016
    3SAPS   C34  354   3.730   1.516   9.766  0.2890 -0.0387  0.0884
    3SAPS   H4X  355   3.827   1.472   9.734 -0.1117  0.7194 -2.3172
    3SAPS   H4Y  356   3.762   1.602   9.828  1.7624  0.3111 -1.0973
    3SAPS   C35  357   3.646   1.566   9.649 -0.5615  0.0532  0.4958
    3SAPS   H5X  358   3.600   1.660   9.685 -0.7388  0.8393 -1.6329
    3SAPS   H5Y  359   3.567   1.490   9.631  0.9185 -1.4857  0.2207
    3SAPS   C36  360   3.722   1.596   9.516  0.5699  0.2842 -0.1455
    3SAPS   H6X  361   3.784   1.507   9.492 -1.2598 -0.7629 -1.1398
    3SAPS   H6Y  362   3.796   1.679   9.524 -0.4050  1.1229  0.3810
    3SAPS   C37  363   3.633   1.635   9.398 -0.1494 -0.0730 -0.0146
    3SAPS   H7X  364   3.561   1.707   9.442 -0.2409 -0.0106 -0.2620
    3SAPS   H7Y  365   3.576   1.545   9.366 -0.7316 -0.3695  1.7628
    3SAPS   C38  366   3.719   1.691   9.277  0.8430  0.0154  0.2770
    3SAPS   H8X  367   3.814   1.639   9.251  0.7285  1.2171 -3.0864
    3SAPS   H8Y  368   3.747   1.790   9.320 -1.8752 -0.2891  3.0803
    3SAPS   C39  369   3.641   1.728   9.150 -0.2314  0.5707  0.0753
    3SAPS   H9X  370   3.604   1.625   9.135 -0.2341  0.2653  1.9412
    3SAPS   H9Y  371   3.715   1.753   9.070 -0.7037 -1.0000 -0.8996
    3SAPS  C310  372   3.535   1.840   9.180  0.1254  0.9770  0.7128
    3SAPS  H10X  373   3.591   1.935   9.195 -3.0396  3.1343 -0.0556
    3SAPS  H10Y  374   3.481   1.821   9.276  0.9165 -1.0620  0.7904
    3SAPS  C311  375   3.445   1.856   9.055  0.0733  0.0369  0.2853
    3SAPS  H11X  376   3.509   1.880   8.968 -0.4536 -0.5383 -0.2641
    3SAPS  H11Y  377   3.382   1.945   9.076 -0.1602  0.3461 -1.5700
    3SAPS  C312  378   3.359   1.732   9.036  0.4069 -0.7133  0.1245
    3SAPS  H12X  379   3.303   1.711   9.129  0.6442  0.5703  0.5815
    3SAPS  H12Y  380   3.419   1.641   9.017  2.1497  0.5845 -0.8733
    3SAPS  C313  381   3.268   1.776   8.926  0.7396 -0.1808  0.8373
    3SAPS  H13X  382   3.311   1.844   8.849 -1.6074  0.0623 -0.3683
    3SAPS  H13Y  383   3.183   1.826   8.977 -0.7425 -1.1903 -0.5354
    3SAPS  C314  384   3.202   1.655   8.862 -0.0745  0.2636  0.0731
    3SAPS  H14X  385   3.132   1.611   8.937 -1.1443  1.7298 -0.0168
    3SAPS  H14Y  386   3.276   1.577   8.835 -0.1195  0.2960 -0.1440
    3SAPS  C315  387   3.115   1.688   8.734  0.2671  0.4513 -0.0238
    3SAPS  H15X  388   3.176   1.750   8.664  0.8084  2.0567  1.8029
    3SAPS  H15Y  389   3.030   1.750   8.767  0.1300  0.9406 -1.2206
    3SAPS  C316  390   3.055   1.566   8.664  0.3854 -0.0023 -0.3992
    3SAPS  H16X  391   3.004   1.505   8.742 -0.3363  0.3783 -0.5643
    3SAPS  H16Y  392   3.147   1.519   8.623 -0.4323 -1.8874 -0.1801
    3SAPS  C317  393   2.947   1.610   8.562  0.1534  0.2121 -0.1091
    3SAPS  H17X  394   2.999   1.682   8.495  1.6649  1.7525  2.5322
    3SAPS  H17Y  395   2.867   1.673   8.609 -1.5176 -1.7032 -0.2396
    3SAPS  C318  396   2.880   1.485   8.503 -0.0050  0.3417  0.4276
    3SAPS  H18X  397   2.945   1.421   8.440  0.1587 -0.4257  1.3593
    3SAPS  H18Y  398   2.794   1.515   8.440 -0.0017  0.0952  0.3069
    3SAPS  H18Z  399   2.844   1.417   8.582 -1.0679 -1.0841 -1.2127
    4SAPS     N  400   6.490   4.062  10.923  0.0158 -0.2284 -0.4183
    4SAPS   HN1  401   6.566   4.072  10.993 -0.2016 -2.0484  0.1397
    4SAPS   HN2  402   6.438   4.152  10.920  0.0774 -0.1972 -0.5361
    4SAPS   HN3  403   6.440   3.991  10.981  1.7868  0.0168  1.5652
    4SAPS   C12  404   6.536   4.004  10.793  0.8198 -0.2615  0.3488
    4SAPS  H12A  405   6.572   3.910  10.832  0.2440 -0.8914 -0.6093
    4SAPS   C13  406   6.429   3.988  10.685 -0.0324 -0.5582  0.1329
    4SAPS  O13A  407   6.312   4.015  10.715  0.3938  0.5599 -1.0921
    4SAPS  O13B  408   6.452   3.927  10.573 -0.3284 -0.6504  0.3636
    4SAPS   C11  409   6.644   4.093  10.741  0.1965  0.3334 -0.2691
    4SAPS  H11A  410   6.598   4.193  10.728  1.8355  1.2318  0.5330
    4SAPS  H11B  411   6.672   4.046  10.645 -2.8062 -1.5616 -0.3433
    4SAPS     P  412   6.845   4.221  10.838 -0.1496  0.3692  0.5888
    4SAPS   O13  413   6.771   4.337  10.890  0.0094 -0.0710 -0.7311
    4SAPS   O14  414   6.973   4.184  10.901 -0.3465 -0.1790  0.4575
    4SAPS   O12  415   6.756   4.094  10.834 -0.2211 -0.3529  0.1140
    4SAPS   O11  416   6.863   4.251  10.688 -0.5290 -0.6181 -0.1916
    4SAPS    C1  417   6.945   4.171  10.606 -0.3364 -0.3007  1.1060
    4SAPS    HA  418   7.047   4.152  10.645  0.4213 -1.1742 -1.1222
    4SAPS    HB  419   6.911   4.069  10.579 -0.3226 -0.7027  2.5540
    4SAPS    C2  420   6.970   4.246  10.472  0.8532 -0.1488  0.3217
    4SAPS    HS  421   6.988   4.354  10.491 -0.5839  0.0097  0.9047
    4SAPS   O21  422   6.856   4.218  10.389 -0.5594  0.6948  0.1338
    4SAPS   C21  423   6.846   4.298  10.284  0.4726  0.5496  0.7654
    4SAPS   O22  424   6.917   4.390  10.259  0.4858 -0.2243 -0.6273
    4SAPS   C22  425   6.722   4.263  10.197 -0.4898  0.1125  0.7559
    4SAPS   H2R  426   6.714   4.152  10.193 -2.6310  0.2377  0.6261
    4SAPS   H2S  427   6.632   4.297  10.252 -1.0061  0.9289 -0.5388
    4SAPS    C3  428   7.100   4.193  10.402  0.1972 -0.3259  0.9343
    4SAPS    HX  429   7.190   4.224  10.460  0.6321  1.0830 -0.4211
    4SAPS    HY  430   7.103   4.263  10.315  0.5874  1.1255  2.0682
    4SAPS   O31  431   7.086   4.059  10.353 -0.0041 -0.0230 -0.1023
    4SAPS   C31  432   7.171   3.978  10.413 -0.0694  0.5207  0.4140
    4SAPS   O32  433   7.250   3.997  10.503 -0.6905 -0.0002 -0.1265
    4SAPS   C32  434   7.134   3.835  10.372  0.0589 -0.4669 -0.8885
    4SAPS   H2X  435   7.025   3.819  10.366  0.3512 -2.6679 -1.3369
    4SAPS   H2Y  436   7.179   3.783  10.460 -2.6218  1.8417  2.0445
    4SAPS   C23  437   6.728   4.349  10.061  0.4821  0.5369 -0.3503
    4SAPS   H3R  438   6.739   4.454  10.094  3.6379  0.1670  0.0733
    4SAPS   H3S  439   6.629   4.333  10.012  0.7685  1.0682 -1.1154
    4SAPS   C24  440   6.834   4.290   9.974  0.1526 -0.2394  0.7073
    4SAPS   H4R  441   6.806   4.186   9.943  2.2555 -0.7350  0.3231
    4SAPS   H4S  442   6.933   4.289  10.025  0.4036 -0.8491  0.2278
    4SAPS   C25  443   6.870   4.387   9.869  0.6402  0.7695  0.8998
    4SAPS   H5R  444   6.904   4.486   9.902 -1.2905  2.7797 -2.4989
    4SAPS   C26  445   6.863   4.375   9.730 -0.1686  0.3794 -0.6706
    4SAPS   H6R  446   6.905   4.457   9.670 -0.4132  2.9325  2.3597
    4SAPS   C27  447   6.813   4.255   9.657 -0.6019  0.3166  1.4706
    4SAPS   H7R  448   6.710   4.279   9.624  0.2633  1.0714 -0.8761
    4SAPS   H7S  449   6.804   4.165   9.722 -0.2470 -0.3186  0.6605
    4SAPS   C28  450   6.900   4.223   9.534  0.2757  0.2011 -0.6810
    4SAPS   H8R  451   7.002   4.264   9.531  0.7225 -0.4288  2.4650
    4SAPS   C29  452   6.857   4.169   9.414  0.3923 -0.2762 -0.1452
    4SAPS   H9R  453   6.924   4.143   9.331 -3.8840 -2.9232 -3.1107
    4SAPS  C210  454   6.714   4.131   9.372  0.2524  0.5487 -0.4489
    4SAPS  H10R  455   6.679   4.202   9.294 -0.7403  0.8116  0.2271
    4SAPS  H10S  456   6.652   4.129   9.464  1.9309 -2.4237  0.7650
    4SAPS  C211  457   6.708   3.995   9.297 -0.1912 -0.2259 -0.5131
    4SAPS  H11R  458   6.642   3.921   9.345 -1.4637  0.1488 -1.6363
    4SAPS  C212  459   6.762   3.954   9.178 -0.2888 -0.4387 -0.2562
    4SAPS  H12R  460   6.763   3.849   9.146  2.6642 -1.0022  1.2707
    4SAPS  C213  461   6.832   4.042   9.081 -0.4905  0.2272  0.2189
    4SAPS  H13R  462   6.854   4.141   9.126  0.5241  1.2169 -2.3074
    4SAPS  H13S  463   6.769   4.061   8.992  0.6023 -4.3989 -1.8610
    4SAPS  C214  464   6.963   3.972   9.047 -0.1982 -0.0380  0.1814
    4SAPS  H14R  465   7.018   3.935   9.135  0.8839 -1.8104 -1.1643
    4SAPS  C215  466   7.009   3.945   8.923  0.0866  0.5280 -0.7241
    4SAPS  H15R  467   7.110   3.903   8.915 -0.2436 -0.5727  0.6912
    4SAPS  C216  468   6.934   3.983   8.791 -0.0387 -0.5185 -0.1483
    4SAPS  H16R  469   6.883   4.081   8.800 -0.8287 -0.6386 -2.5659
    4SAPS  H16S  470   6.856   3.907   8.767  0.6212 -1.1037 -0.4861
    4SAPS  C217  471   7.024   4.007   8.669 -0.3385 -0.6600 -0.3826
    4SAPS  H17R  472   7.109   4.075   8.694 -0.2381 -1.2728  1.0558
    4SAPS  H17S  473   6.967   4.052   8.585  1.2100  2.0549 -0.1134
    4SAPS  C218  474   7.085   3.875   8.614  0.1063  0.6238  0.3675
    4SAPS  H18R  475   7.148   3.828   8.693  0.5992 -0.6495 -0.7319
    4SAPS  H18S  476   7.159   3.911   8.540  1.3312  2.6883  2.4671
    4SAPS  C219  477   6.979   3.781   8.547 -0.3507  0.2675  0.4834
    4SAPS  H19R  478   6.916   3.830   8.470 -2.0353 -0.4463  1.3623
    4SAPS  H19S  479   6.897   3.748   8.614 -0.2207  0.0034  0.5098
    4SAPS  C220  480   7.035   3.650   8.485  0.1100 -0.6922 -0.5436
    4SAPS  H20R  481   6.947   3.597   8.444 -2.0298  1.2174  1.2791
    4SAPS  H20S  482   7.085   3.582   8.558 -0.0561  1.0771  1.3071
    4SAPS  H20T  483   7.110   3.674   8.406  1.2766  0.0550  0.7361
    4SAPS   C33  484   7.189   3.783  10.237 -0.2261  0.7228 -0.5189
    4SAPS   H3X  485   7.294   3.764  10.269 -0.9354 -1.6377  0.6337
    4SAPS   H3Y  486   7.180   3.859  10.156  1.4403  2.6212  0.9678
    4SAPS   C34  487   7.123   3.649  10.196  0.1136 -0.8883  0.0943
    4SAPS   H4X  488   7.034   3.683  10.138  2.1441  0.5399 -2.3883
    4SAPS   H4Y  489   7.101   3.599  10.293  0.8142 -1.0089  0.1943
    4SAPS   C35  490   7.198   3.559  10.099 -0.4471 -0.2094  0.6677
    4SAPS   H5X  491   7.131   3.476  10.068 -0.8187  0.0954  0.6539
    4SAPS   H5Y  492   7.287   3.519  10.153 -0.2775  0.0655  0.5966
    4SAPS   C36  493   7.241   3.624   9.970  0.6089 -0.0734  0.1772
    4SAPS   H6X  494   7.331   3.687   9.986  0.2795  0.6426 -0.6833
    4SAPS   H6Y  495   7.152   3.682   9.937  0.6613 -0.4066 -0.5802
    4SAPS   C37  496   7.260   3.528   9.850 -0.3015 -0.3235  0.5899
    4SAPS   H7X  497   7.166   3.476   9.823 -1.8546  2.2783  0.6849
    4SAPS   H7Y  498   7.348   3.462   9.863  0.1330  0.3501  1.1532
    4SAPS   C38  499   7.307   3.600   9.719 -0.0359  0.6582 -0.4101
    4SAPS   H8X  500   7.399   3.662   9.730  0.5140  0.0975 -1.6168
    4SAPS   H8Y  501   7.223   3.668   9.698  0.5906  1.9553  1.0974
    4SAPS   C39  502   7.328   3.511   9.602 -0.1034 -0.0333 -0.3548
    4SAPS   H9X  503   7.396   3.429   9.634 -0.3087 -0.0149  0.1394
    4SAPS   H9Y  504   7.381   3.562   9.518 -1.6722  0.7385 -0.9312
    4SAPS  C310  505   7.196   3.445   9.553  0.5818 -0.3116  0.6672
    4SAPS  H10X  506   7.124   3.527   9.532 -1.5674 -2.5996 -1.7214
    4SAPS  H10Y  507   7.159   3.371   9.627  0.4032 -0.8156  0.0835
    4SAPS  C311  508   7.213   3.373   9.419  0.0537 -0.2051  0.7989
    4SAPS  H11X  509   7.117   3.323   9.393  0.3435 -1.6565  2.4018
    4SAPS  H11Y  510   7.276   3.283   9.434 -0.6658 -0.6831  1.0191
    4SAPS  C312  511   7.256   3.465   9.298 -0.2350 -0.9954  0.0689
    4SAPS  H12X  512   7.357   3.512   9.310  0.5269 -2.0709 -1.7008
    4SAPS  H12Y  513   7.186   3.550   9.287 -1.1602 -1.7925 -0.4013
    4SAPS  C313  514   7.239   3.370   9.181 -0.2855 -0.1875 -0.5417
    4SAPS  H13X  515   7.139   3.323   9.193 -0.7846  1.1180  0.6297
    4SAPS  H13Y  516   7.312   3.286   9.181  0.3618  0.3587 -1.1712
    4SAPS  C314  517   7.243   3.450   9.054  0.5033 -0.6027 -0.2758
    4SAPS  H14X  518   7.181   3.541   9.064  1.0740 -0.0823 -1.2476
    4SAPS  H14Y  519   7.193   3.389   8.976 -2.1124 -1.5943  2.0337
    4SAPS  C315  520   7.378   3.499   9.010 -0.4709 -0.3182 -0.2439
    4SAPS  H15X  521   7.447   3.412   9.003  0.9529  0.2889  3.9210
    4SAPS  H15Y  522   7.427   3.557   9.091 -2.2619  1.5100 -0.3932
    4SAPS  C316  523   7.388   3.584   8.881  0.4780  1.0880 -0.6469
    4SAPS  H16X  524   7.496   3.610   8.875  1.1223 -1.3053 -0.2195
    4SAPS  H16Y  525   7.328   3.678   8.885  2.1553  2.1947 -0.3224
    4SAPS  C317  526   7.347   3.514   8.747  0.1884  0.0601 -0.8465
    4SAPS  H17X  527   7.240   3.487   8.755 -0.0857  1.2468 -0.3106
    4SAPS  H17Y  528   7.416   3.427   8.737  0.0178 -0.0285 -1.2733
    4SAPS  C318  529   7.376   3.586   8.619 -0.2140  0.1466  0.4880
    4SAPS  H18X  530   7.341   3.520   8.537  2.9821 -0.2169 -0.7084
    4SAPS  H18Y  531   7.484   3.601   8.602 -0.3527 -0.7947 -1.5622
    4SAPS  H18Z  532   7.326   3.686   8.617 -0.2415  0.1230 -0.4518
    5SAPS     N  533   5.075   2.452  10.625 -0.1186  0.0203 -0.2336
    5SAPS   HN1  534   5.090   2.354  10.656  0.5982 -0.0644 -0.8270
    5SAPS   HN2  535   5.057   2.457  10.523  0.9558  0.1370 -0.4326
    5SAPS   HN3  536   5.166   2.498  10.644 -0.0659  0.0198 -0.4815
    5SAPS   C12  537   4.962   2.509  10.702  0.2096  0.0742 -0.0441
    5SAPS  H12A  538   4.934   2.442  10.782  0.9529 -1.1782 -0.7915
    5SAPS   C13  539   5.001   2.634  10.791  0.1021 -0.0948 -0.5438
    5SAPS  O13A  540   5.116   2.684  10.776  0.0207 -0.0508 -0.2415
    5SAPS  O13B  541   4.911   2.688  10.859 -0.0746  0.3617 -0.1963
    5SAPS   C11  542   4.838   2.534  10.611 -0.3738  0.3877 -0.2576
    5SAPS  H11A  543   4.867   2.591  10.520 -0.1589 -0.1239 -0.5105
    5SAPS  H11B  544   4.774   2.605  10.668 -1.2552 -0.4894 -0.1446
    5SAPS     P  545   4.614   2.428  10.550 -0.6248  0.3090  0.4605
    5SAPS   O13  546   4.557   2.288  10.550 -0.3175  0.4309 -0.1720
    5SAPS   O14  547   4.556   2.517  10.648  0.2877  0.2319  0.1757
    5SAPS   O12  548   4.770   2.411  10.581 -0.8304  0.0907 -0.2489
    5SAPS   O11  549   4.599   2.491  10.405 -0.3133  0.2283 -0.0226
    5SAPS    C1  550   4.701   2.456  10.312 -0.2447 -0.0949 -0.4352
    5SAPS    HA  551   4.712   2.544  10.245  1.0500 -0.3803 -0.6078
    5SAPS    HB  552   4.802   2.453  10.358 -0.1509 -0.7968 -0.6889
    5SAPS    C2  553   4.656   2.328  10.233 -0.6710  0.5867 -0.3031
    5SAPS    HS  554   4.657   2.242  10.303  1.8224  0.3302 -0.5725
    5SAPS   O21  555   4.744   2.303  10.123  0.2569 -0.0068 -0.1646
    5SAPS   C21  556   4.855   2.249  10.150 -0.1036  0.1346 -0.1966
    5SAPS   O22  557   4.899   2.211  10.263 -0.8323 -0.6854  0.3598
    5SAPS   C22  558   4.921   2.224  10.014 -0.3683  0.6840 -0.5240
    5SAPS   H2R  559   4.877   2.274   9.925  2.4486  1.3835 -1.6333
    5SAPS   H2S  560   5.022   2.269  10.023 -0.6799  0.9728  2.6967
    5SAPS    C3  561   4.505   2.327  10.188  0.2211  0.3037  0.7011
    5SAPS    HX  562   4.448   2.367  10.274 -1.2101  1.3203 -0.6616
    5SAPS    HY  563   4.470   2.225  10.162  1.5748  0.1987 -0.8812
    5SAPS   O31  564   4.482   2.424  10.079  0.2800 -0.2474  0.0015
    5SAPS   C31  565   4.370   2.428  10.011  1.0470 -0.7361  0.8170
    5SAPS   O32  566   4.264   2.382  10.040 -0.1447 -0.0322  0.2306
    5SAPS   C32  567   4.394   2.516   9.886 -0.7552  0.2445  0.3710
    5SAPS   H2X  568   4.460   2.453   9.822 -0.6507 -2.7782  3.1368
    5SAPS   H2Y  569   4.453   2.600   9.928 -0.5297 -0.0091  0.5694
    5SAPS   C23  570   4.956   2.081   9.972  0.4073  0.3837 -0.3824
    5SAPS   H3R  571   4.993   2.003  10.041 -0.9292 -1.0223 -1.1925
    5SAPS   H3S  572   5.046   2.081   9.907  0.2058 -0.4972 -0.6724
    5SAPS   C24  573   4.841   2.021   9.898  0.4587 -0.8843  0.0321
    5SAPS   H4R  574   4.879   1.924   9.860 -0.6118 -1.1125 -0.4764
    5SAPS   H4S  575   4.809   2.084   9.813  0.8059 -0.4856  0.1898
    5SAPS   C25  576   4.726   1.978   9.987 -0.5493  0.3589  0.0821
    5SAPS   H5R  577   4.759   1.922  10.076 -0.6711  0.6020  0.2801
    5SAPS   C26  578   4.599   2.016   9.975  0.2748  0.0918  0.6910
    5SAPS   H6R  579   4.529   1.995  10.058  0.6052 -0.4446  0.8427
    5SAPS   C27  580   4.545   2.090   9.860 -0.1790 -0.6326 -1.2367
    5SAPS   H7R  581   4.612   2.178   9.854  1.2677 -1.5866  0.1911
    5SAPS   H7S  582   4.446   2.133   9.887 -0.2977 -0.8365 -1.3406
    5SAPS   C28  583   4.559   2.023   9.728  0.1519 -0.1244 -0.9931
    5SAPS   H8R  584   4.579   1.915   9.721 -0.6064 -0.3669  0.3494
    5SAPS   C29  585   4.525   2.088   9.611 -0.4222  0.2292 -0.2873
    5SAPS   H9R  586   4.524   2.029   9.519  2.8557  0.7395 -0.7764
    5SAPS  C210  587   4.468   2.228   9.599  0.0058  0.6587  0.4953
    5SAPS  H10R  588   4.533   2.304   9.551 -1.3293  3.0360  2.2775
    5SAPS  H10S  589   4.444   2.261   9.702 -2.6561 -0.4124  0.3096
    5SAPS  C211  590   4.342   2.219   9.525  0.2198  0.1453  0.0418
    5SAPS  H11R  591   4.261   2.173   9.585  0.9917 -1.9627 -0.4316
    5SAPS  C212  592   4.319   2.225   9.391 -0.0063  0.0867  0.7768
    5SAPS  H12R  593   4.217   2.231   9.352 -0.1872  2.8928  1.4552
    5SAPS  C213  594   4.422   2.243   9.276 -0.1423 -0.3995 -0.0706
    5SAPS  H13R  595   4.440   2.150   9.217 -0.8892  0.1238 -1.1614
    5SAPS  H13S  596   4.521   2.274   9.315  1.1297 -2.5975 -1.3240
    5SAPS  C214  597   4.362   2.348   9.178 -0.2410  0.2948 -0.6564
    5SAPS  H14R  598   4.334   2.446   9.220 -0.1605  0.4802 -1.0329
    5SAPS  C215  599   4.341   2.334   9.043 -0.2081  0.2275 -0.8538
    5SAPS  H15R  600   4.315   2.422   8.983 -3.2943 -0.1530 -0.2632
    5SAPS  C216  601   4.380   2.212   8.965  0.1793 -0.1131 -1.2203
    5SAPS  H16R  602   4.324   2.127   9.008  0.0941  0.6340  0.1885
    5SAPS  H16S  603   4.487   2.191   8.985  0.3012  0.6480 -1.0452
    5SAPS  C217  604   4.352   2.219   8.817 -0.5661 -0.0689  0.1699
    5SAPS  H17R  605   4.423   2.147   8.770 -1.7914 -1.7147  0.7539
    5SAPS  H17S  606   4.365   2.316   8.764 -0.9256  0.6726  1.4059
    5SAPS  C218  607   4.215   2.165   8.775  0.8015  0.4631 -0.5948
    5SAPS  H18R  608   4.208   2.055   8.791 -1.8474  0.7665  0.8218
    5SAPS  H18S  609   4.140   2.198   8.850  1.6716 -1.5847  1.3089
    5SAPS  C219  610   4.170   2.221   8.642 -0.3418 -0.4114  0.2671
    5SAPS  H19R  611   4.251   2.194   8.571  1.5120  0.5146  1.9336
    5SAPS  H19S  612   4.154   2.330   8.648 -2.2467 -0.6734  0.7741
    5SAPS  C220  613   4.033   2.153   8.596  0.6337 -0.6075 -0.6208
    5SAPS  H20R  614   4.003   2.181   8.493 -1.8583 -1.4729 -0.1927
    5SAPS  H20S  615   3.962   2.200   8.667  3.6940 -2.2603  4.0047
    5SAPS  H20T  616   4.043   2.044   8.614  0.4474 -0.6815 -0.9536
    5SAPS   C33  617   4.277   2.578   9.816  0.1239 -0.1387  0.1231
    5SAPS   H3X  618   4.229   2.651   9.884  0.0387 -0.1929  0.1219
    5SAPS   H3Y  619   4.201   2.502   9.788  1.1172 -0.4448 -1.9365
    5SAPS   C34  620   4.312   2.667   9.688  1.1212  0.4909  0.7639
    5SAPS   H4X  621   4.374   2.758   9.703  1.1732  0.5911 -0.0203
    5SAPS   H4Y  622   4.214   2.703   9.650  2.0030 -0.2763 -2.6013
    5SAPS   C35  623   4.379   2.599   9.561 -0.4304  0.1531 -0.0597
    5SAPS   H5X  624   4.330   2.499   9.553 -1.3983  0.6464 -0.4368
    5SAPS   H5Y  625   4.485   2.570   9.578  0.3251  1.5692 -1.9242
    5SAPS   C36  626   4.371   2.679   9.430  0.5705 -0.8308  0.1329
    5SAPS   H6X  627   4.428   2.639   9.343 -1.1563  0.7917 -1.8342
    5SAPS   H6Y  628   4.414   2.779   9.451 -1.7572  0.1047  0.7059
    5SAPS   C37  629   4.231   2.702   9.376 -0.3748 -0.1972 -0.1468
    5SAPS   H7X  630   4.168   2.754   9.450 -0.6241 -1.9553  0.9454
    5SAPS   H7Y  631   4.177   2.606   9.359 -0.8935 -0.1168  0.9841
    5SAPS   C38  632   4.236   2.791   9.245 -0.5436 -0.8404 -0.6911
    5SAPS   H8X  633   4.318   2.866   9.251 -2.6380  1.6074 -0.9010
    5SAPS   H8Y  634   4.138   2.844   9.250  0.3034  0.8276 -1.0187
    5SAPS   C39  635   4.258   2.713   9.115  0.0221  0.1154 -0.1766
    5SAPS   H9X  636   4.192   2.624   9.111 -0.4250  0.1479  3.3351
    5SAPS   H9Y  637   4.365   2.681   9.113 -0.2340 -0.7751  0.0052
    5SAPS  C310  638   4.238   2.788   8.982 -0.2150  0.3017 -0.4139
    5SAPS  H10X  639   4.157   2.860   9.005 -0.8809 -0.4354 -0.4343
    5SAPS  H10Y  640   4.191   2.721   8.908  0.2709  0.1763 -0.6164
    5SAPS  C311  641   4.368   2.855   8.935  0.8554  0.1595  0.5769
    5SAPS  H11X  642   4.439   2.779   8.897  1.2298  0.8883 -0.2364
    5SAPS  H11Y  643   4.415   2.900   9.025 -0.9619  2.4920  0.4534
    5SAPS  C312  644   4.351   2.955   8.822 -0.4944 -0.2709  0.1260
    5SAPS  H12X  645   4.366   3.060   8.855  2.5237  0.3275 -2.6399
    5SAPS  H12Y  646   4.250   2.947   8.777 -0.4127 -1.3225  0.0968
    5SAPS  C313  647   4.455   2.942   8.702  0.7220 -0.0892 -0.2359
    5SAPS  H13X  648   4.422   3.010   8.621 -0.6010 -0.3617  0.0570
    5SAPS  H13Y  649   4.448   2.844   8.651 -1.3617  1.1417 -2.5786
    5SAPS  C314  650   4.595   2.982   8.740 -0.4029 -0.1593  0.3612
    5SAPS  H14X  651   4.618   2.912   8.822 -1.1917  0.1085  0.8241
    5SAPS  H14Y  652   4.591   3.083   8.786 -1.4877 -0.6105  1.3172
    5SAPS  C315  653   4.696   2.957   8.623 -0.4007 -0.1679  0.5911
    5SAPS  H15X  654   4.681   3.020   8.533  1.0599  1.2900  1.3108
    5SAPS  H15Y  655   4.707   2.849   8.599  1.1015 -0.0231  0.4916
    5SAPS  C316  656   4.841   2.989   8.669 -0.5982 -0.2997  0.3329
    5SAPS  H16X  657   4.863   2.922   8.754  0.3757  0.4002  0.6470
    5SAPS  H16Y  658   4.845   3.093   8.708  0.9958 -0.0440 -0.4468
    5SAPS  C317  659   4.937   2.965   8.554 -0.8329  0.0235  0.2158
    5SAPS  H17X  660   4.894   3.006   8.460 -0.0371 -1.4281 -0.8146
    5SAPS  H17Y  661   4.930   2.855   8.543  0.0305  0.1396 -1.8384
    5SAPS  C318  662   5.082   3.002   8.595  0.4710  0.4283 -0.2965
    5SAPS  H18X  663   5.090   2.981   8.704 -0.5789  0.8564 -0.1253
    5SAPS  H18Y  664   5.105   3.108   8.573  1.2181  0.4246  0.4007
    5SAPS  H18Z  665   5.153   2.938   8.538  1.1391  0.6170  0.3080
    6SAPS     N  666   3.691   3.341  10.547 -0.4327  0.4966 -0.0237
    6SAPS   HN1  667   3.747   3.285  10.480  1.8391 -0.7756  2.7579
    6SAPS   HN2  668   3.596   3.346  10.504 -0.3544  0.2179 -0.2307
    6SAPS   HN3  669   3.726   3.439  10.548 -2.5765  1.3414  0.7188
    6SAPS   C12  670   3.687   3.281  10.686  0.8287 -0.1338 -0.8720
    6SAPS  H12A  671   3.675   3.175  10.671 -1.5441 -0.5262  2.5429
    6SAPS   C13  672   3.821   3.287  10.759  0.4006 -0.0599  0.2062
    6SAPS  O13A  673   3.920   3.347  10.705 -0.0857 -0.1412 -0.0466
    6SAPS  O13B  674   3.843   3.193  10.845 -0.2212 -0.2875 -0.0665
    6SAPS   C11  675   3.579   3.358  10.772 -0.3409  0.6247  0.2977
    6SAPS  H11A  676   3.617   3.459  10.795  0.6645  0.2026  0.5395
    6SAPS  H11B  677   3.557   3.299  10.864 -0.1251 -1.7636 -1.0988
    6SAPS     P  678   3.332   3.447  10.744  0.0169 -0.1542 -0.1698
    6SAPS   O13  679   3.274   3.385  10.867 -0.1390 -0.1939 -0.0813
    6SAPS   O14  680   3.365   3.592  10.748 -0.0830 -0.1437 -0.7994
    6SAPS   O12  681   3.458   3.359  10.701  0.8607  0.0560 -0.7375
    6SAPS   O11  682   3.232   3.407  10.621 -0.3387  0.0028 -0.5372
    6SAPS    C1  683   3.213   3.271  10.589  1.2864  0.7386 -0.0714
    6SAPS    HA  684   3.203   3.203  10.676  0.0324  2.2822  1.0322
    6SAPS    HB  685   3.106   3.261  10.560  1.0193 -0.4066  1.1683
    6SAPS    C2  686   3.308   3.208  10.484  0.0201 -0.3798  0.0780
    6SAPS    HS  687   3.411   3.216  10.523  0.0783  1.2051 -0.3223
    6SAPS   O21  688   3.294   3.295  10.366  0.0030 -0.0474  0.1784
    6SAPS   C21  689   3.393   3.362  10.319 -1.1915  0.4523  0.2246
    6SAPS   O22  690   3.508   3.355  10.352  0.0065 -0.3311  0.3015
    6SAPS   C22  691   3.349   3.438  10.192  0.3693 -0.4833 -0.6184
    6SAPS   H2R  692   3.323   3.356  10.121  1.0088 -1.3995  0.1816
    6SAPS   H2S  693   3.252   3.487  10.213 -0.5039 -2.6133  0.6510
    6SAPS    C3  694   3.265   3.051  10.453  0.3146 -0.1194  0.0825
    6SAPS    HX  695   3.255   3.002  10.552  1.6068  0.7549  0.6712
    6SAPS    HY  696   3.350   3.005  10.398  0.1274  0.5428 -0.7773
    6SAPS   O31  697   3.138   3.051  10.375 -0.3116 -0.3470  0.2411
    6SAPS   C31  698   3.101   2.932  10.331  0.0118  0.3486 -0.4367
    6SAPS   O32  699   3.169   2.830  10.336  0.5896 -0.2774  0.5085
    6SAPS   C32  700   2.960   2.936  10.279  0.4506  0.0496 -0.4660
    6SAPS   H2X  701   2.946   3.007  10.194  0.2349 -0.7137 -1.0841
    6SAPS   H2Y  702   2.899   2.994  10.351 -0.9866  1.0931 -2.4346
    6SAPS   C23  703   3.463   3.509  10.115  0.3266  0.0337 -0.1445
    6SAPS   H3R  704   3.557   3.451  10.117  1.2445  1.4840  0.2315
    6SAPS   H3S  705   3.477   3.608  10.164 -0.3168 -0.3264  0.8035
    6SAPS   C24  706   3.432   3.522   9.964  0.1099  0.0719 -0.8104
    6SAPS   H4R  707   3.335   3.575   9.952  0.0859  0.2573  0.1376
    6SAPS   H4S  708   3.418   3.422   9.918 -0.2221  0.0157 -0.5916
    6SAPS   C25  709   3.531   3.616   9.902 -0.4045  0.4184  0.1721
    6SAPS   H5R  710   3.563   3.690   9.977 -0.2150  0.6895 -0.1734
    6SAPS   C26  711   3.578   3.596   9.783 -0.3878 -0.8080 -0.1032
    6SAPS   H6R  712   3.656   3.669   9.754 -1.0112  0.4962  1.3622
    6SAPS   C27  713   3.538   3.483   9.690 -0.4157 -0.4621  0.4276
    6SAPS   H7R  714   3.505   3.529   9.595  2.9448  0.5070 -0.4112
    6SAPS   H7S  715   3.458   3.419   9.731 -0.7767  0.5669  1.3847
    6SAPS   C28  716   3.647   3.385   9.660 -0.5476 -0.0842 -0.0528
    6SAPS   H8R  717   3.630   3.286   9.707  0.4793  0.4123  1.4751
    6SAPS   C29  718   3.752   3.400   9.583 -0.1754 -0.5206  0.3911
    6SAPS   H9R  719   3.820   3.317   9.559  0.7298  0.3651 -0.1803
    6SAPS  C210  720   3.771   3.519   9.495 -0.1249  0.2064  0.5780
    6SAPS  H10R  721   3.880   3.540   9.482 -0.1438 -0.8989 -1.8989
    6SAPS  H10S  722   3.723   3.605   9.546 -0.8281  0.6557 -0.7865
    6SAPS  C211  723   3.709   3.502   9.352 -0.7490  0.3794 -0.2064
    6SAPS  H11R  724   3.640   3.417   9.342  0.4585 -0.7659  0.7484
    6SAPS  C212  725   3.737   3.577   9.248  0.3263  0.3230  0.7425
    6SAPS  H12R  726   3.686   3.548   9.155 -0.0782 -3.1026  1.9185
    6SAPS  C213  727   3.821   3.702   9.237 -0.8731  0.4467  0.4412
    6SAPS  H13R  728   3.846   3.706   9.128  0.7896 -0.6797  0.7401
    6SAPS  H13S  729   3.915   3.691   9.295 -1.2649 -1.7526  0.7717
    6SAPS  C214  730   3.763   3.827   9.295  0.1172  0.2674  0.0417
    6SAPS  H14R  731   3.769   3.841   9.404 -0.6781 -2.5568  0.5238
    6SAPS  C215  732   3.676   3.908   9.224 -0.4728  0.0636  0.4714
    6SAPS  H15R  733   3.631   3.996   9.271  1.6586  1.5438 -0.1349
    6SAPS  C216  734   3.647   3.894   9.072  0.6120  0.3492  0.0221
    6SAPS  H16R  735   3.538   3.888   9.052  0.9128 -2.7605 -1.3291
    6SAPS  H16S  736   3.683   3.797   9.030  0.4905 -0.2808  1.3096
    6SAPS  C217  737   3.699   4.007   8.982  0.0670 -0.1849 -0.3704
    6SAPS  H17R  738   3.794   4.051   9.019 -0.2931 -0.3571  0.7888
    6SAPS  H17S  739   3.634   4.096   8.996 -1.6379 -1.4862  0.3438
    6SAPS  C218  740   3.683   3.983   8.827  0.0636  0.5175 -0.3927
    6SAPS  H18R  741   3.680   4.082   8.777 -1.9073  1.2392  1.0375
    6SAPS  H18S  742   3.592   3.927   8.794 -0.7058  2.4742 -1.8229
    6SAPS  C219  743   3.795   3.894   8.765 -0.2886  0.6922 -0.1770
    6SAPS  H19R  744   3.763   3.875   8.660 -1.6626  0.1062  0.3234
    6SAPS  H19S  745   3.805   3.796   8.817 -0.5422  0.4664 -0.5519
    6SAPS  C220  746   3.936   3.954   8.775 -0.7005 -0.3462  0.4494
    6SAPS  H20R  747   4.019   3.884   8.756 -1.1419 -0.5757 -0.7100
    6SAPS  H20S  748   3.955   4.013   8.867  1.8432  0.9026 -0.7901
    6SAPS  H20T  749   3.939   4.030   8.694 -0.1843 -0.1602  0.6410
    6SAPS   C33  750   2.879   2.803  10.258  0.5519  0.3782 -0.5277
    6SAPS   H3X  751   2.773   2.834  10.244 -0.8155 -1.5220  3.7992
    6SAPS   H3Y  752   2.874   2.753  10.358 -0.1783  1.5281  0.0267
    6SAPS   C34  753   2.924   2.699  10.147 -0.4232 -0.0577 -0.1045
    6SAPS   H4X  754   2.851   2.615  10.147  0.8812 -1.2856 -2.1572
    6SAPS   H4Y  755   3.022   2.654  10.172  1.8707  4.0956 -0.6848
    6SAPS   C35  756   2.917   2.758  10.002  0.1069 -0.1963  0.1273
    6SAPS   H5X  757   2.977   2.851   9.987 -2.4421  1.7802  1.3003
    6SAPS   H5Y  758   2.813   2.794   9.984  0.5126 -0.0509 -2.1738
    6SAPS   C36  759   2.936   2.651   9.905 -0.5772 -0.4225 -0.7659
    6SAPS   H6X  760   2.878   2.561   9.934  1.8679 -1.2109  2.1696
    6SAPS   H6Y  761   3.037   2.609   9.926 -0.6833  0.4342  1.8712
    6SAPS   C37  762   2.914   2.687   9.757  0.3860 -0.1484  0.3811
    6SAPS   H7X  763   2.814   2.731   9.736  1.0863  0.5901 -1.7398
    6SAPS   H7Y  764   2.909   2.588   9.705  1.1574  0.1388 -0.2699
    6SAPS   C38  765   3.027   2.766   9.683 -0.4304  0.1828 -0.3721
    6SAPS   H8X  766   3.122   2.709   9.685 -0.5079 -0.0601 -2.1087
    6SAPS   H8Y  767   3.032   2.857   9.748 -3.1482 -0.4125  0.8493
    6SAPS   C39  768   2.997   2.816   9.540 -0.1467  0.4265  0.1299
    6SAPS   H9X  769   2.920   2.895   9.555  1.0322  1.5990  0.1997
    6SAPS   H9Y  770   2.964   2.735   9.471  2.1673 -0.5614  0.0964
    6SAPS  C310  771   3.111   2.898   9.469 -0.2679 -0.4418 -0.0311
    6SAPS  H10X  772   3.205   2.841   9.457 -1.1687 -2.1464  0.6896
    6SAPS  H10Y  773   3.130   2.986   9.534  0.0533 -2.5989  3.0187
    6SAPS  C311  774   3.068   2.959   9.332 -0.3872 -0.2131 -0.1936
    6SAPS  H11X  775   3.110   3.060   9.314  0.1577 -0.7532 -2.2119
    6SAPS  H11Y  776   2.959   2.976   9.340  0.1406  3.4044  1.4603
    6SAPS  C312  777   3.112   2.880   9.208 -0.5573 -0.5259 -0.3386
    6SAPS  H12X  778   3.140   2.780   9.249 -0.7011  0.6642  2.9706
    6SAPS  H12Y  779   3.206   2.923   9.167 -1.3912  0.9258 -0.7674
    6SAPS  C313  780   3.001   2.875   9.098 -0.0780  0.5071 -0.1371
    6SAPS  H13X  781   2.915   2.829   9.151  1.3956 -1.5219  0.6314
    6SAPS  H13Y  782   3.011   2.803   9.014  0.6489  1.2288 -0.6921
    6SAPS  C314  783   2.942   3.002   9.032 -0.0614 -0.0375  0.3289
    6SAPS  H14X  784   2.941   3.083   9.108  0.2194  0.3549 -0.0818
    6SAPS  H14Y  785   2.846   2.968   8.989  1.1299 -4.2997  0.5402
    6SAPS  C315  786   3.037   3.043   8.921  0.7725 -0.7919  0.1874
    6SAPS  H15X  787   3.051   2.962   8.846  2.4414 -1.2746  0.9719
    6SAPS  H15Y  788   3.140   3.055   8.962  0.8041  1.2230 -0.4082
    6SAPS  C316  789   2.984   3.172   8.854 -0.6926  0.0895  0.1214
    6SAPS  H16X  790   2.973   3.255   8.927 -1.8088 -0.8399  1.0611
    6SAPS  H16Y  791   2.883   3.149   8.816  0.3879  0.1878 -3.0807
    6SAPS  C317  792   3.068   3.220   8.734  0.3982  0.1386  0.1775
    6SAPS  H17X  793   3.130   3.153   8.671  2.0148  0.7432  1.0510
    6SAPS  H17Y  794   3.152   3.269   8.789  1.9638 -1.2636 -0.8712
    6SAPS  C318  795   2.992   3.323   8.651 -0.1444 -0.0424  0.4660
    6SAPS  H18X  796   2.936   3.391   8.719  0.8360 -0.1315  1.3950
    6SAPS  H18Y  797   2.922   3.269   8.583 -0.3551  2.1359 -1.1300
    6SAPS  H18Z  798   3.058   3.380   8.583  0.4362  1.7806  2.4643
    7SAPS     N  799   4.112   3.163  10.746 -0.5927  0.1693 -0.1200
    7SAPS   HN1  800   4.152   3.129  10.835 -1.1128  2.0573  0.8781
    7SAPS   HN2  801   4.166   3.247  10.715  1.4656 -1.3775 -1.0119
    7SAPS   HN3  802   4.016   3.199  10.759 -0.3524  0.7228  0.1615
    7SAPS   C12  803   4.135   3.049  10.644  0.2746 -0.3091 -0.3941
    7SAPS  H12A  804   4.169   3.099  10.555 -0.3660  1.3949  0.2871
    7SAPS   C13  805   4.244   2.950  10.690 -0.0595  0.4996 -0.8652
    7SAPS  O13A  806   4.310   2.971  10.798  0.9871  0.0864  0.0667
    7SAPS  O13B  807   4.276   2.849  10.616 -0.1008 -0.8870 -0.0181
    7SAPS   C11  808   4.009   2.964  10.632  0.1414  0.4563  0.4654
    7SAPS  H11A  809   3.982   2.946  10.739  3.4675 -1.1529  1.1501
    7SAPS  H11B  810   4.020   2.868  10.577 -4.1255  1.5655 -2.9160
    7SAPS     P  811   3.886   3.056  10.419  0.0040 -0.5180  0.4271
    7SAPS   O13  812   3.767   2.974  10.379 -1.0819 -0.5285 -0.5896
    7SAPS   O14  813   3.868   3.203  10.392 -0.0735  0.1545 -0.0618
    7SAPS   O12  814   3.897   3.034  10.575  0.1599  0.4821 -0.5271
    7SAPS   O11  815   4.022   3.000  10.360 -0.2785 -0.2170 -0.0914
    7SAPS    C1  816   4.115   3.075  10.278  0.9463 -0.1610  0.1417
    7SAPS    HA  817   4.126   3.179  10.316 -0.8616  0.3165 -0.5254
    7SAPS    HB  818   4.216   3.029  10.273  1.5235  0.8277  1.7268
    7SAPS    C2  819   4.064   3.088  10.125 -0.0319 -0.4962  0.2174
    7SAPS    HS  820   3.979   3.158  10.130 -0.4525 -1.0412  0.9595
    7SAPS   O21  821   4.029   2.960  10.073 -0.1025 -0.1973  0.5438
    7SAPS   C21  822   3.918   2.958   9.997 -0.5558 -0.0770  0.3181
    7SAPS   O22  823   3.838   3.049   9.974  0.1581 -0.2149  0.1865
    7SAPS   C22  824   3.903   2.811   9.953 -0.1900  0.5487 -0.7806
    7SAPS   H2R  825   3.996   2.776   9.903 -1.5755 -1.0473 -2.3840
    7SAPS   H2S  826   3.888   2.753  10.046 -2.2040 -2.1694 -2.6266
    7SAPS    C3  827   4.174   3.150  10.035  0.1006 -0.2487 -0.3827
    7SAPS    HX  828   4.263   3.084  10.026  0.1679 -0.1877 -0.1561
    7SAPS    HY  829   4.215   3.237  10.091 -1.7677 -0.7491  1.9398
    7SAPS   O31  830   4.126   3.197   9.908  0.5057 -0.1953 -0.2992
    7SAPS   C31  831   4.145   3.114   9.799 -0.2890  0.8303 -0.4522
    7SAPS   O32  832   4.211   3.013   9.797 -0.6745 -0.0715  0.4408
    7SAPS   C32  833   4.056   3.154   9.683  0.0060  0.2013  0.1491
    7SAPS   H2X  834   4.102   3.240   9.629 -2.3119  2.7117  1.8871
    7SAPS   H2Y  835   3.955   3.179   9.722  0.0985 -1.3144  1.4437
    7SAPS   C23  836   3.780   2.801   9.864 -0.7015 -0.0267 -0.6672
    7SAPS   H3R  837   3.796   2.853   9.767  0.0446 -3.6628 -2.7072
    7SAPS   H3S  838   3.699   2.860   9.912 -1.1011 -0.6708 -0.5322
    7SAPS   C24  839   3.726   2.659   9.844 -0.0280  0.3154  0.6029
    7SAPS   H4R  840   3.627   2.662   9.792 -0.0639  0.1732  0.6616
    7SAPS   H4S  841   3.705   2.617   9.945  1.3372 -2.3828 -0.1461
    7SAPS   C25  842   3.818   2.563   9.771 -0.1612  0.0550  0.3045
    7SAPS   H5R  843   3.860   2.480   9.830 -0.7438 -1.1117 -0.8693
    7SAPS   C26  844   3.855   2.562   9.641  0.4453  0.6507 -0.6678
    7SAPS   H6R  845   3.932   2.488   9.612  0.9170  1.0481 -0.4316
    7SAPS   C27  846   3.807   2.648   9.526 -0.0930 -0.3676  0.4275
    7SAPS   H7R  847   3.888   2.697   9.468 -1.1524 -0.5572 -1.2823
    7SAPS   H7S  848   3.740   2.727   9.566  0.5483  0.3954  0.0379
    7SAPS   C28  849   3.730   2.566   9.428 -0.0080 -0.0921  0.0988
    7SAPS   H8R  850   3.637   2.522   9.467  0.1455 -0.7470 -0.2544
    7SAPS   C29  851   3.775   2.531   9.306 -0.6412  0.1617  1.0244
    7SAPS   H9R  852   3.702   2.466   9.256  0.3186 -1.5607  1.7845
    7SAPS  C210  853   3.900   2.567   9.233 -0.3425  0.5060  0.0260
    7SAPS  H10R  854   3.964   2.622   9.305  1.2610 -1.0780 -0.1036
    7SAPS  H10S  855   3.882   2.648   9.159  0.0500  3.1755  2.6623
    7SAPS  C211  856   3.973   2.456   9.159  0.1210 -0.2357  0.2935
    7SAPS  H11R  857   4.068   2.441   9.211 -0.1753  0.0065  0.9167
    7SAPS  C212  858   3.947   2.394   9.046  0.1916  0.2553 -0.2946
    7SAPS  H12R  859   4.008   2.313   9.004  1.6751  0.4064  1.4753
    7SAPS  C213  860   3.831   2.428   8.961 -0.5131 -0.0560 -0.2695
    7SAPS  H13R  861   3.776   2.520   8.991  0.3418  0.7831 -1.1635
    7SAPS  H13S  862   3.753   2.349   8.966  0.3439 -0.8405  1.3258
    7SAPS  C214  863   3.884   2.448   8.823 -0.5659  0.0748 -0.5682
    7SAPS  H14R  864   3.965   2.376   8.804  1.1994  1.9379 -0.4432
    7SAPS  C215  865   3.848   2.543   8.733 -0.2007  0.0255 -0.5716
    7SAPS  H15R  866   3.897   2.539   8.634 -1.7373 -0.8456 -1.3363
    7SAPS  C216  867   3.736   2.642   8.763  0.1327  0.4515 -0.2207
    7SAPS  H16R  868   3.786   2.741   8.760  1.0236  0.0649  1.2528
    7SAPS  H16S  869   3.687   2.630   8.862 -0.1857  1.8333 -0.1912
    7SAPS  C217  870   3.617   2.648   8.668 -0.0626 -0.2207  0.3175
    7SAPS  H17R  871   3.555   2.558   8.651 -1.9048  1.2030 -0.9720
    7SAPS  H17S  872   3.659   2.679   8.570 -2.2233  0.5629 -0.4127
    7SAPS  C218  873   3.520   2.769   8.706  0.8144  0.1049 -0.3537
    7SAPS  H18R  874   3.566   2.867   8.680 -2.7433  1.7337 -1.0977
    7SAPS  H18S  875   3.511   2.765   8.816  0.4249 -1.7206 -0.4180
    7SAPS  C219  876   3.383   2.760   8.645  0.0567  0.3929 -0.2685
    7SAPS  H19R  877   3.356   2.653   8.633 -0.6515  0.7906 -3.1198
    7SAPS  H19S  878   3.404   2.793   8.541  1.9385  0.7984  0.2071
    7SAPS  C220  879   3.268   2.834   8.703  0.5356  0.1028 -0.1188
    7SAPS  H20R  880   3.279   2.944   8.695 -0.4481  0.4826  2.7099
    7SAPS  H20S  881   3.264   2.812   8.812  0.3031  0.0714 -0.1334
    7SAPS  H20T  882   3.177   2.817   8.642  0.9284 -1.6250 -0.2945
    7SAPS   C33  883   4.038   3.036   9.586 -0.3404  0.4631  0.4124
    7SAPS   H3X  884   4.009   2.941   9.635  0.7692  0.6929  1.5858
    7SAPS   H3Y  885   4.137   3.004   9.548 -0.6000  0.3862 -0.2137
    7SAPS   C34  886   3.946   3.066   9.469 -0.3310  0.3505 -0.1020
    7SAPS   H4X  887   3.844   3.085   9.508 -1.0270  0.1588 -1.7298
    7SAPS   H4Y  888   3.948   2.989   9.389  0.7658  0.5160 -0.2631
    7SAPS   C35  889   3.984   3.195   9.394  0.3510  0.6397 -0.5296
    7SAPS   H5X  890   4.001   3.278   9.467  0.2301  1.7680 -1.7482
    7SAPS   H5Y  891   3.896   3.229   9.336  0.3872  4.3173  1.2832
    7SAPS   C36  892   4.101   3.168   9.301  0.3873  0.1841  0.3933
    7SAPS   H6X  893   4.078   3.078   9.239  1.4290  0.7399 -0.8649
    7SAPS   H6Y  894   4.197   3.147   9.353 -0.0440  0.3028  1.2562
    7SAPS   C37  895   4.121   3.281   9.200  0.2707 -0.0019  0.3476
    7SAPS   H7X  896   4.151   3.378   9.244  0.8142 -0.1414  0.2976
    7SAPS   H7Y  897   4.019   3.292   9.157  0.5659  0.9380 -0.1416
    7SAPS   C38  898   4.220   3.259   9.082 -0.5702 -0.3577 -0.1784
    7SAPS   H8X  899   4.195   3.157   9.046 -1.4318 -0.1983 -0.0498
    7SAPS   H8Y  900   4.322   3.264   9.127 -1.0225  3.0660  0.7942
    7SAPS   C39  901   4.210   3.367   8.976 -0.4088 -0.4237 -0.3908
    7SAPS   H9X  902   4.271   3.454   9.009  2.2282 -2.4791  0.4742
    7SAPS   H9Y  903   4.105   3.403   8.974 -0.0545  0.6644 -2.0305
    7SAPS  C310  904   4.254   3.329   8.831 -0.1831 -0.3520  0.5749
    7SAPS  H10X  905   4.207   3.230   8.811 -0.2623  0.1711 -2.1715
    7SAPS  H10Y  906   4.364   3.327   8.819 -0.2688  3.1166 -2.7124
    7SAPS  C311  907   4.183   3.425   8.730  0.0363  0.1482 -0.0233
    7SAPS  H11X  908   4.234   3.396   8.636 -0.5243 -1.2974  0.0902
    7SAPS  H11Y  909   4.211   3.529   8.757  1.2029 -0.1239 -0.1663
    7SAPS  C312  910   4.030   3.405   8.713  0.4739 -0.3913 -0.2348
    7SAPS  H12X  911   4.011   3.297   8.732 -0.2776 -0.8495 -3.1399
    7SAPS  H12Y  912   4.002   3.417   8.607 -3.5169 -1.6326  0.4964
    7SAPS  C313  913   3.938   3.510   8.792  0.0083 -0.0247  0.1606
    7SAPS  H13X  914   3.954   3.612   8.752 -3.8789  1.1185  1.1675
    7SAPS  H13Y  915   3.954   3.511   8.902  1.1499 -1.6598  0.0586
    7SAPS  C314  916   3.790   3.486   8.764  0.4282  0.4590 -0.1939
    7SAPS  H14X  917   3.756   3.510   8.661  0.1210  2.4384  0.3260
    7SAPS  H14Y  918   3.739   3.562   8.828  2.4983  0.5509  1.4448
    7SAPS  C315  919   3.738   3.343   8.799  0.2475 -0.8026  0.0445
    7SAPS  H15X  920   3.796   3.304   8.886  0.0845 -1.0095  0.0622
    7SAPS  H15Y  921   3.763   3.273   8.716 -0.8490 -1.9985  0.6797
    7SAPS  C316  922   3.589   3.325   8.837  0.1812  0.3756  0.2325
    7SAPS  H16X  923   3.509   3.343   8.762  0.2911 -0.3837 -0.0733
    7SAPS  H16Y  924   3.570   3.392   8.923  2.7251  2.4421 -0.6521
    7SAPS  C317  925   3.564   3.178   8.873  0.4200  0.4359 -0.5817
    7SAPS  H17X  926   3.633   3.148   8.955 -0.7335 -2.4860 -0.5274
    7SAPS  H17Y  927   3.587   3.119   8.782  1.2432  0.6996 -0.5452
    7SAPS  C318  928   3.426   3.151   8.936  0.4088 -0.3132 -0.2228
    7SAPS  H18X  929   3.394   3.207   9.026 -1.9231 -0.1246 -1.1109
    7SAPS  H18Y  930   3.418   3.041   8.948  3.0464 -0.4976  0.5545
    7SAPS  H18Z  931   3.348   3.189   8.867 -0.2268 -0.0929  0.6049
    8SAPS     N  932   3.641   6.208  11.345  1.0382  0.2232  0.0831
    8SAPS   HN1  933   3.662   6.157  11.433  1.1736 -0.5870 -0.4046
    8SAPS   HN2  934   3.624   6.136  11.272  0.6290  0.1424  0.2614
    8SAPS   HN3  935   3.726   6.257  11.309  1.8960 -1.0285  0.3305
    8SAPS   C12  936   3.510   6.282  11.355  0.8843  0.0279 -0.4353
    8SAPS  H12A  937   3.436   6.210  11.387  2.7494 -1.1532  1.5618
    8SAPS   C13  938   3.514   6.397  11.461  0.3949 -0.0418 -0.1477
    8SAPS  O13A  939   3.607   6.396  11.551 -0.1759 -0.9938 -0.0003
    8SAPS  O13B  940   3.435   6.492  11.464  0.5066 -0.0934 -0.0739
    8SAPS   C11  941   3.478   6.330  11.208 -0.0639 -0.1465 -0.3591
    8SAPS  H11A  942   3.545   6.415  11.185 -1.3155  0.8823 -0.2912
    8SAPS  H11B  943   3.378   6.377  11.200  0.8220  1.9300 -0.0180
    8SAPS     P  944   3.385   6.177  11.021 -0.0726 -0.2894  0.2623
    8SAPS   O13  945   3.436   6.079  10.920 -0.1472  0.6133 -0.2235
    8SAPS   O14  946   3.283   6.125  11.121 -0.3286 -0.1736 -0.0746
    8SAPS   O12  947   3.503   6.225  11.117  0.4636 -0.4635  0.6859
    8SAPS   O11  948   3.337   6.312  10.963 -0.2581  1.0048 -0.1817
    8SAPS    C1  949   3.412   6.398  10.883 -0.7764 -0.1408 -0.3497
    8SAPS    HA  950   3.505   6.430  10.935 -0.7362 -0.1700 -0.4046
    8SAPS    HB  951   3.418   6.347  10.784 -2.6184  0.0604 -0.6012
    8SAPS    C2  952   3.335   6.536  10.876  0.4440  0.5014 -0.2315
    8SAPS    HS  953   3.266   6.539  10.963 -0.4500 -0.1653 -0.8931
    8SAPS   O21  954   3.258   6.544  10.753 -0.0334  0.1232  0.0821
    8SAPS   C21  955   3.155   6.637  10.760 -0.5333  0.4087  0.2054
    8SAPS   O22  956   3.129   6.707  10.857 -0.1607  0.2169  0.3067
    8SAPS   C22  957   3.077   6.638  10.632 -0.2877  0.4804  0.6543
    8SAPS   H2R  958   2.979   6.683  10.660 -0.0459  0.4456  1.5663
    8SAPS   H2S  959   3.126   6.699  10.553  1.5350 -0.9031  0.6399
    8SAPS    C3  960   3.431   6.664  10.887 -0.3406  0.1885  0.1395
    8SAPS    HX  961   3.487   6.667  10.983  0.3561 -0.1914 -0.2517
    8SAPS    HY  962   3.367   6.755  10.889 -0.2196  0.2692  0.3283
    8SAPS   O31  963   3.522   6.674  10.779  0.1976 -0.4189 -0.5565
    8SAPS   C31  964   3.490   6.756  10.677 -1.1454  0.6409 -0.1334
    8SAPS   O32  965   3.407   6.845  10.672  0.5311  0.6396 -0.6582
    8SAPS   C32  966   3.571   6.699  10.560  0.1463  0.1105 -0.0103
    8SAPS   H2X  967   3.593   6.591  10.571  1.2384  0.2088 -1.0306
    8SAPS   H2Y  968   3.670   6.748  10.571  0.4671 -0.2966 -0.9527
    8SAPS   C23  969   3.045   6.499  10.570 -0.2789 -0.3982 -0.2259
    8SAPS   H3R  970   3.008   6.423  10.643 -0.0471 -1.5152 -1.2564
    8SAPS   H3S  971   3.137   6.456  10.526 -1.6030 -1.3473 -2.1998
    8SAPS   C24  972   2.951   6.519  10.456 -0.0854 -0.1116 -0.0823
    8SAPS   H4R  973   2.994   6.601  10.395  0.9946  0.4389  1.3702
    8SAPS   H4S  974   2.855   6.563  10.492  1.4869  3.0675  0.5270
    8SAPS   C25  975   2.910   6.399  10.373 -0.5318  0.6384  0.3128
    8SAPS   H5R  976   2.925   6.301  10.420  1.4095  0.1944 -1.1159
    8SAPS   C26  977   2.886   6.395  10.241 -0.3186  0.4434 -0.3703
    8SAPS   H6R  978   2.851   6.301  10.195  1.1514  0.7414 -2.2310
    8SAPS   C27  979   2.889   6.518  10.148 -0.1917  0.2832  0.2704
    8SAPS   H7R  980   2.939   6.496  10.052  0.5488  2.0351  0.2150
    8SAPS   H7S  981   2.957   6.592  10.196 -0.1568 -0.6142  1.6762
    8SAPS   C28  982   2.748   6.579  10.130 -0.4768 -0.1715 -0.5118
    8SAPS   H8R  983   2.691   6.581  10.225  2.1512  0.5004  1.1392
    8SAPS   C29  984   2.689   6.617  10.017 -0.2964  0.0096 -0.0300
    8SAPS   H9R  985   2.594   6.671  10.020 -1.0819 -1.3454  0.2736
    8SAPS  C210  986   2.740   6.601   9.879  0.4037  0.2822  0.3237
    8SAPS  H10R  987   2.845   6.636   9.880 -0.2239  2.3283 -0.2231
    8SAPS  H10S  988   2.680   6.672   9.817  0.5231 -1.8298 -2.4466
    8SAPS  C211  989   2.747   6.464   9.817  0.7926 -0.1947 -0.1709
    8SAPS  H11R  990   2.716   6.379   9.880  0.7699 -0.6703 -0.8145
    8SAPS  C212  991   2.776   6.442   9.688  0.3562 -0.0190 -0.6528
    8SAPS  H12R  992   2.769   6.340   9.647 -2.1849 -0.8159  1.4394
    8SAPS  C213  993   2.811   6.548   9.584  0.1402 -0.2143 -0.0820
    8SAPS  H13R  994   2.816   6.647   9.635  0.8407 -0.5991  0.6078
    8SAPS  H13S  995   2.729   6.558   9.509 -1.4841  1.7079  1.7985
    8SAPS  C214  996   2.938   6.533   9.506 -0.6769 -0.3374 -0.3120
    8SAPS  H14R  997   3.027   6.569   9.559 -0.1230 -1.3318 -0.5313
    8SAPS  C215  998   2.952   6.480   9.383  0.2921 -0.6191 -0.0736
    8SAPS  H15R  999   3.052   6.471   9.338 -0.7901 -0.3009 -2.7600
    8SAPS  C216 1000   2.849   6.410   9.296  0.3063 -0.1604  0.5740
    8SAPS  H16R 1001   2.760   6.382   9.356 -1.5218  1.0001 -1.4422
    8SAPS  H16S 1002   2.890   6.318   9.249  0.5269  0.4151 -0.3983
    8SAPS  C217 1003   2.797   6.495   9.177 -0.6153  0.6883  0.3742
    8SAPS  H17R 1004   2.784   6.601   9.208  0.3419  1.5023 -1.7767
    8SAPS  H17S 1005   2.695   6.461   9.147 -0.7260  1.3414 -0.0215
    8SAPS  C218 1006   2.893   6.497   9.058 -0.4053 -0.2256  1.0180
    8SAPS  H18R 1007   2.891   6.396   9.012  0.0701  0.1170  0.2231
    8SAPS  H18S 1008   2.991   6.518   9.105  0.9337 -0.9990 -1.2733
    8SAPS  C219 1009   2.856   6.604   8.954  0.5489  0.1971  0.0749
    8SAPS  H19R 1010   2.935   6.631   8.880 -0.2345  1.8589 -0.1932
    8SAPS  H19S 1011   2.865   6.690   9.023  0.5054  1.0062 -0.8966
    8SAPS  C220 1012   2.709   6.582   8.899 -0.6387 -0.5023  0.1892
    8SAPS  H20R 1013   2.625   6.579   8.972 -0.2866  1.5254  0.7327
    8SAPS  H20S 1014   2.701   6.488   8.840 -3.1616 -0.4866  0.4287
    8SAPS  H20T 1015   2.683   6.665   8.830 -0.3758  0.9353  1.7581
    8SAPS   C33 1016   3.506   6.712  10.421 -0.5324 -0.0642 -0.2874
    8SAPS   H3X 1017   3.591   6.691  10.353  1.1778  2.8632  0.7433
    8SAPS   H3Y 1018   3.465   6.814  10.405 -1.7324 -0.8757 -2.8828
    8SAPS   C34 1019   3.397   6.609  10.396  0.2908 -0.2675 -0.7528
    8SAPS   H4X 1020   3.297   6.642  10.431  0.1766 -0.0685 -1.2593
    8SAPS   H4Y 1021   3.420   6.514  10.449 -0.7598 -0.1158  0.0060
    8SAPS   C35 1022   3.384   6.592  10.238 -0.2332  0.2231  0.4252
    8SAPS   H5X 1023   3.470   6.524  10.222 -0.2340 -0.1914  1.9801
    8SAPS   H5Y 1024   3.394   6.690  10.187 -0.8529  0.0707 -0.0011
    8SAPS   C36 1025   3.247   6.520  10.206  0.2864  0.3118  0.1083
    8SAPS   H6X 1026   3.167   6.593  10.231  1.5303  1.8627 -0.3119
    8SAPS   H6Y 1027   3.241   6.426  10.265 -0.8153  0.0126 -0.4386
    8SAPS   C37 1028   3.246   6.484  10.059 -0.4585  0.7808  0.3459
    8SAPS   H7X 1029   3.188   6.394  10.030  0.2034  0.4490  0.0250
    8SAPS   H7Y 1030   3.347   6.447  10.030 -1.2972 -1.1467 -0.2846
    8SAPS   C38 1031   3.192   6.595   9.975 -0.0666  0.5168 -0.5797
    8SAPS   H8X 1032   3.257   6.684   9.984  0.4924  0.0906 -0.3378
    8SAPS   H8Y 1033   3.102   6.630  10.029  0.4621 -0.2102  0.8267
    8SAPS   C39 1034   3.159   6.556   9.830 -0.2214  0.7420  0.3152
    8SAPS   H9X 1035   3.095   6.637   9.789  0.1708  0.2530 -1.3441
    8SAPS   H9Y 1036   3.103   6.460   9.840 -1.0909  1.4131  2.3151
    8SAPS  C310 1037   3.285   6.564   9.732  0.0187  0.0646 -0.7181
    8SAPS  H10X 1038   3.267   6.494   9.648  1.7803 -1.1084 -0.1717
    8SAPS  H10Y 1039   3.368   6.519   9.792 -1.2494 -0.1359  0.9662
    8SAPS  C311 1040   3.326   6.702   9.682  0.4090 -0.4636 -0.7925
    8SAPS  H11X 1041   3.372   6.763   9.763  3.8962 -1.4746 -1.8364
    8SAPS  H11Y 1042   3.240   6.762   9.647  0.4561  0.2813  0.3095
    8SAPS  C312 1043   3.416   6.697   9.555 -0.3500  0.8031 -0.0834
    8SAPS  H12X 1044   3.506   6.632   9.564  0.7000  1.7934 -2.7565
    8SAPS  H12Y 1045   3.445   6.802   9.536 -0.3770  0.8630  0.1899
    8SAPS  C313 1046   3.332   6.640   9.428 -0.4440 -0.1063 -1.0801
    8SAPS  H13X 1047   3.250   6.713   9.410 -0.3588  1.3847  3.3397
    8SAPS  H13Y 1048   3.293   6.536   9.433 -0.7227  0.0286 -0.0567
    8SAPS  C314 1049   3.430   6.637   9.309  0.1480  0.5829 -0.0221
    8SAPS  H14X 1050   3.515   6.572   9.337 -0.0997 -0.9558 -2.5250
    8SAPS  H14Y 1051   3.477   6.736   9.288  0.0430  0.6218 -0.0746
    8SAPS  C315 1052   3.376   6.567   9.185 -0.5355 -0.0345 -1.1864
    8SAPS  H15X 1053   3.310   6.478   9.200 -0.5499 -0.0849 -1.5223
    8SAPS  H15Y 1054   3.463   6.523   9.131 -0.1397 -3.8995  2.0828
    8SAPS  C316 1055   3.304   6.666   9.093 -0.4027 -0.6179  0.4381
    8SAPS  H16X 1056   3.369   6.756   9.081 -1.8396  0.1865 -2.4203
    8SAPS  H16Y 1057   3.219   6.709   9.150  1.0459  0.1114  2.1335
    8SAPS  C317 1058   3.251   6.617   8.954  0.6260 -0.6053 -0.7339
    8SAPS  H17X 1059   3.177   6.534   8.962  1.2522 -0.9996  1.6393
    8SAPS  H17Y 1060   3.336   6.575   8.896  1.1559  2.1297 -2.0795
    8SAPS  C318 1061   3.185   6.729   8.870  0.2724 -0.1241 -0.3749
    8SAPS  H18X 1062   3.102   6.772   8.930  1.1318 -0.7850  1.3958
    8SAPS  H18Y 1063   3.151   6.699   8.769  0.1238 -2.2655  0.2511
    8SAPS  H18Z 1064   3.254   6.814   8.851  1.4065 -0.5882  1.3597
    9SAPS     N 1065   0.619   0.609   6.417 -0.3667  0.7183 -0.3172
    9SAPS   HN1 1066   0.623   0.705   6.377  3.1609  0.5311 -0.7603
    9SAPS   HN2 1067   0.523   0.583   6.446 -0.2009 -0.0860 -0.4577
    9SAPS   HN3 1068   0.680   0.597   6.501 -1.2146 -1.1425  0.0751
    9SAPS   C12 1069   0.668   0.507   6.314  0.0534  0.0571 -0.3535
    9SAPS  H12A 1070   0.696   0.420   6.373  0.0184  1.1900  1.4019
    9SAPS   C13 1071   0.570   0.449   6.213  0.2680 -0.1078 -0.5159
    9SAPS  O13A 1072   0.455   0.501   6.192 -0.0705 -0.1209 -0.2162
    9SAPS  O13B 1073   0.620   0.363   6.135  0.7890 -0.6697  0.1243
    9SAPS   C11 1074   0.791   0.571   6.240  0.9694 -0.0975  0.1778
    9SAPS  H11A 1075   0.752   0.658   6.184 -0.6979 -0.3361  0.9016
    9SAPS  H11B 1076   0.846   0.515   6.161  0.9760 -0.0266  0.1326
    9SAPS     P 1077   1.020   0.552   6.381 -0.5852 -0.0526  0.0863
    9SAPS   O13 1078   1.087   0.512   6.255 -0.2804 -0.3502 -0.0568
    9SAPS   O14 1079   1.097   0.650   6.456 -0.2138 -0.6219 -0.2746
    9SAPS   O12 1080   0.885   0.622   6.343  0.5515  0.6526  0.3663
    9SAPS   O11 1081   0.979   0.441   6.476 -0.3423  0.4105 -0.7524
    9SAPS    C1 1082   1.042   0.306   6.473  0.7398  0.0534 -0.2595
    9SAPS    HA 1083   0.964   0.228   6.459  0.0801  0.8449 -1.1109
    9SAPS    HB 1084   1.125   0.289   6.401  1.4212 -3.4483  1.1595
    9SAPS    C2 1085   1.119   0.283   6.612  0.1093 -0.1316  0.6199
    9SAPS    HS 1086   1.150   0.176   6.614 -1.9217 -0.7574  0.5061
    9SAPS   O21 1087   1.030   0.322   6.718 -0.9415  0.5178  0.0300
    9SAPS   C21 1088   0.949   0.234   6.758  0.0036  0.4017 -0.1065
    9SAPS   O22 1089   0.932   0.123   6.713 -0.2977  0.1124  1.2353
    9SAPS   C22 1090   0.866   0.294   6.872 -0.5237 -0.4258  0.3148
    9SAPS   H2R 1091   0.917   0.385   6.908 -0.3053 -0.2136 -0.5031
    9SAPS   H2S 1092   0.768   0.314   6.823  0.0450 -0.3479 -0.8179
    9SAPS    C3 1093   1.238   0.374   6.626  0.5820 -0.3801  0.4618
    9SAPS    HX 1094   1.185   0.472   6.627 -4.9242 -2.9698 -0.0572
    9SAPS    HY 1095   1.295   0.362   6.531  0.8306  0.7501  0.4527
    9SAPS   O31 1096   1.320   0.351   6.742  0.7305 -0.0021  0.4460
    9SAPS   C31 1097   1.383   0.235   6.740  0.1284  0.6114  0.0991
    9SAPS   O32 1098   1.397   0.165   6.641 -0.7868 -0.1334  0.4472
    9SAPS   C32 1099   1.423   0.209   6.878  0.3220 -0.1036  0.6145
    9SAPS   H2X 1100   1.337   0.183   6.944 -0.1617 -0.6359 -0.2009
    9SAPS   H2Y 1101   1.472   0.300   6.918 -1.4872  2.0287 -1.6378
    9SAPS   C23 1102   0.831   0.201   6.988  0.2424 -0.4278  0.2199
    9SAPS   H3R 1103   0.776   0.113   6.949  1.9855 -1.6438  0.4064
    9SAPS   H3S 1104   0.756   0.259   7.047  1.2885  1.2288  0.0069
    9SAPS   C24 1105   0.946   0.160   7.082 -0.2544  0.2274  0.7995
    9SAPS   H4R 1106   1.005   0.100   7.008  0.5625  0.1804  1.4709
    9SAPS   H4S 1107   0.890   0.090   7.148  0.8031 -3.1490 -1.5613
    9SAPS   C25 1108   1.019   0.272   7.147  0.1886  0.0339  0.0732
    9SAPS   H5R 1109   1.094   0.328   7.089  1.0755  2.0170  2.9084
    9SAPS   C26 1110   1.002   0.317   7.276  0.4058 -0.4923  0.7560
    9SAPS   H6R 1111   1.073   0.392   7.312 -0.3917 -0.2410  1.8471
    9SAPS   C27 1112   0.910   0.260   7.381 -0.6646  0.1328 -0.8503
    9SAPS   H7R 1113   0.841   0.183   7.341 -1.1331 -1.8406  3.2007
    9SAPS   H7S 1114   0.852   0.346   7.422 -0.3643  0.1432 -0.4450
    9SAPS   C28 1115   1.009   0.190   7.485 -0.7715 -0.0787  0.8969
    9SAPS   H8R 1116   1.010   0.081   7.467  0.9599 -0.2026  1.5999
    9SAPS   C29 1117   1.095   0.252   7.573  0.1772  0.0634 -0.1583
    9SAPS   H9R 1118   1.166   0.189   7.629  0.9169 -1.7904 -2.9756
    9SAPS  C210 1119   1.090   0.399   7.602  0.5571 -0.8312  0.5493
    9SAPS  H10R 1120   0.985   0.418   7.635 -0.3510 -0.4077 -2.3643
    9SAPS  H10S 1121   1.119   0.447   7.507  2.7364 -2.8650  0.0843
    9SAPS  C211 1122   1.200   0.444   7.691  0.0046  0.4832 -0.4119
    9SAPS  H11R 1123   1.303   0.424   7.657 -0.0674 -0.6047 -0.0218
    9SAPS  C212 1124   1.185   0.487   7.819  0.0692 -0.5565 -0.4688
    9SAPS  H12R 1125   1.278   0.501   7.875 -0.1743 -1.0957  0.0752
    9SAPS  C213 1126   1.065   0.509   7.906  0.3521 -0.4239 -0.0001
    9SAPS  H13R 1127   0.985   0.432   7.891 -0.7457  0.2441  2.0810
    9SAPS  H13S 1128   1.022   0.604   7.867  1.1704  0.3612  0.9696
    9SAPS  C214 1129   1.098   0.502   8.053 -0.0800 -0.0687 -0.6468
    9SAPS  H14R 1130   1.140   0.596   8.094 -2.3298  1.3370 -1.3941
    9SAPS  C215 1131   1.072   0.404   8.142  0.0354  0.2604  0.8302
    9SAPS  H15R 1132   1.116   0.413   8.242  1.3469 -0.6206  0.3593
    9SAPS  C216 1133   1.011   0.268   8.104  0.2979 -0.2557 -0.2432
    9SAPS  H16R 1134   1.057   0.243   8.006 -1.3704 -1.7087 -0.7014
    9SAPS  H16S 1135   0.900   0.266   8.094  0.1169  0.9955  1.1928
    9SAPS  C217 1136   1.067   0.152   8.191  0.0325  0.0525  0.3713
    9SAPS  H17R 1137   1.176   0.168   8.206 -0.2887  4.0852 -0.4276
    9SAPS  H17S 1138   1.045   0.057   8.137  1.2559  0.7657 -1.4838
    9SAPS  C218 1139   0.991   0.140   8.323 -0.1351  0.3365  0.5694
    9SAPS  H18R 1140   0.992   0.237   8.377  1.5128 -1.3062  3.7474
    9SAPS  H18S 1141   1.023   0.060   8.394 -1.3537 -1.4535 -0.7923
    9SAPS  C219 1142   0.841   0.106   8.313  0.2893  0.4179  0.3822
    9SAPS  H19R 1143   0.829   0.012   8.256 -1.2036  1.6818 -1.4943
    9SAPS  H19S 1144   0.792   0.190   8.259  1.4103  0.0642 -1.2358
    9SAPS  C220 1145   0.775   0.079   8.443  0.5549 -0.4290 -0.1411
    9SAPS  H20R 1146   0.787   0.176   8.495 -1.4584 -0.0286 -0.3370
    9SAPS  H20S 1147   0.812  -0.003   8.509  0.9796  1.3729  2.0023
    9SAPS  H20T 1148   0.671   0.048   8.418  1.3804 -0.7496 -3.7155
    9SAPS   C33 1149   1.521   0.091   6.893 -0.0314  0.3937 -0.0088
    9SAPS   H3X 1150   1.594   0.115   6.813  0.1311 -0.5393 -0.1531
    9SAPS   H3Y 1151   1.468  -0.004   6.869 -1.1565  0.7134  1.1140
    9SAPS   C34 1152   1.588   0.092   7.034 -0.5460  0.5276 -0.2735
    9SAPS   H4X 1153   1.663   0.171   7.051 -0.2010  0.7520 -2.4803
    9SAPS   H4Y 1154   1.644  -0.005   7.033 -2.0884 -0.4015 -0.8150
    9SAPS   C35 1155   1.490   0.067   7.142 -0.3644  0.3862 -1.3116
    9SAPS   H5X 1156   1.448  -0.035   7.137  0.0268  0.0839  0.7664
    9SAPS   H5Y 1157   1.423   0.155   7.152 -2.1999 -1.1014  0.3299
    9SAPS   C36 1158   1.560   0.075   7.278 -0.6302  0.1880  0.2681
    9SAPS   H6X 1159   1.621   0.167   7.289 -1.6161  0.7063  1.5022
    9SAPS   H6Y 1160   1.627  -0.012   7.297  1.0328  1.3750  0.1206
    9SAPS   C37 1161   1.462   0.079   7.385  0.1119 -0.4400 -0.3632
    9SAPS   H7X 1162   1.398  -0.011   7.374 -0.6434  0.0044  0.3014
    9SAPS   H7Y 1163   1.392   0.165   7.377 -1.4707 -1.7737 -1.4343
    9SAPS   C38 1164   1.539   0.063   7.519 -0.0623 -0.4917 -0.7073
    9SAPS   H8X 1165   1.602  -0.028   7.509  2.3326  1.1999 -2.1379
    9SAPS   H8Y 1166   1.462   0.050   7.598 -0.1203  2.1864 -0.2054
    9SAPS   C39 1167   1.633   0.177   7.561 -0.4268 -0.2765 -0.2121
    9SAPS   H9X 1168   1.598   0.273   7.517 -1.1838 -0.5853 -0.2955
    9SAPS   H9Y 1169   1.732   0.150   7.518  0.8504  0.0505  2.3112
    9SAPS  C310 1170   1.631   0.205   7.711 -1.1781  0.3510 -0.6164
    9SAPS  H10X 1171   1.663   0.108   7.756 -0.8207 -0.1215 -1.8593
    9SAPS  H10Y 1172   1.526   0.220   7.745 -1.2553  0.3508 -0.8570
    9SAPS  C311 1173   1.728   0.310   7.767 -0.3906  0.6866  0.0511
    9SAPS  H11X 1174   1.694   0.412   7.739 -0.5738  0.1665 -1.7319
    9SAPS  H11Y 1175   1.822   0.289   7.711  0.1922  0.6571  1.0224
    9SAPS  C312 1176   1.771   0.286   7.912 -0.2145 -0.5000 -0.5330
    9SAPS  H12X 1177   1.849   0.355   7.952  0.2646 -1.3753  0.0898
    9SAPS  H12Y 1178   1.798   0.179   7.924 -1.4525 -0.9309 -1.4215
    9SAPS  C313 1179   1.648   0.314   7.999 -0.3676  0.3212 -0.2790
    9SAPS  H13X 1180   1.563   0.246   7.983  1.4520 -1.9104 -0.9805
    9SAPS  H13Y 1181   1.626   0.417   7.964 -2.3627  0.4203  1.1128
    9SAPS  C314 1182   1.678   0.312   8.154 -0.5765  0.1888  0.3745
    9SAPS  H14X 1183   1.752   0.392   8.177 -0.3252 -0.1370  0.7070
    9SAPS  H14Y 1184   1.713   0.209   8.176 -0.6572 -0.0602 -0.6478
    9SAPS  C315 1185   1.548   0.337   8.229  0.1807  0.5827 -0.5888
    9SAPS  H15X 1186   1.582   0.324   8.334 -0.8170 -0.8276 -0.4106
    9SAPS  H15Y 1187   1.468   0.263   8.211  0.6140 -0.2649  0.8497
    9SAPS  C316 1188   1.487   0.480   8.221 -0.1184  0.5957  0.2423
    9SAPS  H16X 1189   1.442   0.507   8.123  0.6025 -0.0057 -0.2592
    9SAPS  H16Y 1190   1.582   0.538   8.224 -0.0203  0.4227  0.5234
    9SAPS  C317 1191   1.397   0.530   8.338 -0.6780  0.8477  0.3393
    9SAPS  H17X 1192   1.435   0.485   8.433  2.1676 -0.1872 -1.1755
    9SAPS  H17Y 1193   1.291   0.502   8.319  0.2387 -3.1341  0.0743
    9SAPS  C318 1194   1.409   0.682   8.343 -0.0314 -0.4317 -0.1195
    9SAPS  H18X 1195   1.511   0.719   8.367  0.2426 -2.2210  1.7960
    9SAPS  H18Y 1196   1.338   0.719   8.420  0.0147 -0.3773 -0.1029
    9SAPS  H18Z 1197   1.377   0.728   8.247  1.3756 -1.0430 -0.9132
   10SAPS     N 1198   6.592   0.012   6.194 -0.3375  0.0919 -0.5854
   10SAPS   HN1 1199   6.662  -0.064   6.198 -1.6427 -1.0909  0.8037
   10SAPS   HN2 1200   6.554   0.027   6.098 -1.2122 -0.0090 -0.2606
   10SAPS   HN3 1201   6.632   0.106   6.215 -0.0684 -0.0310 -0.5414
   10SAPS   C12 1202   6.468  -0.027   6.271  1.0334  0.3201  0.8095
   10SAPS  H12A 1203   6.471  -0.003   6.376  3.0031 -0.2035  0.9034
   10SAPS   C13 1204   6.351   0.043   6.206  0.3414  0.1347  0.2323
   10SAPS  O13A 1205   6.363   0.100   6.094 -0.6841  0.3375  0.3856
   10SAPS  O13B 1206   6.242   0.050   6.265 -0.0931  0.1455 -0.4467
   10SAPS   C11 1207   6.460  -0.190   6.266  0.2919  0.8675  0.0329
   10SAPS  H11A 1208   6.468  -0.221   6.160  0.1907 -1.5231  0.6513
   10SAPS  H11B 1209   6.361  -0.225   6.305  0.5315 -0.2395 -0.3144
   10SAPS     P 1210   6.584  -0.400   6.343  0.0902 -0.1475 -0.3557
   10SAPS   O13 1211   6.641  -0.439   6.214  0.5494  0.5103 -0.0820
   10SAPS   O14 1212   6.666  -0.440   6.456 -0.4672  0.3176  0.0606
   10SAPS   O12 1213   6.566  -0.241   6.349 -0.3089  0.1133 -0.3733
   10SAPS   O11 1214   6.447  -0.457   6.368  0.0601  0.1199 -0.5873
   10SAPS    C1 1215   6.403  -0.571   6.443 -0.9112 -0.5383 -0.4143
   10SAPS    HA 1216   6.357  -0.643   6.373 -0.1194 -0.9029 -0.5671
   10SAPS    HB 1217   6.490  -0.625   6.486 -0.1559 -1.6021 -3.1108
   10SAPS    C2 1218   6.315  -0.538   6.561  0.5580  0.4003  0.1709
   10SAPS    HS 1219   6.230  -0.475   6.527  0.9367  1.1594  0.5853
   10SAPS   O21 1220   6.403  -0.466   6.647 -0.0001 -0.2941 -1.2308
   10SAPS   C21 1221   6.359  -0.363   6.708  0.2460 -0.5450  0.4677
   10SAPS   O22 1222   6.242  -0.321   6.720 -0.2053  0.8016  0.5630
   10SAPS   C22 1223   6.486  -0.289   6.756  0.0120  0.2707  0.3619
   10SAPS   H2R 1224   6.512  -0.345   6.848 -2.0717 -1.3490  0.0486
   10SAPS   H2S 1225   6.557  -0.301   6.672  0.0387 -1.8369  0.6434
   10SAPS    C3 1226   6.257  -0.660   6.631 -0.4417  0.3263  0.3391
   10SAPS    HX 1227   6.342  -0.732   6.632  0.1506  0.8879 -2.0432
   10SAPS    HY 1228   6.181  -0.707   6.566 -2.1032  1.2408  1.5279
   10SAPS   O31 1229   6.196  -0.629   6.756  0.1795  0.5557 -0.2372
   10SAPS   C31 1230   6.139  -0.739   6.824 -0.2783  0.0381 -0.6996
   10SAPS   O32 1231   6.132  -0.851   6.781 -0.0081 -0.3381  0.0656
   10SAPS   C32 1232   6.088  -0.699   6.958 -0.6125 -0.1115 -0.0208
   10SAPS   H2X 1233   6.022  -0.612   6.939  0.4573  0.8203  0.4025
   10SAPS   H2Y 1234   6.168  -0.650   7.018 -0.2663  2.8385 -2.6168
   10SAPS   C23 1235   6.452  -0.144   6.790  0.1235 -0.4036  0.5169
   10SAPS   H3R 1236   6.384  -0.105   6.711  0.9890 -0.0284 -0.0454
   10SAPS   H3S 1237   6.545  -0.086   6.804 -0.0339 -0.5504  2.5942
   10SAPS   C24 1238   6.382  -0.127   6.924 -0.6022 -0.2008 -0.2361
   10SAPS   H4R 1239   6.437  -0.183   7.003  1.9248  1.7409 -0.4572
   10SAPS   H4S 1240   6.286  -0.182   6.919 -1.2209  0.8715 -0.4115
   10SAPS   C25 1241   6.351   0.018   6.953  0.4234  0.1376 -0.7314
   10SAPS   H5R 1242   6.349   0.081   6.862 -3.0530  2.0676  0.4695
   10SAPS   C26 1243   6.336   0.074   7.074 -0.0553  0.2078 -0.5702
   10SAPS   H6R 1244   6.318   0.182   7.088  1.3601  0.3154  0.7723
   10SAPS   C27 1245   6.351  -0.004   7.197  0.2917 -0.0327 -0.3492
   10SAPS   H7R 1246   6.415   0.047   7.273 -1.6873 -2.5125  3.3036
   10SAPS   H7S 1247   6.408  -0.097   7.178  1.1825  0.6030 -0.8583
   10SAPS   C28 1248   6.217  -0.036   7.262 -0.3454  0.3550  0.5774
   10SAPS   H8R 1249   6.142  -0.075   7.190  0.7334  2.3657 -1.7824
   10SAPS   C29 1250   6.187  -0.036   7.397 -0.1990 -0.7390  0.3508
   10SAPS   H9R 1251   6.095  -0.087   7.429 -0.6378 -0.6253 -0.7072
   10SAPS  C210 1252   6.288   0.007   7.492  0.7851  0.4277 -1.1724
   10SAPS  H10R 1253   6.359   0.086   7.458 -0.6325  1.5973 -1.5476
   10SAPS  H10S 1254   6.350  -0.082   7.513 -1.0212 -0.8056 -0.8651
   10SAPS  C211 1255   6.238   0.068   7.626  0.3988  0.9084  0.1150
   10SAPS  H11R 1256   6.128   0.064   7.638  0.3116 -1.3435 -1.0473
   10SAPS  C212 1257   6.321   0.121   7.725  0.3130 -0.2923 -0.2651
   10SAPS  H12R 1258   6.275   0.169   7.813  1.6234 -0.9068  0.7872
   10SAPS  C213 1259   6.465   0.131   7.714 -0.7797  0.0112 -0.2077
   10SAPS  H13R 1260   6.476   0.219   7.647 -3.5042  1.0860  0.6163
   10SAPS  H13S 1261   6.502   0.048   7.650  0.6934  0.4997 -0.0282
   10SAPS  C214 1262   6.546   0.149   7.837  0.2420  0.1630  0.0782
   10SAPS  H14R 1263   6.576   0.061   7.895  0.2155 -0.5325 -0.9289
   10SAPS  C215 1264   6.581   0.264   7.881 -0.4547 -0.0935 -0.9920
   10SAPS  H15R 1265   6.627   0.268   7.981 -1.9933  2.1730 -0.2883
   10SAPS  C216 1266   6.545   0.402   7.828  0.2286 -0.1295 -0.2480
   10SAPS  H16R 1267   6.444   0.407   7.783  0.2212 -0.8745 -0.3190
   10SAPS  H16S 1268   6.621   0.437   7.755 -0.0968  0.6997 -0.2084
   10SAPS  C217 1269   6.551   0.512   7.944 -0.9057 -0.9427 -0.1208
   10SAPS  H17R 1270   6.523   0.611   7.902  0.0500 -0.5171  0.2311
   10SAPS  H17S 1271   6.653   0.514   7.987 -1.0653 -0.0788  0.2395
   10SAPS  C218 1272   6.449   0.495   8.059 -0.4643  0.1562 -0.4578
   10SAPS  H18R 1273   6.486   0.426   8.138  0.1055 -0.4260 -1.2236
   10SAPS  H18S 1274   6.355   0.455   8.016 -1.5061  1.3015  0.6489
   10SAPS  C219 1275   6.407   0.622   8.127  0.4365  0.3424  0.1473
   10SAPS  H19R 1276   6.302   0.635   8.092 -0.2396 -1.2529  1.4335
   10SAPS  H19S 1277   6.478   0.702   8.097  4.0412 -2.2571  1.0629
   10SAPS  C220 1278   6.411   0.615   8.282  0.4223  0.8211 -1.0077
   10SAPS  H20R 1279   6.407   0.712   8.335  1.5052 -0.7945  2.2702
   10SAPS  H20S 1280   6.503   0.565   8.320 -0.9331 -0.1467  1.2093
   10SAPS  H20T 1281   6.334   0.551   8.330 -0.5618  3.4007  1.0671
   10SAPS   C33 1282   6.016  -0.808   7.035 -0.4186 -1.0728  0.1884
   10SAPS   H3X 1283   6.085  -0.893   7.055 -0.0485 -0.5915  0.9817
   10SAPS   H3Y 1284   5.929  -0.845   6.977 -0.1205  2.6601 -3.0818
   10SAPS   C34 1285   5.966  -0.763   7.176  0.3364  0.0079  0.4239
   10SAPS   H4X 1286   5.909  -0.668   7.177  1.0296  0.4468  2.8902
   10SAPS   H4Y 1287   6.051  -0.761   7.248 -0.3135 -1.5991  1.2801
   10SAPS   C35 1288   5.861  -0.858   7.226 -0.6463  0.0657  0.1134
   10SAPS   H5X 1289   5.900  -0.962   7.230  2.3795  1.1582  1.8174
   10SAPS   H5Y 1290   5.775  -0.853   7.155 -0.4075 -0.4597 -0.2201
   10SAPS   C36 1291   5.812  -0.828   7.375  0.3659 -0.0474  0.7090
   10SAPS   H6X 1292   5.753  -0.734   7.371  1.8815  0.9230  0.2159
   10SAPS   H6Y 1293   5.900  -0.814   7.441  1.4412 -0.6987 -0.5224
   10SAPS   C37 1294   5.732  -0.941   7.438 -0.9865 -0.3482  0.6178
   10SAPS   H7X 1295   5.786  -1.038   7.449 -1.3303 -0.4390  1.5148
   10SAPS   H7Y 1296   5.647  -0.976   7.375 -0.0509  0.7486 -1.3308
   10SAPS   C38 1297   5.678  -0.901   7.576 -0.9361 -0.0478  0.0036
   10SAPS   H8X 1298   5.750  -0.834   7.627 -0.9517 -0.2459  0.2868
   10SAPS   H8Y 1299   5.676  -0.990   7.643 -1.1723 -0.4352 -0.5105
   10SAPS   C39 1300   5.538  -0.836   7.577 -0.5223  0.2847  0.4425
   10SAPS   H9X 1301   5.543  -0.748   7.509  0.4844 -0.3518 -0.3529
   10SAPS   H9Y 1302   5.518  -0.808   7.683  0.6307  0.3633  0.6533
   10SAPS  C310 1303   5.425  -0.931   7.539 -0.0743 -0.4202 -0.1740
   10SAPS  H10X 1304   5.441  -1.030   7.587 -1.8382 -0.1243  1.1555
   10SAPS  H10Y 1305   5.435  -0.938   7.429  3.5251  0.6562 -0.0366
   10SAPS  C311 1306   5.288  -0.897   7.581  0.0834 -0.5656 -0.3649
   10SAPS  H11X 1307   5.226  -0.978   7.538 -0.0008  1.5939 -4.9386
   10SAPS  H11Y 1308   5.248  -0.809   7.526 -1.6638  1.5108  3.7534
   10SAPS  C312 1309   5.244  -0.871   7.727  0.0120 -0.2454  0.0345
   10SAPS  H12X 1310   5.134  -0.860   7.740  0.0621 -0.7748  0.9569
   10SAPS  H12Y 1311   5.289  -0.781   7.772  1.1737  0.4446 -2.3474
   10SAPS  C313 1312   5.280  -0.977   7.838 -0.6573 -1.0309 -0.2502
   10SAPS  H13X 1313   5.389  -0.972   7.860 -0.3437  0.0298 -1.8987
   10SAPS  H13Y 1314   5.258  -1.070   7.780  0.0819 -1.1870 -0.2866
   10SAPS  C314 1315   5.193  -0.964   7.966 -0.0480 -0.6031 -0.1588
   10SAPS  H14X 1316   5.085  -0.944   7.945 -0.0016  2.4893  1.8823
   10SAPS  H14Y 1317   5.234  -0.879   8.024 -1.5364  0.5326 -0.6889
   10SAPS  C315 1318   5.200  -1.096   8.039 -0.3750 -0.5053  0.2976
   10SAPS  H15X 1319   5.304  -1.134   8.047 -0.6456 -1.1875  0.5950
   10SAPS  H15Y 1320   5.146  -1.182   7.994  1.6243 -1.9115  0.4342
   10SAPS  C316 1321   5.162  -1.074   8.183  0.0525 -0.1983 -0.1976
   10SAPS  H16X 1322   5.215  -0.985   8.223  0.4242 -1.0565  1.2878
   10SAPS  H16Y 1323   5.184  -1.156   8.255 -1.8124 -0.9461 -0.4315
   10SAPS  C317 1324   5.014  -1.046   8.221  0.6753 -0.3994 -0.2438
   10SAPS  H17X 1325   4.953  -1.131   8.184 -2.8747  1.6092  0.5781
   10SAPS  H17Y 1326   4.982  -0.951   8.174 -1.3185 -1.0680 -0.2986
   10SAPS  C318 1327   5.000  -1.053   8.380  0.3407  0.4020  0.4741
   10SAPS  H18X 1328   5.061  -0.970   8.422  1.0442  0.3477 -0.4072
   10SAPS  H18Y 1329   5.030  -1.155   8.411 -1.9573  0.2862  2.6393
   10SAPS  H18Z 1330   4.894  -1.030   8.404  0.9691  2.2064  1.8026
   11SAPS     N 1331   0.051   1.991   6.163 -0.5390 -0.1374 -0.3288
   11SAPS   HN1 1332  -0.013   2.067   6.129  0.5937  0.2163 -1.7829
   11SAPS   HN2 1333   0.023   1.935   6.246  1.8418 -2.3586 -0.9039
   11SAPS   HN3 1334   0.139   2.037   6.194 -1.5033  1.1924  0.5669
   11SAPS   C12 1335   0.090   1.902   6.053  0.8264  0.1578  0.1585
   11SAPS  H12A 1336   0.120   1.966   5.972  1.1652  1.2411  1.1291
   11SAPS   C13 1337   0.214   1.807   6.076 -1.0476  0.4430 -0.9778
   11SAPS  O13A 1338   0.262   1.797   6.194  0.0741 -0.1404 -0.4436
   11SAPS  O13B 1339   0.260   1.741   5.979 -0.5272  0.1926  0.1568
   11SAPS   C11 1340  -0.034   1.811   6.013 -0.6621 -0.2131  0.2564
   11SAPS  H11A 1341  -0.082   1.767   6.103 -3.2195  1.1275 -0.3608
   11SAPS  H11B 1342  -0.013   1.725   5.945  0.0598  0.4528 -0.3817
   11SAPS     P 1343  -0.262   1.966   5.983 -0.4316 -0.2273  0.0660
   11SAPS   O13 1344  -0.291   2.076   5.880  0.0652  0.5486  0.2049
   11SAPS   O14 1345  -0.372   1.872   6.001 -0.4533  0.5877 -0.1931
   11SAPS   O12 1346  -0.127   1.889   5.939  1.0158  0.2842 -0.3128
   11SAPS   O11 1347  -0.220   2.033   6.122  0.2014  0.1452  0.1397
   11SAPS    C1 1348  -0.306   2.148   6.170  0.4519 -0.0532 -0.2234
   11SAPS    HA 1349  -0.273   2.252   6.152  0.8031 -0.1470 -0.1158
   11SAPS    HB 1350  -0.413   2.139   6.141  0.8168  1.1122 -2.0832
   11SAPS    C2 1351  -0.321   2.149   6.324 -0.0617 -0.0585  0.1558
   11SAPS    HS 1352  -0.387   2.235   6.347  1.7142  1.7948 -1.2551
   11SAPS   O21 1353  -0.187   2.154   6.382 -0.0536 -0.0349 -0.7301
   11SAPS   C21 1354  -0.130   2.272   6.378 -0.2399 -0.2831  0.1967
   11SAPS   O22 1355  -0.188   2.371   6.343 -0.6906 -0.4098 -0.0151
   11SAPS   C22 1356   0.015   2.279   6.423 -0.9505 -0.3879 -0.4179
   11SAPS   H2R 1357   0.049   2.178   6.453 -2.6534 -0.5613  1.1427
   11SAPS   H2S 1358   0.067   2.313   6.331  1.0628 -0.7131  0.5579
   11SAPS    C3 1359  -0.396   2.023   6.377  0.2365 -0.1031 -0.4094
   11SAPS    HX 1360  -0.350   1.928   6.342 -0.1019 -0.0112 -1.1254
   11SAPS    HY 1361  -0.502   2.026   6.342 -0.8664 -0.3617  2.6432
   11SAPS   O31 1362  -0.407   2.010   6.519 -0.3853  0.2573  0.0980
   11SAPS   C31 1363  -0.510   1.959   6.583 -0.6682 -0.1223  1.1896
   11SAPS   O32 1364  -0.608   1.909   6.528  0.2358  0.4222 -0.0259
   11SAPS   C32 1365  -0.493   1.982   6.735  0.9626 -0.3855  0.1022
   11SAPS   H2X 1366  -0.579   1.937   6.788  0.2156  0.7998 -0.0727
   11SAPS   H2Y 1367  -0.494   2.092   6.747  1.5161 -0.2786 -0.7226
   11SAPS   C23 1368   0.034   2.366   6.552 -0.1439  0.3429  0.7735
   11SAPS   H3R 1369  -0.006   2.469   6.539 -3.5977 -1.0366 -0.8951
   11SAPS   H3S 1370   0.140   2.369   6.584  0.2281 -1.8283 -0.1032
   11SAPS   C24 1371  -0.048   2.330   6.677 -1.0064  0.4071  0.4902
   11SAPS   H4R 1372  -0.151   2.318   6.639 -0.2379 -0.3871 -1.5190
   11SAPS   H4S 1373  -0.036   2.415   6.747 -0.7273 -0.6365  1.7496
   11SAPS   C25 1374   0.010   2.206   6.742 -0.7850  0.6003  1.0592
   11SAPS   H5R 1375  -0.011   2.109   6.694 -0.2791  1.3351 -0.7188
   11SAPS   C26 1376   0.077   2.218   6.858  0.0636  0.2854 -0.2048
   11SAPS   H6R 1377   0.119   2.128   6.905  0.1453 -0.3234 -1.4152
   11SAPS   C27 1378   0.106   2.342   6.945 -0.0875  0.6205  0.4237
   11SAPS   H7R 1379   0.118   2.305   7.049 -0.5120 -0.9152 -0.0486
   11SAPS   H7S 1380   0.020   2.412   6.948 -0.1532  0.5285  0.7255
   11SAPS   C28 1381   0.228   2.412   6.898 -0.3909  0.1947 -0.3346
   11SAPS   H8R 1382   0.236   2.424   6.789 -0.2413  1.9606 -0.1591
   11SAPS   C29 1383   0.332   2.450   6.975  0.4343  0.0753  0.0944
   11SAPS   H9R 1384   0.414   2.509   6.932  0.2955 -0.8084 -1.4387
   11SAPS  C210 1385   0.342   2.420   7.124  0.2992  0.0989 -0.2875
   11SAPS  H10R 1386   0.450   2.401   7.141  0.4269 -0.0595 -1.2258
   11SAPS  H10S 1387   0.288   2.327   7.152  2.5623 -1.0764  0.4363
   11SAPS  C211 1388   0.295   2.543   7.204 -0.3658  0.0813  0.1812
   11SAPS  H11R 1389   0.257   2.631   7.149 -0.4075  0.1036  0.2458
   11SAPS  C212 1390   0.301   2.537   7.337  0.1175  0.3693 -0.4421
   11SAPS  H12R 1391   0.259   2.620   7.395  0.6580 -2.2676  4.2663
   11SAPS  C213 1392   0.346   2.427   7.425 -0.5413 -0.3790  0.1020
   11SAPS  H13R 1393   0.441   2.459   7.473 -0.6489  0.0881  0.0170
   11SAPS  H13S 1394   0.373   2.333   7.373  0.7677  0.6567 -1.1701
   11SAPS  C214 1395   0.232   2.404   7.522  0.5445  0.5022 -1.1849
   11SAPS  H14R 1396   0.134   2.430   7.480 -1.1369  1.0353  2.6581
   11SAPS  C215 1397   0.246   2.387   7.656 -0.8270  0.3568 -0.2695
   11SAPS  H15R 1398   0.155   2.398   7.718 -1.4600  1.2663 -1.3334
   11SAPS  C216 1399   0.378   2.387   7.737  0.2904 -0.0096 -0.6085
   11SAPS  H16R 1400   0.377   2.483   7.792 -0.1348  0.6927 -1.8156
   11SAPS  H16S 1401   0.470   2.384   7.676  0.1938  1.5332 -0.8743
   11SAPS  C217 1402   0.387   2.279   7.838  0.0643  0.1302  0.1861
   11SAPS  H17R 1403   0.384   2.180   7.788  4.0042 -0.2072  0.3141
   11SAPS  H17S 1404   0.312   2.279   7.919 -0.8961 -0.5356 -0.6696
   11SAPS  C218 1405   0.525   2.299   7.904 -0.0184 -0.1122 -0.7312
   11SAPS  H18R 1406   0.545   2.400   7.946 -2.6149  1.8778 -3.7832
   11SAPS  H18S 1407   0.598   2.298   7.820  0.6088  2.3874 -0.2901
   11SAPS  C219 1408   0.566   2.191   8.004 -0.3581  0.7172 -0.3094
   11SAPS  H19R 1409   0.656   2.237   8.051  1.2923 -0.7403 -1.9062
   11SAPS  H19S 1410   0.610   2.103   7.954 -0.4219  0.3255  0.3130
   11SAPS  C220 1411   0.466   2.164   8.110  0.5553 -0.1950 -0.4313
   11SAPS  H20R 1412   0.416   2.255   8.149  1.4688  0.0541  0.1912
   11SAPS  H20S 1413   0.522   2.104   8.185 -1.4800 -0.0478  1.2770
   11SAPS  H20T 1414   0.392   2.090   8.073  1.1441 -0.2184 -1.6486
   11SAPS   C33 1415  -0.364   1.921   6.787  0.3422  0.0134  0.0328
   11SAPS   H3X 1416  -0.280   1.977   6.740  1.5144 -1.3236  0.4537
   11SAPS   H3Y 1417  -0.362   1.811   6.773 -1.1067 -0.1697  1.0615
   11SAPS   C34 1418  -0.344   1.934   6.942  0.2731 -0.0753  0.0994
   11SAPS   H4X 1419  -0.242   1.902   6.975  0.9747  0.2195 -1.7057
   11SAPS   H4Y 1420  -0.416   1.865   6.991 -0.3147  0.4331 -0.0380
   11SAPS   C35 1421  -0.377   2.075   7.002  0.2146  0.7165 -0.0736
   11SAPS   H5X 1422  -0.486   2.097   7.002  0.4872  2.2026  0.5928
   11SAPS   H5Y 1423  -0.339   2.152   6.932  0.4654 -1.2880 -2.2349
   11SAPS   C36 1424  -0.321   2.100   7.137 -0.0736 -0.0511 -0.0240
   11SAPS   H6X 1425  -0.215   2.066   7.136 -0.2893 -0.8248 -2.2409
   11SAPS   H6Y 1426  -0.383   2.041   7.207 -0.0125 -0.1787 -0.0775
   11SAPS   C37 1427  -0.316   2.247   7.175 -0.7504 -0.0029 -0.8429
   11SAPS   H7X 1428  -0.418   2.282   7.146 -1.3489 -0.8750  0.1130
   11SAPS   H7Y 1429  -0.242   2.293   7.107 -0.4316 -0.5744 -0.8849
   11SAPS   C38 1430  -0.269   2.245   7.322  0.7210 -0.4921 -0.1396
   11SAPS   H8X 1431  -0.189   2.170   7.332 -0.9036 -2.2580  0.1653
   11SAPS   H8Y 1432  -0.349   2.199   7.384  2.9343 -1.4643  2.1440
   11SAPS   C39 1433  -0.227   2.379   7.369  0.2398 -0.2585 -0.0377
   11SAPS   H9X 1434  -0.319   2.439   7.387  0.3332  0.4865 -1.9168
   11SAPS   H9Y 1435  -0.164   2.429   7.293  0.9216  0.7960  1.1780
   11SAPS  C310 1436  -0.153   2.373   7.501 -0.5041 -0.0843 -0.2145
   11SAPS  H10X 1437  -0.109   2.472   7.523 -2.0816  1.1175 -2.1457
   11SAPS  H10Y 1438  -0.066   2.304   7.497  0.1217  0.6718  0.0529
   11SAPS  C311 1439  -0.235   2.307   7.615  0.0502 -0.2117 -0.1398
   11SAPS  H11X 1440  -0.310   2.232   7.581  0.2843 -0.6904  0.3725
   11SAPS  H11Y 1441  -0.294   2.393   7.652 -1.3564 -1.5652  0.8932
   11SAPS  C312 1442  -0.153   2.259   7.738  0.3686  0.2163  0.9904
   11SAPS  H12X 1443  -0.054   2.227   7.699 -0.2171 -1.7190  0.9808
   11SAPS  H12Y 1444  -0.203   2.171   7.783 -2.2734 -0.1634 -2.2458
   11SAPS  C313 1445  -0.131   2.378   7.839  0.1039 -0.2647 -0.4827
   11SAPS  H13X 1446  -0.090   2.461   7.778 -1.0033  0.4236 -0.3023
   11SAPS  H13Y 1447  -0.054   2.340   7.910  0.3187 -0.4631 -0.8161
   11SAPS  C314 1448  -0.257   2.434   7.917 -0.5130 -0.2205 -0.3032
   11SAPS  H14X 1449  -0.346   2.372   7.893 -1.3647  0.6778  0.4964
   11SAPS  H14Y 1450  -0.283   2.535   7.880  0.7166  1.6005  3.3421
   11SAPS  C315 1451  -0.236   2.415   8.066  0.3076  0.0911 -0.8687
   11SAPS  H15X 1452  -0.143   2.469   8.093 -0.3572 -0.1593  2.4377
   11SAPS  H15Y 1453  -0.219   2.307   8.084 -0.8084  0.1020  0.4467
   11SAPS  C316 1454  -0.358   2.455   8.158  0.3748  0.1656  0.1841
   11SAPS  H16X 1455  -0.360   2.395   8.251  0.1335 -1.5845 -0.8984
   11SAPS  H16Y 1456  -0.456   2.435   8.109  0.0540  0.9154  0.5127
   11SAPS  C317 1457  -0.346   2.602   8.179  0.3222 -0.1737 -0.3729
   11SAPS  H17X 1458  -0.338   2.661   8.086  0.5518  0.4379  0.0356
   11SAPS  H17Y 1459  -0.262   2.621   8.249  0.9307  2.8167 -1.7908
   11SAPS  C318 1460  -0.473   2.669   8.239  0.0753 -0.5600  0.0723
   11SAPS  H18X 1461  -0.497   2.651   8.346  0.3743  0.3473  0.2988
   11SAPS  H18Y 1462  -0.564   2.645   8.180 -1.2450  0.5041  1.5846
   11SAPS  H18Z 1463  -0.456   2.779   8.236 -3.7299  0.1551  0.0386
   12SAPS     N 1464   6.226   0.293   6.001  0.1864 -0.4368 -0.0157
   12SAPS   HN1 1465   6.296   0.217   6.000 -0.4912 -1.1198  1.6773
   12SAPS   HN2 1466   6.280   0.378   6.025  0.2793 -0.0716 -1.4073
   12SAPS   HN3 1467   6.153   0.271   6.071 -0.6061  4.6202  1.1314
   12SAPS   C12 1468   6.177   0.320   5.860 -0.3793 -0.4071  0.0156
   12SAPS  H12A 1469   6.267   0.353   5.809 -1.4687  1.3733 -0.9019
   12SAPS   C13 1470   6.117   0.199   5.789  1.4489  0.4705  0.2803
   12SAPS  O13A 1471   6.099   0.094   5.853 -0.5193 -0.4504 -0.8617
   12SAPS  O13B 1472   6.047   0.213   5.680  0.1315 -0.2993 -0.2113
   12SAPS   C11 1473   6.076   0.436   5.858 -0.3846  0.2009  0.3020
   12SAPS  H11A 1474   5.977   0.397   5.890 -0.6540 -1.1951 -2.0039
   12SAPS  H11B 1475   6.046   0.463   5.754 -0.7858 -1.4975 -0.0579
   12SAPS     P 1476   6.075   0.690   5.945 -0.0126  0.5904  0.2946
   12SAPS   O13 1477   6.190   0.773   5.969 -0.5547 -0.1599 -0.1847
   12SAPS   O14 1478   5.998   0.718   5.823 -0.1114 -0.7212  0.3075
   12SAPS   O12 1479   6.124   0.538   5.947 -0.0745  0.1240  0.1738
   12SAPS   O11 1480   5.985   0.697   6.066 -0.5013  0.2318  0.2750
   12SAPS    C1 1481   5.982   0.593   6.171  0.3079 -0.4824  0.8791
   12SAPS    HA 1482   5.926   0.505   6.135  0.0399  0.5772 -1.5160
   12SAPS    HB 1483   6.082   0.555   6.202 -0.2420 -1.8315  1.0695
   12SAPS    C2 1484   5.921   0.639   6.303 -0.0200  0.1400 -0.0048
   12SAPS    HS 1485   5.821   0.679   6.276  0.2646  0.9650  0.1227
   12SAPS   O21 1486   6.003   0.743   6.360 -0.5786  0.2408 -0.3431
   12SAPS   C21 1487   5.953   0.834   6.441 -0.3978  0.2745  0.9932
   12SAPS   O22 1488   5.834   0.845   6.461  0.5124 -0.4339 -0.0284
   12SAPS   C22 1489   6.066   0.912   6.503  0.7486 -0.1807  0.2476
   12SAPS   H2R 1490   6.141   0.835   6.530  0.4648 -0.6114 -0.1783
   12SAPS   H2S 1491   6.101   0.989   6.430  1.0715 -0.7721 -0.2242
   12SAPS    C3 1492   5.901   0.513   6.393  0.0560 -0.1971 -0.1559
   12SAPS    HX 1493   6.002   0.466   6.398 -0.7202 -2.1505 -1.3666
   12SAPS    HY 1494   5.837   0.440   6.340  1.0518 -1.3564  0.1747
   12SAPS   O31 1495   5.863   0.544   6.531  0.6129  0.4574  0.1600
   12SAPS   C31 1496   5.734   0.563   6.558  0.5817 -0.0625  0.1381
   12SAPS   O32 1497   5.638   0.564   6.475 -0.3456  0.0314  0.0546
   12SAPS   C32 1498   5.707   0.587   6.701 -0.3806 -0.0968  0.2955
   12SAPS   H2X 1499   5.672   0.495   6.753 -0.4205  0.7135  1.7786
   12SAPS   H2Y 1500   5.621   0.657   6.710  2.4091  3.8510 -0.8110
   12SAPS   C23 1501   6.027   0.986   6.633  0.0617 -0.2507  0.0534
   12SAPS   H3R 1502   6.035   0.911   6.715 -3.2405  1.3215  2.0197
   12SAPS   H3S 1503   5.923   1.024   6.637  0.4814  0.8809  0.7725
   12SAPS   C24 1504   6.116   1.110   6.664 -0.8687  0.0281  0.0975
   12SAPS   H4R 1505   6.090   1.191   6.593 -0.6445  0.7159  0.7959
   12SAPS   H4S 1506   6.225   1.092   6.650 -0.3926  1.7712  1.2580
   12SAPS   C25 1507   6.085   1.160   6.802 -0.6884 -0.2954 -0.2574
   12SAPS   H5R 1508   5.985   1.202   6.816 -0.5708 -0.1376  0.1055
   12SAPS   C26 1509   6.162   1.164   6.910 -0.3404  0.2787 -0.3019
   12SAPS   H6R 1510   6.120   1.199   7.006 -0.7356  0.5752 -0.5778
   12SAPS   C27 1511   6.298   1.109   6.906 -0.1486  0.4728 -0.3554
   12SAPS   H7R 1512   6.337   1.163   6.816  0.0975  2.1862  0.7381
   12SAPS   H7S 1513   6.302   1.003   6.873  3.6156  1.1748 -2.8748
   12SAPS   C28 1514   6.388   1.137   7.025 -0.2476 -0.0769 -0.5884
   12SAPS   H8R 1515   6.421   1.044   7.074  1.6703  0.8109 -0.1113
   12SAPS   C29 1516   6.444   1.247   7.074  0.1506  0.4195 -0.5472
   12SAPS   H9R 1517   6.501   1.242   7.168  1.3546 -1.1386 -1.3182
   12SAPS  C210 1518   6.414   1.381   7.014 -0.6556  0.8501  0.6453
   12SAPS  H10R 1519   6.325   1.418   7.070 -3.0917 -1.9327 -1.0360
   12SAPS  H10S 1520   6.372   1.376   6.911 -1.1978 -1.8890  0.9273
   12SAPS  C211 1521   6.530   1.476   7.015  0.6702  0.1408 -0.9661
   12SAPS  H11R 1522   6.567   1.494   6.913  2.0528 -0.9213 -0.6739
   12SAPS  C212 1523   6.588   1.547   7.115  0.0686  0.3897 -0.2181
   12SAPS  H12R 1524   6.686   1.594   7.096  0.9852 -1.8794 -1.3852
   12SAPS  C213 1525   6.547   1.545   7.259  0.4484 -0.3609  0.0588
   12SAPS  H13R 1526   6.630   1.522   7.329  1.7963  1.4582 -0.8770
   12SAPS  H13S 1527   6.476   1.459   7.263  1.7846 -1.6064 -1.6660
   12SAPS  C214 1528   6.474   1.668   7.309  0.1706  1.1314  0.1136
   12SAPS  H14R 1529   6.369   1.677   7.277  0.2079 -0.5087 -0.5538
   12SAPS  C215 1530   6.512   1.758   7.398 -0.0865  0.3154 -0.3813
   12SAPS  H15R 1531   6.447   1.842   7.426 -1.1556  0.3719 -2.8401
   12SAPS  C216 1532   6.641   1.754   7.467 -0.3090 -0.2066 -0.2986
   12SAPS  H16R 1533   6.672   1.860   7.480  1.2242 -0.8016  1.1542
   12SAPS  H16S 1534   6.710   1.699   7.399  0.9967  1.4729 -0.3914
   12SAPS  C217 1535   6.632   1.678   7.597  0.2440 -0.1023  0.2814
   12SAPS  H17R 1536   6.732   1.666   7.644 -0.2169 -1.3921  0.9756
   12SAPS  H17S 1537   6.597   1.573   7.582  2.2608 -1.0678  1.8043
   12SAPS  C218 1538   6.545   1.740   7.713 -0.3787 -0.0490  0.6269
   12SAPS  H18R 1539   6.439   1.731   7.684 -0.4345 -1.2169  1.1401
   12SAPS  H18S 1540   6.579   1.846   7.718  1.9072 -0.5423 -1.7528
   12SAPS  C219 1541   6.577   1.665   7.844 -0.7165 -0.3616  0.3166
   12SAPS  H19R 1542   6.685   1.680   7.863  0.4352 -1.9660 -3.8236
   12SAPS  H19S 1543   6.552   1.557   7.836 -1.7339 -0.2296  1.4051
   12SAPS  C220 1544   6.503   1.708   7.974  0.6043 -0.8236 -0.1122
   12SAPS  H20R 1545   6.523   1.643   8.061 -2.2025  0.3491  1.5550
   12SAPS  H20S 1546   6.392   1.706   7.965  0.6583  0.2228 -1.3351
   12SAPS  H20T 1547   6.531   1.814   7.993  0.6330 -0.8388 -0.0715
   12SAPS   C33 1548   5.827   0.635   6.773 -0.5726 -0.7138  0.2345
   12SAPS   H3X 1549   5.852   0.734   6.730  0.6355 -1.0718  0.0668
   12SAPS   H3Y 1550   5.908   0.564   6.745 -0.3634 -0.1623 -0.5805
   12SAPS   C34 1551   5.814   0.667   6.923 -0.1329 -0.1204  0.0456
   12SAPS   H4X 1552   5.788   0.571   6.973  3.0633 -1.2748 -0.3228
   12SAPS   H4Y 1553   5.723   0.731   6.923 -0.7740 -0.9626  1.4348
   12SAPS   C35 1554   5.929   0.737   6.997 -0.0783 -1.0325  0.1899
   12SAPS   H5X 1555   5.908   0.844   6.977 -1.6209 -1.3746 -0.1578
   12SAPS   H5Y 1556   6.030   0.712   6.955 -0.4502 -0.6264 -1.0011
   12SAPS   C36 1557   5.934   0.723   7.146  0.2735  0.0015 -0.7933
   12SAPS   H6X 1558   5.927   0.616   7.174  0.6329 -0.3238 -1.8742
   12SAPS   H6Y 1559   5.842   0.771   7.184  0.4671  1.1289 -1.6814
   12SAPS   C37 1560   6.055   0.788   7.213  0.4272  0.2921 -0.7922
   12SAPS   H7X 1561   6.063   0.893   7.176  0.5441  1.1898  1.6378
   12SAPS   H7Y 1562   6.138   0.718   7.191  0.4596 -0.1013  0.5517
   12SAPS   C38 1563   6.042   0.807   7.363  0.5626 -0.2948 -0.0643
   12SAPS   H8X 1564   5.958   0.874   7.391 -1.3527 -1.7686 -1.9456
   12SAPS   H8Y 1565   6.141   0.842   7.400 -0.3204  2.4686 -0.0840
   12SAPS   C39 1566   6.004   0.676   7.439  0.2589  0.0401 -0.5445
   12SAPS   H9X 1567   6.077   0.602   7.399  1.4050  0.7335  0.2154
   12SAPS   H9Y 1568   5.905   0.637   7.407  0.4444 -0.3200 -0.6906
   12SAPS  C310 1569   6.008   0.684   7.593  1.1122  0.1137 -0.1044
   12SAPS  H10X 1570   5.927   0.752   7.628 -0.4131 -2.0626  0.8078
   12SAPS  H10Y 1571   6.105   0.730   7.622  0.1736  1.1036  1.6249
   12SAPS  C311 1572   5.979   0.551   7.657  0.0389 -0.3587 -0.3426
   12SAPS  H11X 1573   6.065   0.485   7.634  1.5889  0.8368  1.6593
   12SAPS  H11Y 1574   5.887   0.508   7.612 -0.3216  0.2558 -0.2036
   12SAPS  C312 1575   5.967   0.563   7.802 -0.7126  0.3104 -0.1941
   12SAPS  H12X 1576   5.871   0.612   7.830  0.1942  2.8377 -1.1768
   12SAPS  H12Y 1577   6.037   0.642   7.837  1.1220 -1.4734  0.2998
   12SAPS  C313 1578   5.994   0.438   7.886 -0.1373  0.1866 -0.3559
   12SAPS  H13X 1579   6.085   0.383   7.852 -0.3696 -0.2174 -0.3250
   12SAPS  H13Y 1580   5.918   0.357   7.880 -1.7619  1.6967 -0.9481
   12SAPS  C314 1581   6.006   0.472   8.040 -0.3846 -0.3145 -0.7029
   12SAPS  H14X 1582   5.916   0.511   8.091  2.2232  2.0287  2.5489
   12SAPS  H14Y 1583   6.068   0.564   8.049 -0.6842 -0.1007 -0.8214
   12SAPS  C315 1584   6.080   0.365   8.122 -0.2805 -0.4403  0.2878
   12SAPS  H15X 1585   6.124   0.423   8.205 -0.9304  0.3995  0.0545
   12SAPS  H15Y 1586   6.163   0.314   8.068 -1.2113 -1.1553 -0.5156
   12SAPS  C316 1587   5.978   0.266   8.194 -0.3135  0.5078 -0.1262
   12SAPS  H16X 1588   5.955   0.181   8.126 -2.0147  0.6850  0.1675
   12SAPS  H16Y 1589   5.886   0.325   8.213 -0.9006 -0.5822  0.5076
   12SAPS  C317 1590   6.030   0.222   8.330  0.1248 -0.0917  0.3066
   12SAPS  H17X 1591   5.959   0.142   8.361  0.5901 -0.2424  0.9809
   12SAPS  H17Y 1592   6.021   0.301   8.408  0.9539  0.5102 -0.1896
   12SAPS  C318 1593   6.170   0.170   8.334 -0.3456  0.0524  0.9933
   12SAPS  H18X 1594   6.183   0.094   8.254  2.3296  2.4218 -1.0119
   12SAPS  H18Y 1595   6.197   0.136   8.436 -0.2519  0.0133  0.9554
   12SAPS  H18Z 1596   6.237   0.252   8.303 -0.7226 -0.2856 -0.8142
   13SAPS     N 1597   3.266   6.109   5.704 -0.0431  0.2584  0.0061
   13SAPS   HN1 1598   3.329   6.027   5.715  1.0586  0.6223 -2.7907
   13SAPS   HN2 1599   3.203   6.104   5.621 -1.8111  3.0579  1.0171
   13SAPS   HN3 1600   3.320   6.196   5.686  1.5883 -0.7325 -0.0247
   13SAPS   C12 1601   3.176   6.145   5.816 -0.6236 -0.0124 -0.1632
   13SAPS  H12A 1602   3.113   6.222   5.774 -1.3081 -1.5751 -2.1759
   13SAPS   C13 1603   3.091   6.027   5.860 -0.0338 -0.4938 -0.4569
   13SAPS  O13A 1604   3.103   5.907   5.811 -0.6132 -0.2616 -0.0261
   13SAPS  O13B 1605   3.006   6.053   5.953 -0.3320 -0.2781  0.3263
   13SAPS   C11 1606   3.269   6.193   5.926  0.1366 -1.3175 -1.1797
   13SAPS  H11A 1607   3.346   6.114   5.940  0.6013 -0.8473 -1.0378
   13SAPS  H11B 1608   3.210   6.191   6.020  0.0753 -0.6978 -1.1976
   13SAPS     P 1609   3.297   6.458   5.978 -0.0461  0.2149  0.0409
   13SAPS   O13 1610   3.396   6.556   5.925  0.1006  0.3443  0.4055
   13SAPS   O14 1611   3.155   6.482   5.957  0.0672 -0.2720 -0.1672
   13SAPS   O12 1612   3.334   6.319   5.912  0.9420 -0.0237  0.5973
   13SAPS   O11 1613   3.329   6.440   6.129 -0.7558 -0.2883 -0.1429
   13SAPS    C1 1614   3.219   6.408   6.217 -0.6275 -0.2328  0.3668
   13SAPS    HA 1615   3.151   6.495   6.225  1.4258  1.6902 -1.6294
   13SAPS    HB 1616   3.174   6.313   6.180  2.5951 -0.7780 -2.6987
   13SAPS    C2 1617   3.284   6.386   6.357  0.1217 -0.0756 -0.1065
   13SAPS    HS 1618   3.339   6.290   6.352 -0.5068 -0.5607  1.5362
   13SAPS   O21 1619   3.166   6.381   6.441  0.2449 -0.2026  0.3241
   13SAPS   C21 1620   3.179   6.319   6.549  0.6606  0.2764  0.1636
   13SAPS   O22 1621   3.265   6.238   6.586  0.8109  0.3570 -0.6612
   13SAPS   C22 1622   3.051   6.338   6.635 -0.2133 -0.0692  0.2565
   13SAPS   H2R 1623   2.962   6.312   6.575  1.0366  1.8674 -2.6591
   13SAPS   H2S 1624   3.063   6.271   6.723  0.8094 -0.7239 -0.3654
   13SAPS    C3 1625   3.395   6.489   6.399 -0.2648  0.0585  0.4399
   13SAPS    HX 1626   3.345   6.583   6.368  0.2705  0.3649  0.4823
   13SAPS    HY 1627   3.489   6.467   6.343 -0.8812 -0.8549 -0.2692
   13SAPS   O31 1628   3.414   6.482   6.541 -0.2696 -0.0011 -0.3124
   13SAPS   C31 1629   3.542   6.478   6.589 -0.3346 -0.1582  0.0587
   13SAPS   O32 1630   3.645   6.497   6.521 -0.1178 -0.0998 -0.1702
   13SAPS   C32 1631   3.543   6.450   6.736 -0.0078  0.1697 -0.1981
   13SAPS   H2X 1632   3.485   6.356   6.749 -0.7526  0.0438 -3.4196
   13SAPS   H2Y 1633   3.493   6.537   6.783  0.7090 -0.2261  1.3415
   13SAPS   C23 1634   3.045   6.487   6.696 -0.1710 -0.2307  0.3056
   13SAPS   H3R 1635   2.958   6.501   6.764 -0.5350  0.0989 -0.2224
   13SAPS   H3S 1636   3.029   6.550   6.606  0.5002  0.6042  0.7529
   13SAPS   C24 1637   3.173   6.544   6.765  1.0210 -0.6103  0.4794
   13SAPS   H4R 1638   3.130   6.639   6.802 -2.1527 -2.8361  3.0590
   13SAPS   H4S 1639   3.252   6.548   6.686  2.0255  1.0916  1.5111
   13SAPS   C25 1640   3.210   6.462   6.884 -0.0932 -0.7147 -0.3815
   13SAPS   H5R 1641   3.195   6.353   6.878 -1.9592 -0.6814  1.8709
   13SAPS   C26 1642   3.269   6.517   6.994  0.4224  0.1635 -0.4318
   13SAPS   H6R 1643   3.299   6.455   7.080 -0.5133  1.8688  1.1839
   13SAPS   C27 1644   3.302   6.660   7.018 -0.2961 -0.3848 -0.7173
   13SAPS   H7R 1645   3.335   6.707   6.923  1.6618 -0.2084 -0.0035
   13SAPS   H7S 1646   3.386   6.658   7.091  0.2650  0.5489 -1.3171
   13SAPS   C28 1647   3.181   6.729   7.074 -0.6211 -0.4592 -0.3059
   13SAPS   H8R 1648   3.123   6.784   6.998  1.1531  0.3502 -1.1379
   13SAPS   C29 1649   3.147   6.755   7.203  0.1047 -0.3938 -0.1803
   13SAPS   H9R 1650   3.056   6.815   7.217 -0.9062 -1.5629 -1.4376
   13SAPS  C210 1651   3.206   6.723   7.333 -0.1287  0.5409 -0.6453
   13SAPS  H10R 1652   3.201   6.806   7.406  0.5267 -1.7173  2.1544
   13SAPS  H10S 1653   3.316   6.707   7.330 -0.3837 -1.4626 -0.4890
   13SAPS  C211 1654   3.144   6.597   7.385 -0.1139 -0.3478  0.5466
   13SAPS  H11R 1655   3.110   6.519   7.315 -1.0167  1.3758 -1.0036
   13SAPS  C212 1656   3.160   6.556   7.516  0.8808  0.8189  0.1844
   13SAPS  H12R 1657   3.106   6.466   7.548 -0.5488  1.2901 -0.8004
   13SAPS  C213 1658   3.217   6.630   7.632  0.4672  0.0784 -0.2977
   13SAPS  H13R 1659   3.301   6.698   7.606  0.5888  0.2468  0.5112
   13SAPS  H13S 1660   3.256   6.552   7.700 -0.5107 -1.4789 -1.4373
   13SAPS  C214 1661   3.103   6.716   7.690 -0.3571  0.2406  0.0690
   13SAPS  H14R 1662   3.012   6.731   7.629 -2.4773 -0.1612  2.9240
   13SAPS  C215 1663   3.099   6.771   7.814  0.2647 -0.1131  0.1759
   13SAPS  H15R 1664   3.011   6.828   7.848  1.1837  0.3220  1.9287
   13SAPS  C216 1665   3.198   6.758   7.921  0.1709 -0.9641 -0.1635
   13SAPS  H16R 1666   3.292   6.714   7.882  1.6471 -1.7108  3.7261
   13SAPS  H16S 1667   3.169   6.680   7.995 -2.5613  0.0997  0.0016
   13SAPS  C217 1668   3.240   6.881   8.012  0.0909 -0.0954  0.9180
   13SAPS  H17R 1669   3.283   6.965   7.953 -2.1385  1.6766  1.6578
   13SAPS  H17S 1670   3.324   6.840   8.073  0.1604 -0.9721  0.2499
   13SAPS  C218 1671   3.119   6.937   8.088 -0.1895 -0.2518 -0.5559
   13SAPS  H18R 1672   3.066   6.846   8.124 -0.2647 -0.3191 -0.8369
   13SAPS  H18S 1673   3.052   7.000   8.026  0.9269 -0.0868 -1.6166
   13SAPS  C219 1674   3.159   7.013   8.221  0.3562  0.0047 -0.2678
   13SAPS  H19R 1675   3.214   7.104   8.188 -1.1435  1.4203  0.9702
   13SAPS  H19S 1676   3.239   6.962   8.278 -0.0076 -0.1765  0.0842
   13SAPS  C220 1677   3.040   7.042   8.311  0.5395  0.0384 -0.1421
   13SAPS  H20R 1678   3.071   7.099   8.401 -0.4695 -0.9215  0.8363
   13SAPS  H20S 1679   2.990   6.947   8.336 -1.2057  0.5339 -1.5258
   13SAPS  H20T 1680   2.961   7.102   8.261 -0.0594  0.1621  0.9312
   13SAPS   C33 1681   3.690   6.439   6.798  0.8152  0.0770  0.5811
   13SAPS   H3X 1682   3.728   6.536   6.834 -1.3509  1.3990 -0.4585
   13SAPS   H3Y 1683   3.766   6.396   6.729  2.2501  1.0676  1.5058
   13SAPS   C34 1684   3.689   6.348   6.918 -0.2877 -0.7796 -0.5514
   13SAPS   H4X 1685   3.790   6.334   6.962 -0.7076 -0.9737  0.3833
   13SAPS   H4Y 1686   3.644   6.249   6.894  2.1731 -2.6522  1.9908
   13SAPS   C35 1687   3.618   6.431   7.033 -0.9557  0.1483 -0.2775
   13SAPS   H5X 1688   3.521   6.474   7.000 -2.2034 -2.1652  0.1723
   13SAPS   H5Y 1689   3.681   6.521   7.048  1.9085 -1.4189 -1.9974
   13SAPS   C36 1690   3.595   6.357   7.159 -0.1370 -0.3734 -0.4740
   13SAPS   H6X 1691   3.671   6.287   7.198 -0.7256  0.4962  2.4545
   13SAPS   H6Y 1692   3.500   6.300   7.151  0.1449 -1.3323  2.0521
   13SAPS   C37 1693   3.572   6.466   7.273  0.1962  0.7910  0.6634
   13SAPS   H7X 1694   3.480   6.521   7.245 -1.9132 -2.1636  1.2886
   13SAPS   H7Y 1695   3.662   6.530   7.285 -0.2740  1.4474  0.7347
   13SAPS   C38 1696   3.546   6.391   7.402 -0.6669 -0.5841 -0.2784
   13SAPS   H8X 1697   3.612   6.304   7.422 -1.7765 -1.4116 -0.1142
   13SAPS   H8Y 1698   3.441   6.354   7.404 -1.5177  1.6660 -0.5898
   13SAPS   C39 1699   3.560   6.465   7.539 -0.3904  0.7540  0.7003
   13SAPS   H9X 1700   3.491   6.552   7.530  0.3384  1.2829  0.0277
   13SAPS   H9Y 1701   3.663   6.505   7.556  0.0240  0.2081 -0.3951
   13SAPS  C310 1702   3.520   6.370   7.654  0.7580  0.0790 -0.2942
   13SAPS  H10X 1703   3.575   6.274   7.643 -0.5606 -0.5341 -1.9090
   13SAPS  H10Y 1704   3.416   6.335   7.638  0.9495 -0.7406  0.2064
   13SAPS  C311 1705   3.512   6.439   7.790 -0.5581  0.1738  0.1159
   13SAPS  H11X 1706   3.407   6.433   7.827 -0.2853  0.5340  0.9675
   13SAPS  H11Y 1707   3.531   6.546   7.770  0.7855 -0.1237 -0.3010
   13SAPS  C312 1708   3.604   6.379   7.887  0.1128 -0.3108 -0.3828
   13SAPS  H12X 1709   3.705   6.366   7.842 -0.0125 -0.8649 -0.5118
   13SAPS  H12Y 1710   3.581   6.273   7.912  0.1662  0.5392  4.0700
   13SAPS  C313 1711   3.612   6.455   8.021  0.6672 -0.4926  0.3684
   13SAPS  H13X 1712   3.638   6.558   7.989  0.0349 -0.2863  0.5023
   13SAPS  H13Y 1713   3.697   6.413   8.079 -0.5745 -1.5371  1.4974
   13SAPS  C314 1714   3.483   6.449   8.099  0.3846 -0.9177 -0.0503
   13SAPS  H14X 1715   3.453   6.348   8.136  1.5364 -2.0008 -1.8961
   13SAPS  H14Y 1716   3.399   6.478   8.033  0.9309  0.3594 -0.2183
   13SAPS  C315 1717   3.485   6.548   8.219 -0.5614 -0.0376  0.4435
   13SAPS  H15X 1718   3.531   6.646   8.196  1.7894 -0.9630  0.9154
   13SAPS  H15Y 1719   3.543   6.512   8.306  0.7245 -0.6201 -0.6101
   13SAPS  C316 1720   3.340   6.589   8.262  0.0840  0.1530 -0.0707
   13SAPS  H16X 1721   3.275   6.499   8.253  1.3140 -0.7345 -0.4498
   13SAPS  H16Y 1722   3.296   6.664   8.194  1.1917  0.5220 -0.4107
   13SAPS  C317 1723   3.331   6.643   8.407 -0.7497  0.0708 -0.0435
   13SAPS  H17X 1724   3.418   6.712   8.418 -0.4965  0.0490 -1.5961
   13SAPS  H17Y 1725   3.356   6.561   8.477  2.3006  3.0206  2.6972
   13SAPS  C318 1726   3.201   6.707   8.449 -1.0124 -0.1193 -0.1973
   13SAPS  H18X 1727   3.122   6.629   8.453 -0.2225 -0.9602 -0.6983
   13SAPS  H18Y 1728   3.184   6.787   8.374  0.4053  0.0642 -0.3450
   13SAPS  H18Z 1729   3.214   6.747   8.552  2.7729 -0.9720 -0.2147
   14SAPS     N 1730   1.625   1.112   5.854 -0.3653  0.0409  0.1403
   14SAPS   HN1 1731   1.697   1.161   5.798 -2.3583 -0.1383 -2.8501
   14SAPS   HN2 1732   1.666   1.066   5.938 -0.4846 -1.6611 -0.6861
   14SAPS   HN3 1733   1.588   1.038   5.791 -1.3144  0.9388 -0.4023
   14SAPS   C12 1734   1.523   1.208   5.901  0.1388  0.0711  0.2892
   14SAPS  H12A 1735   1.477   1.264   5.821  1.1747 -0.0673 -0.4298
   14SAPS   C13 1736   1.407   1.129   5.978 -0.0620 -0.0232 -0.1241
   14SAPS  O13A 1737   1.423   1.006   5.987 -0.0826  0.3144 -0.2088
   14SAPS  O13B 1738   1.310   1.193   6.030 -0.7056 -0.3431  0.3831
   14SAPS   C11 1739   1.594   1.292   6.009 -0.2845 -0.8173 -0.5512
   14SAPS  H11A 1740   1.630   1.230   6.094  0.7508 -0.2088 -0.5344
   14SAPS  H11B 1741   1.513   1.359   6.045  0.0525 -0.0364 -1.2139
   14SAPS     P 1742   1.750   1.504   6.012 -0.0265  0.0286 -0.0462
   14SAPS   O13 1743   1.902   1.506   6.010  0.4250 -0.2015 -0.8505
   14SAPS   O14 1744   1.681   1.615   5.940  0.0262 -0.6898 -0.1989
   14SAPS   O12 1745   1.699   1.370   5.952 -0.2610 -0.2139  0.1992
   14SAPS   O11 1746   1.710   1.503   6.163 -0.5445  0.3394 -1.0418
   14SAPS    C1 1747   1.616   1.601   6.216 -0.2633  0.3724 -0.2705
   14SAPS    HA 1748   1.675   1.694   6.228  2.1444 -1.2378  1.2502
   14SAPS    HB 1749   1.524   1.601   6.155  0.0190 -0.3043 -0.7114
   14SAPS    C2 1750   1.565   1.559   6.358 -0.0452  0.1231 -0.2115
   14SAPS    HS 1751   1.491   1.633   6.394  0.1052 -0.2191  0.8347
   14SAPS   O21 1752   1.676   1.554   6.454 -0.3217  0.1884  0.8906
   14SAPS   C21 1753   1.722   1.670   6.499 -0.0232  0.2122  0.1609
   14SAPS   O22 1754   1.676   1.780   6.491 -0.1073  0.2034  0.4316
   14SAPS   C22 1755   1.848   1.654   6.584 -0.0578  0.7350  0.2374
   14SAPS   H2R 1756   1.885   1.550   6.589 -2.3961 -0.1100  2.0604
   14SAPS   H2S 1757   1.912   1.730   6.534  0.0398  0.2546 -0.3835
   14SAPS    C3 1758   1.476   1.429   6.347  0.0993  0.1202  0.6631
   14SAPS    HX 1759   1.541   1.350   6.306 -0.3841 -0.4610  1.0043
   14SAPS    HY 1760   1.400   1.455   6.270  0.9434 -2.4586 -1.1225
   14SAPS   O31 1761   1.410   1.398   6.471 -0.5520  0.4638 -0.3514
   14SAPS   C31 1762   1.403   1.264   6.494  0.0305  0.1636  0.0173
   14SAPS   O32 1763   1.436   1.174   6.419 -0.5855 -0.0138 -0.1051
   14SAPS   C32 1764   1.326   1.244   6.623 -0.0991  0.4757 -0.6181
   14SAPS   H2X 1765   1.282   1.142   6.630  1.3715 -0.1132  0.4188
   14SAPS   H2Y 1766   1.239   1.312   6.632  0.0513  0.4603  1.5790
   14SAPS   C23 1767   1.820   1.672   6.733  0.6916  0.8361 -0.4949
   14SAPS   H3R 1768   1.769   1.771   6.738 -1.1423 -0.1240  1.3097
   14SAPS   H3S 1769   1.909   1.686   6.798 -0.2076  0.6803  0.8189
   14SAPS   C24 1770   1.733   1.575   6.815  0.2963  0.1270  0.1863
   14SAPS   H4R 1771   1.628   1.566   6.780  0.6786 -1.2696 -0.6518
   14SAPS   H4S 1772   1.732   1.635   6.909 -0.9848  1.2438 -0.5001
   14SAPS   C25 1773   1.809   1.452   6.832  0.0938  0.2745  0.1171
   14SAPS   H5R 1774   1.786   1.375   6.757 -0.2793  0.0663  0.4437
   14SAPS   C26 1775   1.890   1.429   6.938  0.9060  0.7441  0.2333
   14SAPS   H6R 1776   1.949   1.336   6.934  0.4218  0.4461 -0.0575
   14SAPS   C27 1777   1.907   1.525   7.053  0.3259 -0.0723 -0.1566
   14SAPS   H7R 1778   1.909   1.628   7.013  0.0752  0.2885  0.7498
   14SAPS   H7S 1779   2.008   1.504   7.096  0.4209  0.0639 -0.3119
   14SAPS   C28 1780   1.807   1.503   7.162 -0.4362 -0.5876  0.4823
   14SAPS   H8R 1781   1.790   1.398   7.189 -1.2716 -0.6194 -0.1224
   14SAPS   C29 1782   1.730   1.593   7.219 -0.2865 -0.3518 -0.3387
   14SAPS   H9R 1783   1.664   1.554   7.298  0.8436 -0.9513  0.3374
   14SAPS  C210 1784   1.727   1.742   7.197  0.6374 -0.0608  0.3835
   14SAPS  H10R 1785   1.750   1.765   7.091  0.4422 -0.2979  0.2875
   14SAPS  H10S 1786   1.810   1.793   7.250 -0.1193  0.1655  1.3749
   14SAPS  C211 1787   1.590   1.799   7.234  0.3549  0.4501 -0.2939
   14SAPS  H11R 1788   1.509   1.799   7.159  0.4662  3.3109 -0.5415
   14SAPS  C212 1789   1.561   1.865   7.349 -0.3477  0.5236 -0.2845
   14SAPS  H12R 1790   1.462   1.910   7.365 -0.3743  0.2012  0.4922
   14SAPS  C213 1791   1.651   1.910   7.460  0.0715  0.3595  0.4701
   14SAPS  H13R 1792   1.636   2.017   7.486  0.8375  1.0180 -1.5962
   14SAPS  H13S 1793   1.759   1.907   7.432  0.4259  1.6591  1.5910
   14SAPS  C214 1794   1.629   1.830   7.585 -0.6189 -1.0781 -0.2457
   14SAPS  H14R 1795   1.529   1.789   7.604 -1.1652  0.8099  1.1680
   14SAPS  C215 1796   1.718   1.805   7.676 -0.3194  0.2965 -0.5972
   14SAPS  H15R 1797   1.696   1.743   7.765  1.4436  0.2394 -0.1625
   14SAPS  C216 1798   1.867   1.843   7.670 -0.6362  0.0930 -0.5754
   14SAPS  H16R 1799   1.895   1.878   7.772 -2.5281 -0.8670  0.3321
   14SAPS  H16S 1800   1.895   1.914   7.589  0.0371  2.7390  1.8071
   14SAPS  C217 1801   1.953   1.710   7.653  0.6570 -0.5071  0.4100
   14SAPS  H17R 1802   1.915   1.628   7.717  2.0322 -0.3340  1.5207
   14SAPS  H17S 1803   2.049   1.740   7.702 -0.9863  1.8188  2.4210
   14SAPS  C218 1804   1.963   1.668   7.498  0.2222 -0.4303  0.1924
   14SAPS  H18R 1805   2.010   1.758   7.453  1.4403  0.0312  2.2549
   14SAPS  H18S 1806   1.858   1.655   7.464 -0.2142 -1.8911  1.9767
   14SAPS  C219 1807   2.044   1.534   7.481  0.3198 -0.2174 -0.3458
   14SAPS  H19R 1808   2.054   1.526   7.371  0.5746 -2.1002 -0.2076
   14SAPS  H19S 1809   1.983   1.451   7.520  2.1995 -1.6067 -0.2067
   14SAPS  C220 1810   2.175   1.548   7.544 -0.0344 -0.8355 -0.4701
   14SAPS  H20R 1811   2.168   1.557   7.654 -3.3165  2.5647 -0.7474
   14SAPS  H20S 1812   2.224   1.636   7.495 -0.6853  0.6103  1.3515
   14SAPS  H20T 1813   2.240   1.459   7.529 -1.8690 -2.4389  0.6670
   14SAPS   C33 1814   1.429   1.236   6.743  0.1556  0.0115  0.9605
   14SAPS   H3X 1815   1.367   1.249   6.834  0.1436  0.4497  0.8936
   14SAPS   H3Y 1816   1.498   1.323   6.744 -1.4685  1.3473  0.9993
   14SAPS   C34 1817   1.513   1.107   6.756 -0.1832  0.0027 -0.2890
   14SAPS   H4X 1818   1.558   1.089   6.656  2.4111  0.2705  0.7561
   14SAPS   H4Y 1819   1.439   1.028   6.777 -0.2028 -0.1869 -1.0395
   14SAPS   C35 1820   1.623   1.119   6.864  0.0418 -0.7438  0.4251
   14SAPS   H5X 1821   1.688   1.207   6.847  0.2429 -1.1916 -1.2843
   14SAPS   H5Y 1822   1.688   1.029   6.856 -0.0949 -0.6800 -2.1950
   14SAPS   C36 1823   1.562   1.133   7.008  0.5202  0.3769 -0.3397
   14SAPS   H6X 1824   1.477   1.204   7.016  0.8047  0.5414  2.0172
   14SAPS   H6Y 1825   1.640   1.177   7.074  1.7249 -1.0334 -0.7901
   14SAPS   C37 1826   1.504   1.007   7.067 -0.0406  0.1281 -0.2159
   14SAPS   H7X 1827   1.576   0.932   7.029 -0.4786  0.2748 -1.3811
   14SAPS   H7Y 1828   1.399   1.004   7.030 -0.1178 -0.8788  0.0696
   14SAPS   C38 1829   1.499   1.002   7.222 -0.2370  0.3728 -0.0796
   14SAPS   H8X 1830   1.595   1.036   7.266 -1.2139  0.9601  1.7092
   14SAPS   H8Y 1831   1.470   0.902   7.260 -0.3266  0.9396  1.3862
   14SAPS   C39 1832   1.399   1.105   7.285 -0.0581 -0.5437  0.7890
   14SAPS   H9X 1833   1.294   1.097   7.252 -0.1131  0.6366  0.6179
   14SAPS   H9Y 1834   1.428   1.210   7.262 -1.8294 -0.2719 -0.4175
   14SAPS  C310 1835   1.386   1.091   7.440 -1.2323 -0.2318 -0.2531
   14SAPS  H10X 1836   1.350   0.991   7.474  1.1007 -0.7912  0.7471
   14SAPS  H10Y 1837   1.306   1.160   7.476  0.3843  0.6858  1.8173
   14SAPS  C311 1838   1.510   1.134   7.515 -0.2335  0.0999  0.7777
   14SAPS  H11X 1839   1.585   1.052   7.505 -1.1952 -0.7204  0.0801
   14SAPS  H11Y 1840   1.488   1.144   7.623  0.8526  1.3349  0.9108
   14SAPS  C312 1841   1.577   1.267   7.464  0.0472 -0.4977 -0.0945
   14SAPS  H12X 1842   1.496   1.343   7.473 -0.8099 -1.4745  0.8261
   14SAPS  H12Y 1843   1.610   1.258   7.359 -0.1387 -0.0324 -0.1934
   14SAPS  C313 1844   1.694   1.327   7.546 -0.2493 -0.6090 -0.4714
   14SAPS  H13X 1845   1.740   1.418   7.501  0.9564 -1.5960 -1.3072
   14SAPS  H13Y 1846   1.775   1.251   7.548  1.5095  0.9630 -3.7767
   14SAPS  C314 1847   1.676   1.346   7.696  0.6222 -0.1557 -0.4460
   14SAPS  H14X 1848   1.763   1.398   7.742 -0.5068  0.5718  0.9136
   14SAPS  H14Y 1849   1.663   1.247   7.745  0.9021  0.7496  1.5387
   14SAPS  C315 1850   1.555   1.435   7.738  0.0153 -0.9234 -0.1891
   14SAPS  H15X 1851   1.460   1.384   7.711 -0.3861  0.4729 -1.5055
   14SAPS  H15Y 1852   1.569   1.526   7.676  0.1201 -1.9814 -1.8003
   14SAPS  C316 1853   1.563   1.482   7.886 -0.3909 -0.3989 -0.1939
   14SAPS  H16X 1854   1.664   1.524   7.906  0.2032 -1.6603 -0.4473
   14SAPS  H16Y 1855   1.539   1.395   7.952 -1.4943  0.3240  0.3953
   14SAPS  C317 1856   1.457   1.602   7.904 -0.1956 -0.4925  0.1087
   14SAPS  H17X 1857   1.362   1.562   7.863  0.7514 -1.0581 -1.6589
   14SAPS  H17Y 1858   1.471   1.691   7.839  0.5137 -1.3548 -0.9642
   14SAPS  C318 1859   1.448   1.643   8.051 -0.1716  0.2267 -0.1487
   14SAPS  H18X 1860   1.554   1.665   8.075 -0.5946  1.0552  1.0637
   14SAPS  H18Y 1861   1.427   1.561   8.123 -1.4882  1.3754  0.8281
   14SAPS  H18Z 1862   1.378   1.729   8.058 -2.6260 -1.6911  0.2376
   15SAPS     N 1863   2.726   1.522   5.860 -0.4241  0.1783  0.6623
   15SAPS   HN1 1864   2.802   1.545   5.793 -2.2890 -0.6217 -1.9174
   15SAPS   HN2 1865   2.747   1.542   5.959  1.0087 -1.0114  0.6302
   15SAPS   HN3 1866   2.720   1.419   5.844  2.4288  0.0086  0.1699
   15SAPS   C12 1867   2.600   1.584   5.810  0.1714 -1.0014 -0.9220
   15SAPS  H12A 1868   2.619   1.690   5.813  2.2202 -1.3377 -0.6305
   15SAPS   C13 1869   2.562   1.548   5.669  0.1059  0.0677  0.5370
   15SAPS  O13A 1870   2.651   1.488   5.595  0.8614 -0.4314 -0.2887
   15SAPS  O13B 1871   2.467   1.619   5.614 -0.3937  0.1714 -0.0051
   15SAPS   C11 1872   2.472   1.543   5.897 -0.5899 -0.4950 -0.0295
   15SAPS  H11A 1873   2.377   1.582   5.854 -1.3689 -0.9306  1.2492
   15SAPS  H11B 1874   2.477   1.594   5.995 -0.6444 -1.0098  0.2430
   15SAPS     P 1875   2.357   1.344   6.014 -0.2986 -0.7636  0.1416
   15SAPS   O13 1876   2.231   1.419   6.008  0.8146 -0.2878  0.0530
   15SAPS   O14 1877   2.341   1.199   5.988 -0.4520  0.2633 -0.1559
   15SAPS   O12 1878   2.460   1.400   5.910  0.4500  0.2187  0.1038
   15SAPS   O11 1879   2.426   1.371   6.154 -0.1664 -0.1060 -0.2864
   15SAPS    C1 1880   2.548   1.302   6.190  0.5766 -0.6179  0.7991
   15SAPS    HA 1881   2.606   1.285   6.097 -0.8837 -0.6021 -0.1524
   15SAPS    HB 1882   2.598   1.371   6.261 -1.1145  0.7564  0.7227
   15SAPS    C2 1883   2.523   1.170   6.269  0.3063 -0.2154  0.2144
   15SAPS    HS 1884   2.453   1.114   6.203 -1.2886  1.5418  0.2894
   15SAPS   O21 1885   2.459   1.202   6.386  0.0014  0.6403  0.1917
   15SAPS   C21 1886   2.372   1.126   6.438  0.0134  0.1047 -0.5506
   15SAPS   O22 1887   2.319   1.030   6.392 -0.1666  0.1725  0.3792
   15SAPS   C22 1888   2.323   1.174   6.575 -0.1662 -0.3066  0.0783
   15SAPS   H2R 1889   2.299   1.086   6.639 -1.8265  0.1614  0.1339
   15SAPS   H2S 1890   2.407   1.235   6.614 -0.4222 -1.0376  1.8667
   15SAPS    C3 1891   2.652   1.098   6.293  0.6486  0.1974  0.0712
   15SAPS    HX 1892   2.694   1.082   6.191  1.2051  1.3550  0.1033
   15SAPS    HY 1893   2.642   0.994   6.332 -1.9053  0.7935  1.1762
   15SAPS   O31 1894   2.742   1.175   6.373  0.2570 -0.2319 -0.0072
   15SAPS   C31 1895   2.737   1.144   6.501 -0.5490  0.2547 -0.5414
   15SAPS   O32 1896   2.677   1.052   6.554  0.2021  0.5094  0.3956
   15SAPS   C32 1897   2.828   1.248   6.571 -0.0711  0.6610  0.6756
   15SAPS   H2X 1898   2.782   1.346   6.545 -1.2485  0.0315  0.3020
   15SAPS   H2Y 1899   2.931   1.248   6.530 -0.6444  0.3146 -0.8599
   15SAPS   C23 1900   2.195   1.257   6.549  0.1337  0.0913 -0.5718
   15SAPS   H3R 1901   2.109   1.198   6.508 -1.0670  0.9647  0.5956
   15SAPS   H3S 1902   2.201   1.344   6.480 -0.3240  0.9085  0.3995
   15SAPS   C24 1903   2.145   1.313   6.684  0.4478  0.2272  0.2680
   15SAPS   H4R 1904   2.132   1.222   6.747  2.1899 -1.1270 -1.2189
   15SAPS   H4S 1905   2.047   1.359   6.659 -0.5521 -0.6372  2.3769
   15SAPS   C25 1906   2.236   1.416   6.751  0.5903 -0.6393  0.0536
   15SAPS   H5R 1907   2.218   1.514   6.704 -1.0215 -0.5867  0.7016
   15SAPS   C26 1908   2.330   1.388   6.843 -0.5687 -0.3087  0.2320
   15SAPS   H6R 1909   2.400   1.465   6.879  0.9545 -0.5435 -2.0285
   15SAPS   C27 1910   2.356   1.249   6.895  0.1498  0.2424 -0.6440
   15SAPS   H7R 1911   2.320   1.172   6.824 -1.2328  2.7258 -2.8160
   15SAPS   H7S 1912   2.308   1.224   6.992  1.0546  3.7477  0.8771
   15SAPS   C28 1913   2.503   1.230   6.911 -0.5408  0.3194 -0.0667
   15SAPS   H8R 1914   2.549   1.208   6.814  1.4292 -0.9886  1.0978
   15SAPS   C29 1915   2.579   1.222   7.024 -0.5197  0.7825  0.3638
   15SAPS   H9R 1916   2.687   1.202   7.011 -0.3614 -1.4400  3.8226
   15SAPS  C210 1917   2.531   1.232   7.169 -0.1646 -0.3483 -0.0037
   15SAPS  H10R 1918   2.439   1.169   7.172  0.7341 -1.6881  0.1393
   15SAPS  H10S 1919   2.496   1.335   7.193 -0.8732 -0.3859 -0.8122
   15SAPS  C211 1920   2.615   1.186   7.281  0.2455 -0.1141 -0.2344
   15SAPS  H11R 1921   2.718   1.155   7.259 -0.1727 -0.7997 -1.3031
   15SAPS  C212 1922   2.587   1.197   7.415  0.5052  1.4441  0.4065
   15SAPS  H12R 1923   2.662   1.147   7.479  0.8641  1.5895  0.1056
   15SAPS  C213 1924   2.458   1.251   7.475 -0.2334  0.1500 -0.3699
   15SAPS  H13R 1925   2.416   1.179   7.548 -0.9889 -0.9786 -1.8529
   15SAPS  H13S 1926   2.386   1.268   7.391 -1.0184 -2.8529 -0.4409
   15SAPS  C214 1927   2.500   1.388   7.523  0.4540  0.1221  0.2840
   15SAPS  H14R 1928   2.532   1.454   7.441 -1.5477  0.0173 -0.6257
   15SAPS  C215 1929   2.508   1.428   7.655 -0.3875 -0.3313  0.3949
   15SAPS  H15R 1930   2.534   1.529   7.691  0.2335 -0.4987  0.4215
   15SAPS  C216 1931   2.473   1.341   7.763  0.1487  0.4723 -0.0693
   15SAPS  H16R 1932   2.556   1.274   7.793  0.4385  1.5725  1.7347
   15SAPS  H16S 1933   2.378   1.288   7.740  1.0868 -1.0913 -0.4937
   15SAPS  C217 1934   2.438   1.427   7.891 -0.0645 -0.2491 -0.0271
   15SAPS  H17R 1935   2.375   1.515   7.868 -1.2367 -1.1238 -0.2615
   15SAPS  H17S 1936   2.538   1.461   7.926 -0.4520  1.2876 -0.3463
   15SAPS  C218 1937   2.375   1.358   8.013  0.4015 -0.0100  0.9189
   15SAPS  H18R 1938   2.425   1.260   8.026  0.3527 -0.0993  0.4501
   15SAPS  H18S 1939   2.269   1.344   7.984  0.3689  0.6610  0.6883
   15SAPS  C219 1940   2.392   1.437   8.146 -0.5922  0.3125 -0.2700
   15SAPS  H19R 1941   2.299   1.420   8.204 -0.5295  1.5619  0.2142
   15SAPS  H19S 1942   2.391   1.546   8.128 -1.1352  0.6239  1.4406
   15SAPS  C220 1943   2.516   1.398   8.224  0.5671 -0.0471  0.0507
   15SAPS  H20R 1944   2.613   1.413   8.171  0.3930  0.2238 -0.1942
   15SAPS  H20S 1945   2.507   1.288   8.228  1.8964 -0.1960 -0.4738
   15SAPS  H20T 1946   2.526   1.434   8.329  1.1607 -0.2626  0.0746
   15SAPS   C33 1947   2.856   1.220   6.721  0.0080 -0.7617 -0.3024
   15SAPS   H3X 1948   2.888   1.116   6.744 -0.5987 -0.8022  0.3939
   15SAPS   H3Y 1949   2.763   1.240   6.778  0.1629  2.3155 -0.9903
   15SAPS   C34 1950   2.959   1.307   6.786 -0.7618  0.1313 -0.1970
   15SAPS   H4X 1951   2.957   1.415   6.757 -0.1439  0.2994  0.3691
   15SAPS   H4Y 1952   3.057   1.270   6.750  0.3502  0.4360  2.3039
   15SAPS   C35 1953   2.960   1.304   6.947  0.0895 -0.4318 -0.1629
   15SAPS   H5X 1954   2.981   1.199   6.980  0.7915 -0.5928 -1.0736
   15SAPS   H5Y 1955   2.873   1.357   6.989  1.7663  2.7440 -0.4071
   15SAPS   C36 1956   3.080   1.379   7.011 -0.5225  0.3311 -0.3086
   15SAPS   H6X 1957   3.091   1.489   6.999  2.2374  0.0648 -0.9865
   15SAPS   H6Y 1958   3.178   1.335   6.983 -0.3462 -0.0967  0.9360
   15SAPS   C37 1959   3.082   1.348   7.167 -0.7305  0.4220  0.3372
   15SAPS   H7X 1960   3.092   1.239   7.187  3.7957  0.5619 -0.1535
   15SAPS   H7Y 1961   2.982   1.374   7.208 -0.6626  0.4754  0.4691
   15SAPS   C38 1962   3.196   1.414   7.247  0.3197 -1.0074  0.0833
   15SAPS   H8X 1963   3.207   1.522   7.223  1.9472 -1.2927 -0.6214
   15SAPS   H8Y 1964   3.291   1.362   7.224 -0.4822 -2.1402 -0.7256
   15SAPS   C39 1965   3.177   1.395   7.398 -0.5480 -0.0051  0.4331
   15SAPS   H9X 1966   3.276   1.434   7.428 -0.3940 -1.1812  1.5241
   15SAPS   H9Y 1967   3.183   1.289   7.431  0.2127 -0.8932 -2.3070
   15SAPS  C310 1968   3.062   1.477   7.453 -0.2953  0.3435  0.1065
   15SAPS  H10X 1969   2.974   1.412   7.431 -0.9531  0.4701  2.1456
   15SAPS  H10Y 1970   3.036   1.560   7.383 -1.3538 -0.4788 -0.5119
   15SAPS  C311 1971   3.076   1.506   7.607 -0.3643  0.4602 -0.2800
   15SAPS  H11X 1972   3.111   1.612   7.609 -1.6215  0.9180 -0.8728
   15SAPS  H11Y 1973   3.146   1.443   7.665  0.4055  0.1927 -1.4665
   15SAPS  C312 1974   2.939   1.512   7.667  0.0160 -0.9078  0.0226
   15SAPS  H12X 1975   2.895   1.410   7.667 -1.5952 -0.2664  1.0163
   15SAPS  H12Y 1976   2.882   1.576   7.597  0.9958 -0.3411 -0.2576
   15SAPS  C313 1977   2.927   1.579   7.802  0.1823 -0.4705  0.0621
   15SAPS  H13X 1978   2.997   1.664   7.819  0.1657 -0.6641  1.1315
   15SAPS  H13Y 1979   2.941   1.497   7.875 -1.0914  0.8738  1.9008
   15SAPS  C314 1980   2.777   1.628   7.827 -0.2003 -0.4498  0.5583
   15SAPS  H14X 1981   2.706   1.549   7.794 -1.3445  0.8951 -0.3046
   15SAPS  H14Y 1982   2.763   1.716   7.761 -1.7629 -2.9519 -2.7329
   15SAPS  C315 1983   2.743   1.659   7.970  0.1244 -1.6218  0.7033
   15SAPS  H15X 1984   2.790   1.580   8.033  1.9432 -1.8802 -0.8779
   15SAPS  H15Y 1985   2.633   1.660   7.984  0.1511  0.2645  0.9871
   15SAPS  C316 1986   2.794   1.802   8.015 -1.1971  0.0359 -0.4118
   15SAPS  H16X 1987   2.738   1.888   7.973 -1.3504 -0.0922 -0.4732
   15SAPS  H16Y 1988   2.895   1.808   7.969 -1.6560  2.9869 -1.2547
   15SAPS  C317 1989   2.810   1.813   8.168 -0.5941  0.3154 -0.5138
   15SAPS  H17X 1990   2.855   1.912   8.195  0.1958 -0.4113  1.0078
   15SAPS  H17Y 1991   2.877   1.733   8.205 -2.8357 -1.5210 -0.2174
   15SAPS  C318 1992   2.667   1.790   8.234  0.3371  0.7264  1.2598
   15SAPS  H18X 1993   2.596   1.854   8.177  1.2808  0.3300 -0.4380
   15SAPS  H18Y 1994   2.643   1.797   8.342 -2.5481 -0.3752  0.7676
   15SAPS  H18Z 1995   2.639   1.685   8.211 -0.6365  1.0889  0.7540
   16SAPS     N 1996   0.844   3.909   6.085 -0.1516 -0.1665 -0.2852
   16SAPS   HN1 1997   0.812   3.913   5.986  1.6187  0.2654 -0.8870
   16SAPS   HN2 1998   0.947   3.901   6.079  0.0614  2.1650 -1.0886
   16SAPS   HN3 1999   0.824   3.818   6.129  2.3847 -0.3991  0.5309
   16SAPS   C12 2000   0.774   4.007   6.182  0.6669  0.6565  0.3261
   16SAPS  H12A 2001   0.806   3.977   6.280  0.5729  1.3242  0.5653
   16SAPS   C13 2002   0.824   4.149   6.162 -0.6542 -0.4275  0.6410
   16SAPS  O13A 2003   0.921   4.169   6.087  0.0724 -0.0847  1.0388
   16SAPS  O13B 2004   0.787   4.231   6.252 -0.4870  0.4415  0.4242
   16SAPS   C11 2005   0.616   3.996   6.166  0.8497 -0.3829  0.6593
   16SAPS  H11A 2006   0.583   4.017   6.062  0.1736  0.6168  1.0641
   16SAPS  H11B 2007   0.580   4.080   6.230  2.9504  1.0931  0.0172
   16SAPS     P 2008   0.446   3.837   6.296  0.2216 -0.1285 -0.4915
   16SAPS   O13 2009   0.343   3.936   6.266 -0.0012 -0.0337 -0.1777
   16SAPS   O14 2010   0.413   3.692   6.291  0.4075 -0.4373  0.8532
   16SAPS   O12 2011   0.569   3.866   6.201 -0.5048  0.4592 -0.2237
   16SAPS   O11 2012   0.503   3.874   6.437 -0.2729 -0.1187 -0.7744
   16SAPS    C1 2013   0.633   3.845   6.484  0.0194 -0.0189 -0.3568
   16SAPS    HA 2014   0.646   3.735   6.495 -0.2742 -0.2678 -2.1440
   16SAPS    HB 2015   0.706   3.896   6.417  1.8697 -1.4544  0.4869
   16SAPS    C2 2016   0.654   3.918   6.620 -0.6578 -0.0813  0.0904
   16SAPS    HS 2017   0.701   4.017   6.605  0.5598 -0.6905 -0.2576
   16SAPS   O21 2018   0.734   3.830   6.711 -0.2039 -0.8480 -0.3073
   16SAPS   C21 2019   0.843   3.888   6.761 -0.8315  0.8599  0.0024
   16SAPS   O22 2020   0.886   3.996   6.729 -0.3641  0.1089 -0.0960
   16SAPS   C22 2021   0.899   3.799   6.882 -0.1868 -0.1764  0.2326
   16SAPS   H2R 2022   0.852   3.699   6.870 -0.1667 -0.3308  1.3913
   16SAPS   H2S 2023   1.006   3.785   6.859 -0.1304 -1.4340  1.1900
   16SAPS    C3 2024   0.518   3.940   6.694 -0.3778 -0.1491 -0.0915
   16SAPS    HX 2025   0.481   3.836   6.706  3.3378 -1.7714 -1.1926
   16SAPS    HY 2026   0.453   3.994   6.622  0.2709 -0.9617 -1.3206
   16SAPS   O31 2027   0.537   3.993   6.829  0.4899  0.4839  0.6460
   16SAPS   C31 2028   0.432   4.060   6.878 -0.3287  0.3267 -0.7148
   16SAPS   O32 2029   0.334   4.092   6.812  1.0941  0.4353 -0.1388
   16SAPS   C32 2030   0.461   4.081   7.035 -0.0873  0.5998  0.5073
   16SAPS   H2X 2031   0.471   3.976   7.070  2.4726  0.4712 -0.4106
   16SAPS   H2Y 2032   0.373   4.130   7.083 -0.2045  1.0989 -0.2093
   16SAPS   C23 2033   0.864   3.873   7.018 -0.1338  0.0416  0.7164
   16SAPS   H3R 2034   0.754   3.892   7.011 -0.0559  0.1909 -0.3063
   16SAPS   H3S 2035   0.921   3.967   7.031  0.1142 -0.1105  0.7460
   16SAPS   C24 2036   0.879   3.794   7.144 -0.3549  0.1737 -0.0429
   16SAPS   H4R 2037   0.982   3.794   7.188 -0.3493 -1.7493  0.0085
   16SAPS   H4S 2038   0.860   3.687   7.124  1.9284 -0.4162  0.6567
   16SAPS   C25 2039   0.789   3.848   7.255  0.0631 -0.5440 -0.5156
   16SAPS   H5R 2040   0.794   3.955   7.279  0.0425 -0.7364  0.3625
   16SAPS   C26 2041   0.706   3.776   7.333 -0.4442 -0.1994  0.3672
   16SAPS   H6R 2042   0.642   3.827   7.406  2.0731 -0.3499  2.8052
   16SAPS   C27 2043   0.685   3.628   7.337 -0.6157  0.1834 -0.4077
   16SAPS   H7R 2044   0.680   3.600   7.444 -0.2010 -1.8611 -0.8889
   16SAPS   H7S 2045   0.779   3.583   7.299  0.8522  2.8290 -0.2009
   16SAPS   C28 2046   0.565   3.579   7.258 -0.0977  0.0306 -0.5296
   16SAPS   H8R 2047   0.589   3.533   7.161  2.1524  1.2741 -0.6393
   16SAPS   C29 2048   0.440   3.610   7.281  0.3363 -0.2797  0.3559
   16SAPS   H9R 2049   0.372   3.574   7.203  0.4726  0.1470  0.0355
   16SAPS  C210 2050   0.383   3.693   7.399 -0.1550  0.0084  0.2777
   16SAPS  H10R 2051   0.355   3.795   7.367 -1.5278 -0.8461 -1.3998
   16SAPS  H10S 2052   0.463   3.712   7.474 -0.0945  0.8685  0.0060
   16SAPS  C211 2053   0.268   3.620   7.463 -0.1812 -0.6776 -0.0023
   16SAPS  H11R 2054   0.214   3.549   7.399 -1.5679 -0.4059  0.8289
   16SAPS  C212 2055   0.232   3.631   7.600  0.5847 -0.9700  0.3424
   16SAPS  H12R 2056   0.149   3.573   7.643  1.1159 -0.4110  2.1873
   16SAPS  C213 2057   0.294   3.721   7.706 -0.0625  0.0280  0.4017
   16SAPS  H13R 2058   0.321   3.816   7.656 -1.4166  0.1410 -0.1408
   16SAPS  H13S 2059   0.394   3.682   7.735  1.1098  1.1286 -1.8868
   16SAPS  C214 2060   0.196   3.744   7.813  0.0596  0.9428 -0.3184
   16SAPS  H14R 2061   0.097   3.772   7.773 -0.4528  0.1238  0.3569
   16SAPS  C215 2062   0.217   3.709   7.944 -0.1545  0.2716  0.0298
   16SAPS  H15R 2063   0.145   3.752   8.015 -0.9430  0.5546 -0.9027
   16SAPS  C216 2064   0.355   3.659   7.984  0.9172 -0.5236 -0.0069
   16SAPS  H16R 2065   0.385   3.578   7.915 -2.7052 -3.5115  1.5413
   16SAPS  H16S 2066   0.346   3.611   8.084 -0.8140 -1.6996 -0.6852
   16SAPS  C217 2067   0.453   3.768   7.999 -0.2086 -0.0071 -0.5895
   16SAPS  H17R 2068   0.433   3.855   7.933  2.0263 -1.3471 -3.2351
   16SAPS  H17S 2069   0.557   3.742   7.971  0.4557  1.4671  0.3892
   16SAPS  C218 2070   0.461   3.818   8.144 -0.3066 -0.6955 -0.6322
   16SAPS  H18R 2071   0.488   3.732   8.208  0.8726 -0.2712 -0.5311
   16SAPS  H18S 2072   0.360   3.854   8.172 -0.1781 -0.3756 -0.5632
   16SAPS  C219 2073   0.560   3.936   8.155 -0.1638  0.9516 -0.0248
   16SAPS  H19R 2074   0.525   4.021   8.091  0.5244 -0.7131 -2.7885
   16SAPS  H19S 2075   0.657   3.896   8.120 -0.7199  0.5565 -1.1609
   16SAPS  C220 2076   0.575   3.979   8.301 -0.3485  0.4605 -0.1619
   16SAPS  H20R 2077   0.618   3.900   8.367  0.7132  1.1345 -0.0303
   16SAPS  H20S 2078   0.478   4.021   8.337  0.2815  0.7950  1.2444
   16SAPS  H20T 2079   0.640   4.069   8.308 -1.2754  1.0478  2.0462
   16SAPS   C33 2080   0.586   4.165   7.068 -0.8638 -0.6103  0.1305
   16SAPS   H3X 2081   0.581   4.269   7.029  0.0210 -0.5949  0.0404
   16SAPS   H3Y 2082   0.676   4.121   7.022 -1.8630 -1.6310 -0.8944
   16SAPS   C34 2083   0.629   4.178   7.221 -0.3852 -0.4206 -0.7434
   16SAPS   H4X 2084   0.625   4.080   7.274 -1.0565 -1.1927 -2.1748
   16SAPS   H4Y 2085   0.549   4.239   7.269  0.1808 -1.1049  1.1516
   16SAPS   C35 2086   0.763   4.246   7.227  0.0744  0.1502  0.0861
   16SAPS   H5X 2087   0.748   4.352   7.198  3.4332  0.5089 -0.7207
   16SAPS   H5Y 2088   0.832   4.206   7.150 -0.8690  0.0869 -0.7512
   16SAPS   C36 2089   0.838   4.218   7.359 -0.0127 -0.4060 -0.4498
   16SAPS   H6X 2090   0.850   4.108   7.370  0.0312 -0.5106 -1.4025
   16SAPS   H6Y 2091   0.778   4.247   7.447 -0.8096  0.4987 -1.2653
   16SAPS   C37 2092   0.987   4.272   7.358  0.4992 -0.1647  0.1543
   16SAPS   H7X 2093   1.036   4.231   7.268 -1.6868 -1.6129 -0.4722
   16SAPS   H7Y 2094   1.044   4.223   7.440 -0.9807 -0.6445  0.9393
   16SAPS   C38 2095   1.009   4.423   7.357  0.6142 -0.6631  0.2272
   16SAPS   H8X 2096   0.940   4.473   7.429  2.4067 -0.0153  1.5808
   16SAPS   H8Y 2097   0.985   4.461   7.256 -2.4475  1.0378  1.4634
   16SAPS   C39 2098   1.149   4.463   7.405  0.3447  0.4393  1.0508
   16SAPS   H9X 2099   1.215   4.413   7.331 -0.9682 -2.4125  1.6385
   16SAPS   H9Y 2100   1.172   4.420   7.505 -0.1379 -1.4478  0.3871
   16SAPS  C310 2101   1.163   4.613   7.409 -0.0890  0.5884 -0.5314
   16SAPS  H10X 2102   1.094   4.656   7.485  2.8153  2.8805  1.0261
   16SAPS  H10Y 2103   1.139   4.665   7.314  3.1821  0.1024 -1.7458
   16SAPS  C311 2104   1.306   4.663   7.442 -0.4762  0.6064  0.3143
   16SAPS  H11X 2105   1.315   4.771   7.467  1.2612  0.2136  1.5716
   16SAPS  H11Y 2106   1.364   4.658   7.348 -0.5650  2.5005  0.1031
   16SAPS  C312 2107   1.381   4.583   7.546 -0.5467  0.5127  0.1013
   16SAPS  H12X 2108   1.485   4.621   7.558 -0.3555 -0.2623  0.9915
   16SAPS  H12Y 2109   1.399   4.481   7.507  0.8281  1.0503 -0.7530
   16SAPS  C313 2110   1.319   4.589   7.683 -0.4927  0.3303 -0.0486
   16SAPS  H13X 2111   1.212   4.558   7.672  0.1151 -2.0798  0.1268
   16SAPS  H13Y 2112   1.319   4.689   7.731  2.0162  0.6373 -0.5705
   16SAPS  C314 2113   1.395   4.490   7.782 -0.5408  0.5761  0.0176
   16SAPS  H14X 2114   1.504   4.490   7.761 -0.5499  1.1163 -0.0460
   16SAPS  H14Y 2115   1.363   4.386   7.762 -0.9819  0.1708  2.5560
   16SAPS  C315 2116   1.359   4.512   7.935 -0.4472 -0.0319 -0.5969
   16SAPS  H15X 2117   1.253   4.484   7.954 -0.3677 -0.8425 -1.2674
   16SAPS  H15Y 2118   1.371   4.620   7.957 -0.7503  0.6330 -3.3529
   16SAPS  C316 2119   1.449   4.439   8.029 -0.1192  0.2498 -0.1023
   16SAPS  H16X 2120   1.548   4.486   8.049 -0.6095  1.4114 -0.3235
   16SAPS  H16Y 2121   1.455   4.336   7.989 -1.4567 -0.7242  2.0522
   16SAPS  C317 2122   1.386   4.423   8.172  0.0701  0.2570  0.0366
   16SAPS  H17X 2123   1.293   4.364   8.159  0.5689 -1.0860  1.9571
   16SAPS  H17Y 2124   1.352   4.520   8.212  0.3041  1.2321 -1.9944
   16SAPS  C318 2125   1.450   4.347   8.286  0.4947  0.0065 -0.7033
   16SAPS  H18X 2126   1.386   4.346   8.377  0.6023  1.3964 -0.5922
   16SAPS  H18Y 2127   1.548   4.393   8.313 -0.4752  1.6520  0.1839
   16SAPS  H18Z 2128   1.471   4.241   8.261  1.6890  0.6135 -2.5213
   17SAPC     N 2129   6.760   2.609  10.475 -0.0934  0.2516 -0.0579
   17SAPC   C12 2130   6.658   2.705  10.416  0.1514 -0.3465  0.4265
   17SAPC  H12A 2131   6.613   2.642  10.340  0.8413 -0.1519 -0.1513
   17SAPC  H12B 2132   6.716   2.772  10.356 -0.4814  2.5573  2.8186
   17SAPC   C13 2133   6.700   2.510  10.568  0.2251 -0.0332 -0.4034
   17SAPC  H13A 2134   6.688   2.560  10.663  1.0068 -1.2306  0.3516
   17SAPC  H13B 2135   6.605   2.472  10.532  0.1371  0.6862 -0.9686
   17SAPC  H13C 2136   6.769   2.432  10.596  1.6014  1.3675  0.3041
   17SAPC   C14 2137   6.834   2.541  10.357 -0.2078  0.4381  0.1514
   17SAPC  H14A 2138   6.916   2.484  10.397 -0.8118  0.1806  1.0673
   17SAPC  H14B 2139   6.767   2.480  10.297  1.0480  1.1610 -2.1109
   17SAPC  H14C 2140   6.876   2.613  10.288  0.5629 -1.7608 -1.8126
   17SAPC   C15 2141   6.867   2.689  10.548 -0.1370 -0.4496  0.6028
   17SAPC  H15A 2142   6.940   2.730  10.479 -0.5379 -1.0637 -0.2133
   17SAPC  H15B 2143   6.835   2.765  10.617  1.7355 -0.7649  1.8895
   17SAPC  H15C 2144   6.925   2.623  10.610  1.4744 -1.7331 -2.0833
   17SAPC   C11 2145   6.565   2.772  10.517 -0.1228  0.5002  0.4519
   17SAPC  H11A 2146   6.514   2.858  10.468 -1.1540  0.0036  0.6279
   17SAPC  H11B 2147   6.621   2.834  10.589  1.0652  0.6262 -0.5528
   17SAPC     P 2148   6.327   2.661  10.514 -0.0856 -0.0930  0.0785
   17SAPC   O13 2149   6.263   2.544  10.565 -0.8846  0.1724  0.1313
   17SAPC   O14 2150   6.245   2.785  10.520  0.3266  0.7634 -0.0370
   17SAPC   O12 2151   6.467   2.683  10.577 -0.6528  0.0187  0.3534
   17SAPC   O11 2152   6.365   2.634  10.358  0.4815  0.7868 -0.0484
   17SAPC    C1 2153   6.332   2.731  10.250 -0.4341  0.5270  0.6080
   17SAPC    HA 2154   6.339   2.836  10.286 -1.0472  0.0673  2.1027
   17SAPC    HB 2155   6.404   2.716  10.166 -2.0106  0.9596 -0.8860
   17SAPC    C2 2156   6.192   2.713  10.182  0.3071 -0.2593 -0.4028
   17SAPC    HS 2157   6.127   2.737  10.269  2.6009 -0.6605  1.5306
   17SAPC   O21 2158   6.173   2.576  10.138 -0.3395  0.0674  0.2805
   17SAPC   C21 2159   6.046   2.540  10.114 -0.3774  0.2861 -0.0742
   17SAPC   O22 2160   5.946   2.605  10.139 -0.6215 -0.0598  0.1608
   17SAPC   C22 2161   6.059   2.400  10.053 -0.9321 -0.3139 -0.0409
   17SAPC   H2R 2162   6.149   2.353  10.098  0.2723  0.4839 -1.5371
   17SAPC   H2S 2163   5.967   2.351  10.092  0.0302 -0.0371  2.8186
   17SAPC    C3 2164   6.169   2.821  10.074  0.0523 -0.6024 -0.1969
   17SAPC    HX 2165   6.193   2.920  10.118 -1.7852 -0.5885  0.8567
   17SAPC    HY 2166   6.063   2.828  10.043  0.4758  0.5263 -1.5169
   17SAPC   O31 2167   6.254   2.801   9.962 -0.0082 -0.1736  0.0853
   17SAPC   C31 2168   6.370   2.868   9.951 -0.6819  0.8338  1.1309
   17SAPC   O32 2169   6.417   2.941  10.038  0.0107 -0.0649  0.4468
   17SAPC   C32 2170   6.439   2.820   9.825 -0.7031  0.4724 -0.3052
   17SAPC   H2X 2171   6.379   2.833   9.732  0.2254  0.2046 -0.9636
   17SAPC   H2Y 2172   6.455   2.711   9.839 -1.5259  0.5670  1.7683
   17SAPC   C23 2173   6.063   2.403   9.900  0.4055  0.5730 -0.1978
   17SAPC   H3R 2174   5.967   2.453   9.876  0.0402  1.1871  2.3201
   17SAPC   H3S 2175   6.055   2.298   9.865  1.0330 -0.0329  1.4011
   17SAPC   C24 2176   6.186   2.462   9.839 -0.2918  0.6518 -0.1202
   17SAPC   H4R 2177   6.201   2.561   9.887 -2.3403  3.4003 -4.5294
   17SAPC   H4S 2178   6.167   2.484   9.732 -0.6599 -0.3349 -0.2668
   17SAPC   C25 2179   6.306   2.366   9.864 -0.8111 -0.5890  0.5070
   17SAPC   H5R 2180   6.315   2.326   9.966 -1.5862 -0.6353  0.5627
   17SAPC   C26 2181   6.373   2.315   9.760  0.0671  0.2879 -0.0636
   17SAPC   H6R 2182   6.446   2.238   9.788  2.0806  2.2424  0.3563
   17SAPC   C27 2183   6.365   2.346   9.612  0.3034 -0.3043  0.4185
   17SAPC   H7R 2184   6.360   2.454   9.587  0.2914 -0.2232  0.7655
   17SAPC   H7S 2185   6.266   2.307   9.579 -1.1087  1.3013  2.4774
   17SAPC   C28 2186   6.473   2.287   9.529  0.8679 -0.0122  0.3313
   17SAPC   H8R 2187   6.574   2.318   9.560  1.6352 -0.9595 -1.1418
   17SAPC   C29 2188   6.460   2.195   9.431 -0.3637 -0.7652 -0.1510
   17SAPC   H9R 2189   6.552   2.168   9.378 -0.8744  1.5205 -2.3761
   17SAPC  C210 2190   6.328   2.141   9.381 -0.3159  0.0489 -0.1483
   17SAPC  H10R 2191   6.277   2.218   9.320 -0.1636  0.1310 -0.1727
   17SAPC  H10S 2192   6.259   2.114   9.464  1.3235 -1.5068  0.7832
   17SAPC  C211 2193   6.338   2.015   9.300 -0.4610 -0.2802 -0.1371
   17SAPC  H11R 2194   6.337   1.928   9.367 -0.0077 -0.2131 -0.0376
   17SAPC  C212 2195   6.345   1.998   9.167  0.4743 -0.3393  0.4501
   17SAPC  H12R 2196   6.362   1.895   9.134  1.2733 -0.2707  0.6177
   17SAPC  C213 2197   6.345   2.115   9.062  0.2210  0.1609 -0.7907
   17SAPC  H13R 2198   6.267   2.189   9.088  0.8840  0.5763  0.0629
   17SAPC  H13S 2199   6.340   2.071   8.960 -1.3114  0.3776 -0.8241
   17SAPC  C214 2200   6.480   2.177   9.074  0.3487 -0.5020 -0.3377
   17SAPC  H14R 2201   6.526   2.173   9.173 -0.9767  0.7801  0.3572
   17SAPC  C215 2202   6.546   2.220   8.972 -0.5163 -0.0545 -1.2883
   17SAPC  H15R 2203   6.637   2.277   9.000 -1.5385  0.9712  0.1205
   17SAPC  C216 2204   6.502   2.221   8.828  0.4151  0.6448 -0.1177
   17SAPC  H16R 2205   6.416   2.291   8.821 -2.0282 -2.2755 -1.6361
   17SAPC  H16S 2206   6.471   2.119   8.798  3.4034 -0.6668  0.8710
   17SAPC  C217 2207   6.613   2.260   8.724  0.3871 -0.4352  0.6863
   17SAPC  H17R 2208   6.567   2.235   8.626  0.9056 -1.4379  0.6845
   17SAPC  H17S 2209   6.707   2.201   8.723  0.3069 -0.5614  0.5274
   17SAPC  C218 2210   6.647   2.410   8.740  0.7303  0.0708  0.2337
   17SAPC  H18R 2211   6.673   2.433   8.846  3.4669 -0.4076 -0.2659
   17SAPC  H18S 2212   6.554   2.463   8.713  0.2106 -1.2810 -0.7617
   17SAPC  C219 2213   6.766   2.448   8.650  0.4054 -0.6091 -0.2714
   17SAPC  H19R 2214   6.844   2.373   8.678 -0.5052 -2.9916 -3.5722
   17SAPC  H19S 2215   6.799   2.552   8.671  1.0624 -0.7903 -0.3572
   17SAPC  C220 2216   6.726   2.438   8.496  0.5355 -0.1292  0.1600
   17SAPC  H20R 2217   6.702   2.335   8.463 -1.3535  0.8489 -1.8217
   17SAPC  H20S 2218   6.811   2.476   8.435  1.1637 -1.1414  0.3819
   17SAPC  H20T 2219   6.649   2.512   8.463  2.1289  1.3327 -0.4514
   17SAPC   C33 2220   6.574   2.893   9.809 -0.1599 -0.2408  0.1432
   17SAPC   H3X 2221   6.636   2.873   9.899 -0.7720  1.4791  0.9824
   17SAPC   H3Y 2222   6.566   3.002   9.793  2.5952  0.3911  2.3609
   17SAPC   C34 2223   6.653   2.817   9.695  0.6738 -0.4494 -0.0392
   17SAPC   H4X 2224   6.649   2.709   9.718  0.9305 -0.8674 -1.8626
   17SAPC   H4Y 2225   6.759   2.847   9.708  0.7572 -1.4093  1.7103
   17SAPC   C35 2226   6.596   2.842   9.550 -1.0923  0.1320  0.0189
   17SAPC   H5X 2227   6.634   2.942   9.520  1.8179  0.5337  4.2404
   17SAPC   H5Y 2228   6.485   2.848   9.545 -1.0369  0.3769 -2.5606
   17SAPC   C36 2229   6.638   2.728   9.456 -0.3114  0.3353 -0.0600
   17SAPC   H6X 2230   6.575   2.636   9.468 -0.6824  0.4203 -1.2689
   17SAPC   H6Y 2231   6.740   2.699   9.488 -0.4364  2.0911  2.2243
   17SAPC   C37 2232   6.638   2.772   9.308 -0.9119 -0.5184 -0.3228
   17SAPC   H7X 2233   6.735   2.816   9.275 -0.1432 -1.6946  0.2911
   17SAPC   H7Y 2234   6.566   2.855   9.295 -0.6165 -0.3942 -1.2301
   17SAPC   C38 2235   6.612   2.658   9.215  0.0159 -0.1693 -0.1190
   17SAPC   H8X 2236   6.511   2.618   9.239  0.7185 -0.4214  2.6863
   17SAPC   H8Y 2237   6.686   2.576   9.233 -1.3582 -1.9153 -1.9023
   17SAPC   C39 2238   6.613   2.697   9.071 -0.8010  0.5731  0.0715
   17SAPC   H9X 2239   6.570   2.608   9.020  0.1156 -0.3661  0.8720
   17SAPC   H9Y 2240   6.718   2.719   9.041 -0.5368  0.5027  0.9090
   17SAPC  C310 2241   6.525   2.814   9.031 -0.1623 -0.0559 -0.1386
   17SAPC  H10X 2242   6.572   2.911   9.058 -2.8278  0.6558  2.4844
   17SAPC  H10Y 2243   6.437   2.813   9.099  1.3548 -1.2447  1.9581
   17SAPC  C311 2244   6.488   2.817   8.880  0.8956  0.8507  0.3504
   17SAPC  H11X 2245   6.428   2.725   8.864  2.4492 -0.5193  1.9492
   17SAPC  H11Y 2246   6.582   2.820   8.821  0.7178  0.4410  0.0389
   17SAPC  C312 2247   6.400   2.941   8.830 -0.3370 -0.6774  0.3969
   17SAPC  H12X 2248   6.462   3.031   8.848 -0.1428 -0.7522  0.1160
   17SAPC  H12Y 2249   6.313   2.955   8.898  0.5231  2.4203  0.9894
   17SAPC  C313 2250   6.347   2.931   8.688  0.8286  0.1953  0.1333
   17SAPC  H13X 2251   6.296   2.834   8.670  0.3667  0.5288 -0.3723
   17SAPC  H13Y 2252   6.434   2.929   8.619  0.1198  1.7133 -0.8454
   17SAPC  C314 2253   6.275   3.057   8.637  0.5147  0.7263 -0.2242
   17SAPC  H14X 2254   6.264   3.047   8.527 -0.6859 -0.1816 -0.0457
   17SAPC  H14Y 2255   6.336   3.148   8.653  1.2103  0.5247 -1.6449
   17SAPC  C315 2256   6.134   3.083   8.692 -0.5776  0.7709 -1.3875
   17SAPC  H15X 2257   6.138   3.113   8.798 -0.8311  0.2398 -1.2240
   17SAPC  H15Y 2258   6.077   2.987   8.689 -1.0459  1.0166 -0.6335
   17SAPC  C316 2259   6.063   3.191   8.618  0.5342 -0.0649  0.8488
   17SAPC  H16X 2260   6.121   3.238   8.536 -1.7844  2.1301  0.3446
   17SAPC  H16Y 2261   6.051   3.274   8.691 -0.4179 -1.1445  1.9538
   17SAPC  C317 2262   5.923   3.149   8.573 -0.1006 -0.4988  0.1635
   17SAPC  H17X 2263   5.869   3.118   8.664  0.5876  0.0812  0.7848
   17SAPC  H17Y 2264   5.940   3.054   8.518  2.8131 -0.4684  0.8424
   17SAPC  C318 2265   5.840   3.249   8.491 -0.1057 -0.2411 -1.2224
   17SAPC  H18X 2266   5.884   3.272   8.392  1.9037 -0.3358 -0.4023
   17SAPC  H18Y 2267   5.739   3.212   8.463  0.0042 -0.5968 -1.1574
   17SAPC  H18Z 2268   5.818   3.341   8.550 -2.7443 -0.0582 -2.3514
   18SAPC     N 2269   2.333   1.508  10.792 -0.4899  0.3672  0.0138
   18SAPC   C12 2270   2.194   1.504  10.732  0.2850 -0.0769  0.5849
   18SAPC  H12A 2271   2.179   1.593  10.673  0.1820  0.9460  2.1238
   18SAPC  H12B 2272   2.120   1.515  10.810  1.4807 -1.1939  1.9276
   18SAPC   C13 2273   2.367   1.645  10.848 -0.2848  0.2642 -0.3106
   18SAPC  H13A 2274   2.469   1.654  10.884 -1.2278  2.2269  2.1294
   18SAPC  H13B 2275   2.358   1.729  10.781 -2.4921  2.0409  2.0148
   18SAPC  H13C 2276   2.310   1.664  10.937  0.9785 -1.4856  0.9428
   18SAPC   C14 2277   2.355   1.410  10.900 -0.1015 -0.2830 -0.3675
   18SAPC  H14A 2278   2.457   1.403  10.933 -0.0369 -0.1507 -0.5398
   18SAPC  H14B 2279   2.285   1.428  10.980 -0.4206 -0.9248 -0.4920
   18SAPC  H14C 2280   2.326   1.315  10.857  1.1532 -0.4891 -0.8018
   18SAPC   C15 2281   2.425   1.487  10.683 -0.3809 -0.3152  0.1824
   18SAPC  H15A 2282   2.401   1.405  10.617 -0.4779 -0.0347 -0.1287
   18SAPC  H15B 2283   2.421   1.576  10.623 -0.5968 -0.2554  0.2863
   18SAPC  H15C 2284   2.525   1.471  10.720 -0.7275 -1.6722  0.6126
   18SAPC   C11 2285   2.146   1.381  10.644 -0.0390  0.0283  0.7212
   18SAPC  H11A 2286   2.036   1.393  10.642 -0.0081  0.4031 -2.2195
   18SAPC  H11B 2287   2.161   1.281  10.691 -1.0054  0.4042  1.8705
   18SAPC     P 2288   2.174   1.506  10.406 -0.1606 -0.3785  0.1588
   18SAPC   O13 2289   2.120   1.626  10.476  0.0199  0.2348 -0.7426
   18SAPC   O14 2290   2.292   1.524  10.323  0.1598 -0.0189 -0.0918
   18SAPC   O12 2291   2.200   1.392  10.512  0.3029 -0.2913 -0.1012
   18SAPC   O11 2292   2.068   1.451  10.307 -0.2851  0.2028  0.3560
   18SAPC    C1 2293   1.948   1.384  10.347 -0.0141 -0.3753  0.7703
   18SAPC    HA 2294   1.964   1.274  10.357  1.6932 -0.2469 -0.1899
   18SAPC    HB 2295   1.908   1.427  10.442 -0.4829  0.9660 -0.0145
   18SAPC    C2 2296   1.838   1.391  10.238 -0.1602  0.0976 -0.2627
   18SAPC    HS 2297   1.747   1.341  10.278 -0.3163 -0.5003 -1.3080
   18SAPC   O21 2298   1.878   1.318  10.116  0.0759 -0.2041 -0.4689
   18SAPC   C21 2299   1.774   1.276  10.042 -0.5550  0.4227 -0.5792
   18SAPC   O22 2300   1.657   1.270  10.085 -0.2053 -0.9132 -0.0414
   18SAPC   C22 2301   1.831   1.233   9.899 -0.0375  0.4740 -0.6992
   18SAPC   H2R 2302   1.866   1.329   9.857 -1.7760  1.9701  1.0295
   18SAPC   H2S 2303   1.909   1.156   9.915 -0.3412  0.0138 -1.3861
   18SAPC    C3 2304   1.800   1.535  10.198  0.5894  0.7533 -0.1873
   18SAPC    HX 2305   1.874   1.577  10.126  0.1088  0.0164 -1.1384
   18SAPC    HY 2306   1.812   1.593  10.292  1.6908 -1.7071  1.3023
   18SAPC   O31 2307   1.669   1.547  10.136  0.0836  0.0230 -0.1251
   18SAPC   C31 2308   1.566   1.536  10.218  0.8670  0.4436 -0.1624
   18SAPC   O32 2309   1.579   1.516  10.336 -0.1764  0.7770 -0.6331
   18SAPC   C32 2310   1.441   1.557  10.145  1.0858  0.2592  0.2310
   18SAPC   H2X 2311   1.371   1.512  10.219  2.8397 -0.0409  1.7844
   18SAPC   H2Y 2312   1.449   1.489  10.058  0.3289  1.7762 -1.0690
   18SAPC   C23 2313   1.728   1.161   9.804 -0.6939  0.0442  0.5937
   18SAPC   H3R 2314   1.680   1.245   9.750 -1.7538 -0.7240  0.3104
   18SAPC   H3S 2315   1.646   1.104   9.852 -0.4564 -0.9454 -0.1310
   18SAPC   C24 2316   1.793   1.069   9.691 -0.0401  0.5944  0.6980
   18SAPC   H4R 2317   1.705   1.033   9.633  0.7646 -2.0946  0.9929
   18SAPC   H4S 2318   1.835   0.982   9.746  1.5035 -0.0138 -1.2926
   18SAPC   C25 2319   1.893   1.140   9.600  0.2433 -0.1105 -0.0222
   18SAPC   H5R 2320   1.982   1.179   9.652  0.9663  0.3015 -1.4966
   18SAPC   C26 2321   1.883   1.180   9.474  0.5735  0.7143 -0.2979
   18SAPC   H6R 2322   1.967   1.236   9.431  0.1362  1.0347 -0.7594
   18SAPC   C27 2323   1.776   1.164   9.369  0.5555  0.2029 -0.0162
   18SAPC   H7R 2324   1.747   1.266   9.337  0.5554  0.4164  0.6396
   18SAPC   H7S 2325   1.682   1.121   9.410  0.9294 -2.4206 -1.6746
   18SAPC   C28 2326   1.824   1.077   9.253 -0.8309 -0.0498  0.3132
   18SAPC   H8R 2327   1.803   0.970   9.259 -0.4476 -0.2715 -1.7063
   18SAPC   C29 2328   1.888   1.127   9.144 -0.4163 -0.1734  0.4127
   18SAPC   H9R 2329   1.925   1.054   9.071  1.8452  0.8391  0.4766
   18SAPC  C210 2330   1.930   1.269   9.114  0.3869  0.3598  0.2539
   18SAPC  H10R 2331   2.028   1.285   9.064  1.1434 -0.7197  1.3249
   18SAPC  H10S 2332   1.948   1.320   9.211 -1.2275  2.0546 -0.2625
   18SAPC  C211 2333   1.834   1.355   9.030  0.3775  0.8158  0.0424
   18SAPC  H11R 2334   1.734   1.376   9.072  0.3422  0.2768  0.2311
   18SAPC  C212 2335   1.848   1.403   8.899  0.8073 -0.0879 -0.5842
   18SAPC  H12R 2336   1.762   1.458   8.857 -0.5702 -0.3736  1.7179
   18SAPC  C213 2337   1.958   1.381   8.798 -0.0191 -0.4324 -0.6312
   18SAPC  H13R 2338   2.014   1.286   8.809  1.7633  0.7008  0.5558
   18SAPC  H13S 2339   2.033   1.462   8.801 -0.0472 -0.3208 -2.2135
   18SAPC  C214 2340   1.905   1.392   8.658 -0.0359 -0.2831 -0.5939
   18SAPC  H14R 2341   1.796   1.393   8.644 -0.3671  4.9604  0.3218
   18SAPC  C215 2342   1.993   1.389   8.559  0.0255  0.2190  1.3677
   18SAPC  H15R 2343   1.952   1.404   8.458  1.6922  1.9842  0.9081
   18SAPC  C216 2344   2.143   1.371   8.569  1.6289 -0.3170 -0.1512
   18SAPC  H16R 2345   2.163   1.296   8.648 -0.4045 -2.2953 -1.3835
   18SAPC  H16S 2346   2.192   1.467   8.594 -1.3398  0.8997  1.4799
   18SAPC  C217 2347   2.199   1.307   8.441  0.7400 -0.4341  0.2055
   18SAPC  H17R 2348   2.310   1.316   8.446  0.6327  0.8099  0.8639
   18SAPC  H17S 2349   2.172   1.359   8.346  0.7836 -1.4826 -0.4006
   18SAPC  C218 2350   2.143   1.164   8.420 -0.0303  1.3849  0.4908
   18SAPC  H18R 2351   2.039   1.176   8.383  0.1057  0.8541 -0.0823
   18SAPC  H18S 2352   2.147   1.099   8.510 -0.9802 -0.6472 -0.8672
   18SAPC  C219 2353   2.229   1.074   8.322  0.5058 -1.0583 -0.3931
   18SAPC  H19R 2354   2.327   1.070   8.374  0.4227  2.2098  0.2122
   18SAPC  H19S 2355   2.251   1.115   8.221  1.9595  0.2327  0.4084
   18SAPC  C220 2356   2.170   0.935   8.320 -0.6334  0.2221  0.4863
   18SAPC  H20R 2357   2.253   0.861   8.314  0.8064  1.8588 -0.5537
   18SAPC  H20S 2358   2.104   0.912   8.233 -2.6729  0.4973  1.8824
   18SAPC  H20T 2359   2.094   0.925   8.400 -0.5277  2.7637  0.9961
   18SAPC   C33 2360   1.399   1.707  10.124  0.3200  0.7988 -0.8084
   18SAPC   H3X 2361   1.401   1.743  10.229  0.3982  0.8068 -0.8130
   18SAPC   H3Y 2362   1.290   1.707  10.102 -0.2731  0.5523  1.8829
   18SAPC   C34 2363   1.476   1.780  10.014  0.1178 -0.7139 -0.6931
   18SAPC   H4X 2364   1.584   1.775  10.042  0.0035 -2.9518 -0.4615
   18SAPC   H4Y 2365   1.442   1.886  10.010  0.0258 -0.7855 -2.6314
   18SAPC   C35 2366   1.459   1.713   9.874  0.2106  0.2800  0.2772
   18SAPC   H5X 2367   1.351   1.692   9.856  0.1494 -1.7649  2.5418
   18SAPC   H5Y 2368   1.514   1.617   9.875 -1.4915 -0.7414  1.0205
   18SAPC   C36 2369   1.511   1.798   9.755 -0.3774  0.5299  0.8728
   18SAPC   H6X 2370   1.603   1.850   9.789  0.0200  0.0471  0.5418
   18SAPC   H6Y 2371   1.429   1.873   9.743 -0.4188  0.1238 -2.3958
   18SAPC   C37 2372   1.512   1.718   9.620 -0.3426  0.5298 -0.2978
   18SAPC   H7X 2373   1.496   1.795   9.541  1.0649 -1.1127 -2.3011
   18SAPC   H7Y 2374   1.424   1.651   9.618  1.1105 -1.4589 -0.4846
   18SAPC   C38 2375   1.651   1.643   9.604  0.3990 -0.2075  0.3298
   18SAPC   H8X 2376   1.667   1.561   9.677  0.1228  2.0389  3.0846
   18SAPC   H8Y 2377   1.726   1.724   9.611  0.5625 -0.2896 -0.3386
   18SAPC   C39 2378   1.685   1.601   9.457  0.9687 -1.0312  0.1886
   18SAPC   H9X 2379   1.625   1.508   9.442 -0.7087  0.0796 -0.2823
   18SAPC   H9Y 2380   1.794   1.583   9.450  1.6127  1.6071  2.1260
   18SAPC  C310 2381   1.642   1.713   9.354  0.1464  0.5663  0.0174
   18SAPC  H10X 2382   1.676   1.814   9.387  1.5873  0.0255  0.2487
   18SAPC  H10Y 2383   1.531   1.717   9.360  0.0612 -0.1249 -0.9067
   18SAPC  C311 2384   1.672   1.672   9.210  0.0078  0.4958 -0.2352
   18SAPC  H11X 2385   1.622   1.575   9.186 -0.0510  0.2726  0.7700
   18SAPC  H11Y 2386   1.782   1.663   9.203  0.0341 -0.9715  1.4271
   18SAPC  C312 2387   1.634   1.783   9.118  0.0498  0.1575  0.1914
   18SAPC  H12X 2388   1.698   1.871   9.144 -1.6796  1.5009  0.0418
   18SAPC  H12Y 2389   1.530   1.816   9.139  0.1882  0.9489 -0.3455
   18SAPC  C313 2390   1.657   1.752   8.969 -0.2120  0.2962  0.3631
   18SAPC  H13X 2391   1.598   1.660   8.947  0.6120 -0.1507 -0.0101
   18SAPC  H13Y 2392   1.757   1.715   8.940 -0.8163 -3.0624  2.0624
   18SAPC  C314 2393   1.599   1.856   8.882 -0.0147  0.3634  0.5087
   18SAPC  H14X 2394   1.611   1.949   8.942 -0.8208 -0.0540  1.3542
   18SAPC  H14Y 2395   1.489   1.851   8.871  0.0974  0.3943 -0.6961
   18SAPC  C315 2396   1.657   1.855   8.743  0.6546 -0.5208 -0.3108
   18SAPC  H15X 2397   1.617   1.765   8.692 -0.0939 -0.0830 -0.5055
   18SAPC  H15Y 2398   1.766   1.872   8.754  0.1709  1.5935  2.0472
   18SAPC  C316 2399   1.616   1.974   8.651 -0.0399 -0.3293  0.3340
   18SAPC  H16X 2400   1.622   2.069   8.708 -0.6127  1.1308 -1.9172
   18SAPC  H16Y 2401   1.511   1.951   8.622 -0.7257  1.9736  0.8541
   18SAPC  C317 2402   1.700   1.992   8.523  0.8936 -0.4951  0.3661
   18SAPC  H17X 2403   1.654   2.071   8.461  1.5456 -2.2742 -2.5763
   18SAPC  H17Y 2404   1.705   1.900   8.461 -0.9039 -0.7606  0.5542
   18SAPC  C318 2405   1.844   2.025   8.550 -0.3577 -0.5320 -0.1410
   18SAPC  H18X 2406   1.886   2.080   8.464 -0.0919  1.6217  1.2969
   18SAPC  H18Y 2407   1.906   1.935   8.571 -1.8892 -0.8391  4.3021
   18SAPC  H18Z 2408   1.852   2.099   8.633  0.7761 -1.2881  0.4521
   19SAPC     N 2409   6.458   1.602  10.682 -0.1113  0.2407  0.2831
   19SAPC   C12 2410   6.483   1.696  10.560 -0.6627 -0.3619  0.9471
   19SAPC  H12A 2411   6.411   1.679  10.481 -0.2583 -1.9009  0.8773
   19SAPC  H12B 2412   6.581   1.674  10.522  0.1546  2.0954  1.4488
   19SAPC   C13 2413   6.321   1.608  10.729 -0.3551  0.1691 -0.7428
   19SAPC  H13A 2414   6.308   1.558  10.823  0.2519  0.4324 -0.5164
   19SAPC  H13B 2415   6.295   1.711  10.749  1.2724  0.4027  0.3491
   19SAPC  H13C 2416   6.247   1.574  10.658  0.1736 -1.3252 -0.6035
   19SAPC   C14 2417   6.476   1.460  10.628  0.1797  0.3609 -0.2778
   19SAPC  H14A 2418   6.413   1.456  10.541  1.5721 -0.5257 -1.2909
   19SAPC  H14B 2419   6.576   1.437  10.595  0.6220 -0.4604  1.4911
   19SAPC  H14C 2420   6.446   1.385  10.699  1.6151 -0.6609 -0.7009
   19SAPC   C15 2421   6.551   1.631  10.790  0.2308 -0.1118 -0.7717
   19SAPC  H15A 2422   6.518   1.579  10.879  1.0232  0.8534  0.1180
   19SAPC  H15B 2423   6.655   1.615  10.766  1.0906 -1.9244  3.2443
   19SAPC  H15C 2424   6.553   1.733  10.826 -1.4522 -0.7642  1.3578
   19SAPC   C11 2425   6.480   1.852  10.584  0.4701  0.3691 -0.6461
   19SAPC  H11A 2426   6.530   1.906  10.500 -0.9357  2.6051 -0.1393
   19SAPC  H11B 2427   6.543   1.870  10.674  0.4259 -0.8053 -0.3635
   19SAPC     P 2428   6.265   1.976  10.482  0.1598  0.0125  0.1906
   19SAPC   O13 2429   6.122   1.989  10.512 -0.0838  0.0196  0.0151
   19SAPC   O14 2430   6.342   2.093  10.440  0.5684 -0.6558 -0.7304
   19SAPC   O12 2431   6.342   1.890  10.589 -0.0907  0.3565 -0.1092
   19SAPC   O11 2432   6.283   1.873  10.364 -0.3076 -0.0243 -0.6594
   19SAPC    C1 2433   6.193   1.760  10.345 -0.2954  0.4823  0.0827
   19SAPC    HA 2434   6.222   1.673  10.407 -0.4224 -0.5040 -1.2128
   19SAPC    HB 2435   6.088   1.783  10.372 -1.5845 -2.9350 -1.4627
   19SAPC    C2 2436   6.190   1.712  10.203  0.3611  0.1886  0.5334
   19SAPC    HS 2437   6.270   1.637  10.181  0.4908  0.5929 -0.4363
   19SAPC   O21 2438   6.201   1.814  10.099  0.1117  0.6792 -0.8739
   19SAPC   C21 2439   6.324   1.852  10.077  0.0587 -0.2395 -0.1141
   19SAPC   O22 2440   6.430   1.806  10.115 -0.7267 -0.1151 -0.1504
   19SAPC   C22 2441   6.319   1.977   9.996  0.0642  0.1648 -0.6387
   19SAPC   H2R 2442   6.277   2.055  10.063 -3.6744 -0.9850 -1.4403
   19SAPC   H2S 2443   6.425   2.002   9.974  1.0928 -2.6047  0.6267
   19SAPC    C3 2444   6.058   1.641  10.178  1.2201  0.7002  0.2648
   19SAPC    HX 2445   5.975   1.713  10.190 -1.2684 -1.8372 -0.6794
   19SAPC    HY 2446   6.051   1.562  10.256  1.5020 -0.5402 -0.9325
   19SAPC   O31 2447   6.040   1.581  10.042  0.3103  0.3049 -0.3688
   19SAPC   C31 2448   5.930   1.497  10.031 -0.2035 -0.7545  0.8782
   19SAPC   O32 2449   5.857   1.467  10.122  0.2920 -0.1510 -0.0297
   19SAPC   C32 2450   5.919   1.434   9.884 -0.4148  0.1895 -0.1512
   19SAPC   H2X 2451   5.983   1.344   9.890  1.6044  1.6163  1.0285
   19SAPC   H2Y 2452   5.984   1.500   9.824 -0.7923 -0.0089 -0.7844
   19SAPC   C23 2453   6.226   1.956   9.876 -0.0972  0.5382 -0.7784
   19SAPC   H3R 2454   6.179   2.055   9.862 -0.0595  0.5167 -1.0512
   19SAPC   H3S 2455   6.138   1.891   9.895 -1.4262  2.5481  0.2434
   19SAPC   C24 2456   6.298   1.900   9.750  0.3410  0.6686  0.3213
   19SAPC   H4R 2457   6.332   1.797   9.772 -1.7188  0.0022  0.5839
   19SAPC   H4S 2458   6.374   1.970   9.708  0.8055  0.7010  1.2059
   19SAPC   C25 2459   6.199   1.903   9.634 -0.2035  0.2474  0.1331
   19SAPC   H5R 2460   6.134   1.992   9.626 -0.2685  0.0772 -1.6189
   19SAPC   C26 2461   6.181   1.802   9.550  0.5572  0.0692 -0.4692
   19SAPC   H6R 2462   6.099   1.815   9.478 -1.3530 -0.7431  1.4523
   19SAPC   C27 2463   6.255   1.673   9.560 -0.3247 -0.0337 -0.4540
   19SAPC   H7R 2464   6.188   1.584   9.559 -1.2090  0.6179 -0.2908
   19SAPC   H7S 2465   6.305   1.657   9.658 -1.0479 -1.9579 -0.3631
   19SAPC   C28 2466   6.352   1.654   9.444  0.4655 -0.1309  0.2161
   19SAPC   H8R 2467   6.457   1.662   9.474  0.1739  0.7140  1.0633
   19SAPC   C29 2468   6.316   1.632   9.321  0.0543  0.3416 -0.3004
   19SAPC   H9R 2469   6.393   1.635   9.243  0.6066  2.1233  0.2706
   19SAPC  C210 2470   6.179   1.611   9.264  0.5868 -0.0143  0.0556
   19SAPC  H10R 2471   6.103   1.636   9.341  0.8610  0.7440  0.0880
   19SAPC  H10S 2472   6.170   1.507   9.226  2.6522 -0.6369  1.0977
   19SAPC  C211 2473   6.157   1.708   9.148 -0.5693  0.1553  0.3569
   19SAPC  H11R 2474   6.143   1.812   9.180 -2.1925  0.5449 -1.4743
   19SAPC  C212 2475   6.136   1.686   9.021  0.3851  0.0728  0.5731
   19SAPC  H12R 2476   6.124   1.771   8.953 -0.2287 -0.3973  0.0848
   19SAPC  C213 2477   6.145   1.552   8.955  0.3923 -0.0663  0.3029
   19SAPC  H13R 2478   6.050   1.535   8.900 -0.0086 -1.8465  1.4616
   19SAPC  H13S 2479   6.127   1.472   9.031  2.5642 -0.9144  0.0016
   19SAPC  C214 2480   6.270   1.533   8.880 -0.3007  0.4386  0.8960
   19SAPC  H14R 2481   6.356   1.492   8.935  0.2182 -0.3199 -0.4390
   19SAPC  C215 2482   6.279   1.536   8.742  0.0700  0.0196  0.2675
   19SAPC  H15R 2483   6.372   1.510   8.691  0.0260 -1.9417  1.1042
   19SAPC  C216 2484   6.153   1.559   8.655 -0.0631  0.1400 -0.1687
   19SAPC  H16R 2485   6.186   1.596   8.556 -1.8611  2.2239 -0.0628
   19SAPC  H16S 2486   6.096   1.639   8.707  2.8215  1.8846  0.5519
   19SAPC  C217 2487   6.065   1.438   8.622  0.7352  0.0824  0.0115
   19SAPC  H17R 2488   5.975   1.470   8.565  0.9809 -1.5955 -1.3683
   19SAPC  H17S 2489   6.022   1.401   8.718  0.6186 -3.7303 -1.3407
   19SAPC  C218 2490   6.138   1.321   8.556 -0.6838  0.7129  0.3404
   19SAPC  H18R 2491   6.064   1.238   8.556 -1.4060  1.3218  1.3471
   19SAPC  H18S 2492   6.220   1.291   8.625  0.2641  1.6386 -0.3483
   19SAPC  C219 2493   6.188   1.338   8.412  0.5009 -0.0971  0.3718
   19SAPC  H19R 2494   6.263   1.262   8.381 -0.7361 -2.8769  3.5866
   19SAPC  H19S 2495   6.234   1.439   8.407  0.3384  0.3227  4.1787
   19SAPC  C220 2496   6.080   1.329   8.308 -0.1824 -0.0304 -0.5022
   19SAPC  H20R 2497   6.129   1.326   8.209  0.2189 -1.2568 -0.2909
   19SAPC  H20S 2498   6.004   1.409   8.320 -2.9253 -2.5765  0.4571
   19SAPC  H20T 2499   6.019   1.238   8.324 -1.5150  1.0121  0.6672
   19SAPC   C33 2500   5.781   1.418   9.822 -0.8230 -0.4429  0.0784
   19SAPC   H3X 2501   5.717   1.506   9.844  0.6413 -0.2138  4.2891
   19SAPC   H3Y 2502   5.728   1.327   9.856 -0.9619 -0.7027 -0.8159
   19SAPC   C34 2503   5.784   1.399   9.669  0.1975  0.3798 -0.5131
   19SAPC   H4X 2504   5.679   1.381   9.637  0.1222 -3.0692  1.2590
   19SAPC   H4Y 2505   5.853   1.318   9.638 -1.9998 -1.4583 -0.8092
   19SAPC   C35 2506   5.818   1.533   9.600  0.2450 -0.5515  0.0752
   19SAPC   H5X 2507   5.925   1.563   9.605  0.0608 -0.0471  1.5081
   19SAPC   H5Y 2508   5.762   1.618   9.646  2.1835  1.2156 -0.6686
   19SAPC   C36 2509   5.772   1.528   9.458  0.5222 -0.2658  0.2272
   19SAPC   H6X 2510   5.664   1.502   9.460 -0.2916  2.6320 -1.1902
   19SAPC   H6Y 2511   5.829   1.459   9.392  0.0061  0.4365 -0.9839
   19SAPC   C37 2512   5.779   1.663   9.389 -0.0715 -0.2362 -0.6691
   19SAPC   H7X 2513   5.887   1.688   9.382  0.7433 -2.4163  2.1057
   19SAPC   H7Y 2514   5.744   1.736   9.465  0.2331 -1.9183  1.1596
   19SAPC   C38 2515   5.692   1.663   9.262 -0.2889  0.1715  0.0045
   19SAPC   H8X 2516   5.593   1.628   9.297 -0.2343 -1.2068 -1.1376
   19SAPC   H8Y 2517   5.725   1.582   9.193 -0.2864 -1.4773  1.8664
   19SAPC   C39 2518   5.684   1.809   9.208  0.9072 -0.1942  0.0678
   19SAPC   H9X 2519   5.788   1.845   9.191  0.4985  0.6778 -0.6861
   19SAPC   H9Y 2520   5.644   1.881   9.282  1.4115  1.1351 -0.8986
   19SAPC  C310 2521   5.610   1.822   9.077  0.8391 -0.3232  0.4569
   19SAPC  H10X 2522   5.505   1.804   9.109  1.4373  1.0350  3.5000
   19SAPC  H10Y 2523   5.632   1.733   9.013 -1.3073 -1.8554  1.7178
   19SAPC  C311 2524   5.625   1.961   9.015  0.5476  0.0987 -0.1380
   19SAPC  H11X 2525   5.615   2.043   9.090 -1.4068 -0.2789  0.0636
   19SAPC  H11Y 2526   5.542   1.987   8.947 -0.4261 -2.6697 -0.1196
   19SAPC  C312 2527   5.759   2.001   8.953  0.3426 -0.7245  0.8099
   19SAPC  H12X 2528   5.759   1.957   8.851  1.0493  0.4292  0.2863
   19SAPC  H12Y 2529   5.848   1.963   9.007  2.4640  0.8120 -1.4168
   19SAPC  C313 2530   5.763   2.153   8.929  0.0423 -0.0170  0.2510
   19SAPC  H13X 2531   5.791   2.215   9.016  0.4957  2.2765 -1.4242
   19SAPC  H13Y 2532   5.658   2.188   8.912 -0.3591 -1.4758 -0.4348
   19SAPC  C314 2533   5.863   2.185   8.818  0.4438 -0.2908  0.0081
   19SAPC  H14X 2534   5.848   2.293   8.798 -1.4579 -0.3515  0.9156
   19SAPC  H14Y 2535   5.828   2.131   8.727 -1.0541 -1.4488  1.2207
   19SAPC  C315 2536   6.013   2.145   8.838  0.2141 -0.1350 -0.1416
   19SAPC  H15X 2537   6.010   2.036   8.857  0.5194  0.3316  3.0687
   19SAPC  H15Y 2538   6.046   2.203   8.926 -0.0984  2.4684 -1.6159
   19SAPC  C316 2539   6.102   2.169   8.719 -0.3630 -0.4910 -0.5529
   19SAPC  H16X 2540   6.044   2.125   8.635 -2.8646 -0.8915  1.2481
   19SAPC  H16Y 2541   6.197   2.114   8.731  0.6504  1.2562 -0.1883
   19SAPC  C317 2542   6.116   2.318   8.683  0.4706 -0.3702  0.7548
   19SAPC  H17X 2543   6.154   2.360   8.778 -0.7986 -1.0491  1.5875
   19SAPC  H17Y 2544   6.017   2.356   8.651  0.4973 -0.2156  0.8573
   19SAPC  C318 2545   6.200   2.342   8.562 -1.1115  0.7082  0.8905
   19SAPC  H18X 2546   6.164   2.280   8.477  1.1443 -0.1020  0.4363
   19SAPC  H18Y 2547   6.298   2.290   8.570 -1.1806 -0.2787 -2.8812
   19SAPC  H18Z 2548   6.225   2.446   8.533  1.0335  0.0085 -0.0132
   20SAPC     N 2549   6.590   6.448  11.108 -0.4028  0.4182 -0.2501
   20SAPC   C12 2550   6.577   6.373  10.974  0.3046 -0.0589 -0.2475
   20SAPC  H12A 2551   6.472   6.388  10.954 -0.1738 -0.0196  2.0651
   20SAPC  H12B 2552   6.585   6.267  10.992 -1.6297 -0.5113 -1.6179
   20SAPC   C13 2553   6.542   6.586  11.077  0.0684 -0.4213 -0.1300
   20SAPC  H13A 2554   6.588   6.617  10.984 -0.9443 -1.7062 -1.0945
   20SAPC  H13B 2555   6.437   6.580  11.055  0.3320 -1.1778 -1.2901
   20SAPC  H13C 2556   6.563   6.655  11.158 -0.9064 -0.2816  0.0137
   20SAPC   C14 2557   6.501   6.377  11.207 -0.5032 -0.4395 -0.0752
   20SAPC  H14A 2558   6.544   6.280  11.228  2.3079  0.8701  0.6501
   20SAPC  H14B 2559   6.496   6.426  11.303  2.7291 -0.1054  0.0163
   20SAPC  H14C 2560   6.401   6.362  11.167 -1.0361 -2.3377  1.7534
   20SAPC   C15 2561   6.735   6.459  11.142 -0.2309  0.1510  0.2525
   20SAPC  H15A 2562   6.775   6.359  11.153 -3.0939 -1.1325 -0.2376
   20SAPC  H15B 2563   6.787   6.505  11.059 -1.4759 -0.9772 -1.1913
   20SAPC  H15C 2564   6.757   6.523  11.227  1.3106 -1.5981  1.2598
   20SAPC   C11 2565   6.661   6.418  10.857  0.4508 -0.1064 -0.5591
   20SAPC  H11A 2566   6.624   6.347  10.780 -1.7760 -0.5381  0.8136
   20SAPC  H11B 2567   6.766   6.385  10.873  0.3479  0.6437  2.1864
   20SAPC     P 2568   6.718   6.668  10.765 -0.3142  0.1728  0.0069
   20SAPC   O13 2569   6.636   6.787  10.772  0.1174 -0.2196 -0.9450
   20SAPC   O14 2570   6.838   6.672  10.855  0.1043  0.5317 -0.4721
   20SAPC   O12 2571   6.635   6.548  10.813  0.1899 -0.7035 -0.2143
   20SAPC   O11 2572   6.754   6.642  10.620  0.1844 -0.1427  0.5496
   20SAPC    C1 2573   6.838   6.541  10.572 -0.7985 -0.1337  1.1216
   20SAPC    HA 2574   6.944   6.573  10.577 -1.1268  0.8074  4.2233
   20SAPC    HB 2575   6.837   6.447  10.631 -4.4581 -0.2547  1.0558
   20SAPC    C2 2576   6.805   6.499  10.424  0.5819  0.3684  0.3573
   20SAPC    HS 2577   6.786   6.595  10.370 -0.0328 -1.1751 -2.3572
   20SAPC   O21 2578   6.695   6.405  10.410  0.0946 -0.1472 -0.0141
   20SAPC   C21 2579   6.624   6.403  10.294 -0.9574 -0.1482 -0.3895
   20SAPC   O22 2580   6.620   6.487  10.210 -0.2368 -0.3441 -0.3209
   20SAPC   C22 2581   6.541   6.271  10.288  0.5882  0.1611 -0.2361
   20SAPC   H2R 2582   6.605   6.188  10.325 -0.3942 -0.6135 -0.2370
   20SAPC   H2S 2583   6.452   6.287  10.353  0.1548 -0.4344 -0.6747
   20SAPC    C3 2584   6.935   6.425  10.370  0.1465 -0.1757  0.0257
   20SAPC    HX 2585   6.957   6.347  10.445  1.5976 -2.0127 -2.1653
   20SAPC    HY 2586   7.023   6.493  10.375  2.4135 -2.8172 -1.2763
   20SAPC   O31 2587   6.917   6.377  10.234  0.5039  0.1787  0.0586
   20SAPC   C31 2588   6.961   6.448  10.130  1.1646  0.2186  0.1901
   20SAPC   O32 2589   7.004   6.559  10.142 -0.1088  0.2937  0.2454
   20SAPC   C32 2590   6.951   6.366  10.000  0.0360 -0.4716  0.1331
   20SAPC   H2X 2591   6.850   6.320   9.992 -0.0793  0.0087 -1.6413
   20SAPC   H2Y 2592   7.031   6.289   9.991  1.4822  0.9142  0.7425
   20SAPC   C23 2593   6.487   6.245  10.145  0.7669 -0.1281 -0.6503
   20SAPC   H3R 2594   6.569   6.254  10.071  0.5860 -3.4860 -1.4319
   20SAPC   H3S 2595   6.409   6.319  10.116  0.7455  0.6928  1.3078
   20SAPC   C24 2596   6.428   6.102  10.146  0.0959  0.4710 -0.7441
   20SAPC   H4R 2597   6.352   6.093  10.066  1.3937  1.0233 -2.0921
   20SAPC   H4S 2598   6.379   6.092  10.245 -0.2612 -0.0945 -0.9718
   20SAPC   C25 2599   6.537   6.002  10.121  0.0491  0.0419  0.2791
   20SAPC   H5R 2600   6.596   5.979  10.211  1.0949 -1.8453 -0.8108
   20SAPC   C26 2601   6.574   5.938  10.005 -0.3130  0.1974 -0.3212
   20SAPC   H6R 2602   6.654   5.865  10.019 -1.8133 -1.5005 -0.2967
   20SAPC   C27 2603   6.517   5.965   9.871  0.2231 -0.7039 -0.3000
   20SAPC   H7R 2604   6.416   6.009   9.886  1.6011  1.8493  2.7801
   20SAPC   H7S 2605   6.507   5.869   9.817 -1.8034 -1.3527  1.1188
   20SAPC   C28 2606   6.596   6.072   9.798  0.1195 -0.3908  0.2100
   20SAPC   H8R 2607   6.664   6.131   9.862 -0.1983 -0.9130  1.0347
   20SAPC   C29 2608   6.583   6.097   9.665  0.4415 -0.2870  0.6859
   20SAPC   H9R 2609   6.647   6.171   9.615  0.2411  0.1840  1.1197
   20SAPC  C210 2610   6.485   6.034   9.575  0.2569 -1.0666  0.2191
   20SAPC  H10R 2611   6.430   5.953   9.627 -0.8328 -0.5373 -0.0935
   20SAPC  H10S 2612   6.542   5.985   9.492  0.5738 -0.3058 -0.0240
   20SAPC  C211 2613   6.374   6.118   9.517 -0.1952 -0.1251 -0.2120
   20SAPC  H11R 2614   6.328   6.195   9.581 -0.2776 -0.4628  0.1314
   20SAPC  C212 2615   6.326   6.102   9.395  0.1210  0.4385  0.2930
   20SAPC  H12R 2616   6.246   6.171   9.364  0.6889  0.5663 -0.9540
   20SAPC  C213 2617   6.366   5.994   9.294  0.1112  0.1945 -0.5497
   20SAPC  H13R 2618   6.269   5.957   9.256  0.4425 -0.5542 -0.6809
   20SAPC  H13S 2619   6.416   5.909   9.346 -3.7364 -0.9681  1.6220
   20SAPC  C214 2620   6.448   6.047   9.177  0.4006  0.1411  0.0766
   20SAPC  H14R 2621   6.546   6.091   9.202  1.4582 -0.9614 -1.8606
   20SAPC  C215 2622   6.410   6.070   9.046 -0.3560  0.5824 -0.0494
   20SAPC  H15R 2623   6.480   6.106   8.970  0.0931  0.1839  0.1697
   20SAPC  C216 2624   6.273   6.042   8.994 -0.4112 -0.0618 -0.2164
   20SAPC  H16R 2625   6.215   5.953   9.027 -1.2917  1.5799  3.0520
   20SAPC  H16S 2626   6.279   6.041   8.883 -1.1069  0.8585 -0.2689
   20SAPC  C217 2627   6.176   6.153   9.029  0.0720 -0.2478  0.4409
   20SAPC  H17R 2628   6.233   6.248   9.035  0.6591 -0.4042 -1.7455
   20SAPC  H17S 2629   6.145   6.147   9.136 -2.5172  0.2979 -0.2089
   20SAPC  C218 2630   6.063   6.171   8.930 -0.0588  0.2981 -0.1516
   20SAPC  H18R 2631   6.008   6.076   8.912  0.6808 -0.3118  0.7360
   20SAPC  H18S 2632   6.108   6.174   8.828  0.9560 -2.3531  0.1387
   20SAPC  C219 2633   5.979   6.293   8.957  0.8412  0.2431  0.2354
   20SAPC  H19R 2634   5.907   6.304   8.874  3.9233 -1.4228 -2.9191
   20SAPC  H19S 2635   6.040   6.387   8.961  1.2449 -0.0318  3.0541
   20SAPC  C220 2636   5.897   6.297   9.084 -0.0496 -0.0794  0.9682
   20SAPC  H20R 2637   5.944   6.256   9.176 -1.9809 -1.2787  1.4755
   20SAPC  H20S 2638   5.805   6.236   9.071 -0.4220  0.7629 -0.4975
   20SAPC  H20T 2639   5.857   6.401   9.086 -0.0810 -0.0778  2.8592
   20SAPC   C33 2640   6.973   6.446   9.869 -0.1158  0.3353  0.3791
   20SAPC   H3X 2641   7.074   6.490   9.859 -0.7749  2.1168  1.1085
   20SAPC   H3Y 2642   6.895   6.525   9.860 -1.1557 -0.8341 -1.5588
   20SAPC   C34 2643   6.958   6.352   9.742  0.4409  0.1596  0.5890
   20SAPC   H4X 2644   6.851   6.322   9.744 -0.0718  1.7890 -0.7688
   20SAPC   H4Y 2645   7.024   6.262   9.743  0.6142  0.2435  2.9649
   20SAPC   C35 2646   6.978   6.425   9.606 -0.2942 -0.4025 -0.4836
   20SAPC   H5X 2647   7.079   6.471   9.610 -1.2677  1.8167  1.7763
   20SAPC   H5Y 2648   6.908   6.510   9.624 -0.7832 -1.2993  2.4275
   20SAPC   C36 2649   6.942   6.332   9.494 -0.3219  0.1194  0.4682
   20SAPC   H6X 2650   6.926   6.399   9.407  2.9545 -1.9327 -1.9760
   20SAPC   H6Y 2651   6.839   6.293   9.513 -0.1992 -0.9333 -0.8033
   20SAPC   C37 2652   7.044   6.228   9.452  0.6186  0.3881  0.6054
   20SAPC   H7X 2653   7.069   6.183   9.551 -0.0998  2.2390  1.6796
   20SAPC   H7Y 2654   7.126   6.278   9.397 -0.2097  3.7408  2.1650
   20SAPC   C38 2655   6.978   6.114   9.365 -0.0439 -0.0517 -0.3545
   20SAPC   H8X 2656   6.897   6.074   9.429  0.8430  1.6401  1.9827
   20SAPC   H8Y 2657   7.060   6.040   9.350  0.8926  0.6188  1.1449
   20SAPC   C39 2658   6.909   6.160   9.239 -0.3696  0.0664  0.5215
   20SAPC   H9X 2659   6.995   6.193   9.177 -1.7190  2.1160 -0.3744
   20SAPC   H9Y 2660   6.843   6.248   9.251  1.6437  1.6206  0.8344
   20SAPC  C310 2661   6.841   6.043   9.165  0.1120 -0.3622  0.2323
   20SAPC  H10X 2662   6.750   6.033   9.228  0.3349  1.3270  0.8850
   20SAPC  H10Y 2663   6.911   5.956   9.167  0.1787 -0.3027  0.9922
   20SAPC  C311 2664   6.804   6.072   9.019 -0.0697 -0.3574 -0.0090
   20SAPC  H11X 2665   6.897   6.094   8.962 -1.5700  0.1993 -2.3758
   20SAPC  H11Y 2666   6.740   6.163   9.010 -1.8604 -1.6311 -0.8392
   20SAPC  C312 2667   6.745   5.957   8.941 -1.5957  0.1397  0.5749
   20SAPC  H12X 2668   6.641   5.950   8.980 -0.2004 -0.7832  4.6052
   20SAPC  H12Y 2669   6.797   5.866   8.976  0.8124  2.2283  2.8444
   20SAPC  C313 2670   6.744   5.964   8.790 -0.2205  0.2451  0.1693
   20SAPC  H13X 2671   6.846   5.953   8.746 -0.6074  3.4721 -1.8388
   20SAPC  H13Y 2672   6.718   6.070   8.770 -0.1083  0.4553  1.0600
   20SAPC  C314 2673   6.645   5.867   8.728 -0.1986 -0.0945 -0.2741
   20SAPC  H14X 2674   6.549   5.887   8.781  1.0273 -1.1593  2.5242
   20SAPC  H14Y 2675   6.684   5.769   8.764 -0.6548  0.0416  0.6113
   20SAPC  C315 2676   6.636   5.883   8.579  0.4641  0.0078  0.6293
   20SAPC  H15X 2677   6.736   5.863   8.534  0.4160 -1.1748  0.9973
   20SAPC  H15Y 2678   6.609   5.988   8.556 -3.7461 -0.2506  3.3352
   20SAPC  C316 2679   6.533   5.787   8.524  0.2447  0.1184  0.6035
   20SAPC  H16X 2680   6.433   5.816   8.561  0.2658 -1.0670  1.6266
   20SAPC  H16Y 2681   6.563   5.687   8.560  1.3113 -0.1453 -0.8741
   20SAPC  C317 2682   6.518   5.796   8.368  0.2292 -0.5120 -0.3219
   20SAPC  H17X 2683   6.621   5.795   8.325 -0.2308  2.0426 -1.7257
   20SAPC  H17Y 2684   6.484   5.900   8.350 -0.9577 -0.8288  0.0194
   20SAPC  C318 2685   6.423   5.691   8.309  0.2892 -0.2388 -0.3504
   20SAPC  H18X 2686   6.332   5.700   8.371 -0.1681  0.0481 -1.0511
   20SAPC  H18Y 2687   6.466   5.589   8.319  1.5719  0.5331  3.6423
   20SAPC  H18Z 2688   6.405   5.697   8.199 -1.4065  1.0340 -0.0423
   21SAPC     N 2689   1.724   5.583  10.539 -0.0913  0.2826  0.5417
   21SAPC   C12 2690   1.709   5.692  10.643 -0.9750 -1.5252  0.4131
   21SAPC  H12A 2691   1.644   5.769  10.605 -1.8381 -3.1713 -1.6052
   21SAPC  H12B 2692   1.807   5.731  10.667 -2.1663  1.6336  0.5849
   21SAPC   C13 2693   1.797   5.623  10.412 -0.1400 -0.3476  0.1733
   21SAPC  H13A 2694   1.828   5.541  10.349 -1.4584  1.1938 -2.6296
   21SAPC  H13B 2695   1.742   5.690  10.348 -0.5822 -0.6305  0.2558
   21SAPC  H13C 2696   1.882   5.684  10.439  1.1368 -1.2996 -1.5485
   21SAPC   C14 2697   1.804   5.477  10.593 -0.3901  0.1730  0.4639
   21SAPC  H14A 2698   1.769   5.432  10.685 -1.4594 -0.5548 -0.2731
   21SAPC  H14B 2699   1.812   5.389  10.531  0.2256  1.5710 -1.5339
   21SAPC  H14C 2700   1.904   5.513  10.613  0.2757 -1.0318 -0.5496
   21SAPC   C15 2701   1.599   5.528  10.483 -0.5473  0.7421  0.7636
   21SAPC  H15A 2702   1.527   5.485  10.552  0.8460 -2.3174  0.4640
   21SAPC  H15B 2703   1.548   5.606  10.428  0.7300  0.1087 -1.4463
   21SAPC  H15C 2704   1.624   5.448  10.415 -0.2807  2.2100 -0.9202
   21SAPC   C11 2705   1.634   5.652  10.765  0.1035  0.0967 -0.0057
   21SAPC  H11A 2706   1.619   5.734  10.838 -2.5114 -0.0258 -0.3246
   21SAPC  H11B 2707   1.693   5.573  10.818 -1.6859  0.8173  3.3682
   21SAPC     P 2708   1.384   5.692  10.713 -0.1702  0.3207  0.4346
   21SAPC   O13 2709   1.292   5.612  10.633  0.7891 -0.2893 -0.4741
   21SAPC   O14 2710   1.338   5.734  10.846 -0.2246  0.0696  0.3092
   21SAPC   O12 2711   1.501   5.601  10.737 -1.0076 -0.1971  0.7182
   21SAPC   O11 2712   1.452   5.818  10.648  0.5829  0.2739  0.5632
   21SAPC    C1 2713   1.384   5.935  10.619  0.4813 -0.6778 -0.4985
   21SAPC    HA 2714   1.328   5.969  10.709 -0.4379  0.9708 -1.6484
   21SAPC    HB 2715   1.462   6.012  10.602 -1.3307  1.5653  0.7929
   21SAPC    C2 2716   1.285   5.927  10.502  0.0950  0.0303 -0.1306
   21SAPC    HS 2717   1.189   5.902  10.553  0.7909 -3.0234 -0.1324
   21SAPC   O21 2718   1.328   5.818  10.418 -0.2952 -0.2991 -0.1985
   21SAPC   C21 2719   1.232   5.750  10.369 -0.4818  0.4905 -0.0679
   21SAPC   O22 2720   1.116   5.776  10.375  0.1376  0.0557 -0.6261
   21SAPC   C22 2721   1.300   5.635  10.296 -0.3472 -0.2597 -0.3959
   21SAPC   H2R 2722   1.410   5.645  10.295 -0.1426 -1.6644  1.5528
   21SAPC   H2S 2723   1.267   5.542  10.347 -1.3973  0.0601 -0.4710
   21SAPC    C3 2724   1.280   6.063  10.430  0.2648 -0.2750 -0.6959
   21SAPC    HX 2725   1.378   6.086  10.383  1.1517  3.1773  2.3385
   21SAPC    HY 2726   1.258   6.145  10.502  0.3386 -2.2177  1.6660
   21SAPC   O31 2727   1.168   6.055  10.345 -0.3978 -0.0390  0.2282
   21SAPC   C31 2728   1.194   6.052  10.217  0.3668  0.3077  0.0448
   21SAPC   O32 2729   1.304   6.073  10.163 -0.3954 -0.5321  0.0557
   21SAPC   C32 2730   1.062   6.031  10.135  0.1529  0.1641 -0.0308
   21SAPC   H2X 2731   1.039   6.132  10.097  2.0810  1.2954  1.6373
   21SAPC   H2Y 2732   0.997   5.992  10.216 -2.2627  0.2905 -1.7963
   21SAPC   C23 2733   1.243   5.616  10.151  0.7030  0.1282 -0.7448
   21SAPC   H3R 2734   1.309   5.533  10.119 -0.2635 -1.4387  1.1417
   21SAPC   H3S 2735   1.262   5.706  10.088 -1.3912  0.5131 -0.9051
   21SAPC   C24 2736   1.097   5.563  10.146 -0.6687 -0.4537 -0.7729
   21SAPC   H4R 2737   1.052   5.606  10.054 -0.8668  1.5459  0.2096
   21SAPC   H4S 2738   1.041   5.606  10.231 -0.0405 -2.6221  0.8184
   21SAPC   C25 2739   1.067   5.416  10.157 -0.1099  0.2386  0.4922
   21SAPC   H5R 2740   1.049   5.374  10.257  0.1370 -0.6307  0.1838
   21SAPC   C26 2741   1.046   5.329  10.056 -0.6635  0.7376 -0.5624
   21SAPC   H6R 2742   1.020   5.227  10.089  2.5821  1.0261  4.0432
   21SAPC   C27 2743   1.039   5.347   9.904 -0.2329  0.6248 -0.2592
   21SAPC   H7R 2744   1.026   5.453   9.876  1.6814  1.0759  0.4146
   21SAPC   H7S 2745   0.959   5.286   9.857  0.7270 -1.6139  0.8155
   21SAPC   C28 2746   1.169   5.294   9.845 -0.0806 -1.0285 -0.2942
   21SAPC   H8R 2747   1.241   5.270   9.925  0.3228  1.0963  0.0460
   21SAPC   C29 2748   1.190   5.280   9.713 -0.4881 -0.8909  0.7107
   21SAPC   H9R 2749   1.288   5.280   9.664 -0.6076  1.5944  0.3386
   21SAPC  C210 2750   1.085   5.324   9.609  0.4358 -0.2805 -0.8712
   21SAPC  H10R 2751   1.109   5.426   9.573 -1.4784  0.6718  0.3796
   21SAPC  H10S 2752   0.985   5.339   9.654  0.2282  1.3641 -1.7942
   21SAPC  C211 2753   1.073   5.219   9.501 -0.0024 -0.3746  0.6662
   21SAPC  H11R 2754   1.096   5.121   9.546 -1.4222  0.2195  2.8220
   21SAPC  C212 2755   1.049   5.244   9.365 -0.3661  0.0045  0.1716
   21SAPC  H12R 2756   1.023   5.155   9.306  1.9976  0.0000 -0.9934
   21SAPC  C213 2757   1.024   5.369   9.290 -0.1342 -0.1902  0.1997
   21SAPC  H13R 2758   1.057   5.451   9.358  1.4676 -0.0690 -0.6689
   21SAPC  H13S 2759   0.916   5.385   9.266  0.3412  0.8391 -1.3639
   21SAPC  C214 2760   1.120   5.368   9.175  0.1035  0.9061  0.3421
   21SAPC  H14R 2761   1.227   5.358   9.194  1.0522  2.5444 -3.1902
   21SAPC  C215 2762   1.095   5.374   9.042 -0.0360 -1.3716 -0.0865
   21SAPC  H15R 2763   1.182   5.353   8.978  0.9733  1.4878  0.1988
   21SAPC  C216 2764   0.964   5.381   8.967  0.1501 -0.1587  0.7349
   21SAPC  H16R 2765   0.954   5.475   8.908 -1.8230 -1.2312 -0.7547
   21SAPC  H16S 2766   0.875   5.398   9.031  1.2489  1.1420  2.0206
   21SAPC  C217 2767   0.921   5.259   8.880  0.3346  0.1579 -0.7312
   21SAPC  H17R 2768   0.997   5.262   8.799  2.3422 -0.0002  1.0430
   21SAPC  H17S 2769   0.820   5.271   8.837 -1.1183  1.2436  2.6806
   21SAPC  C218 2770   0.934   5.130   8.964  0.4763  0.0828  0.9353
   21SAPC  H18R 2771   0.861   5.123   9.047  2.1937 -1.3224  2.4001
   21SAPC  H18S 2772   1.031   5.126   9.018 -0.6515 -1.4644  2.9787
   21SAPC  C219 2773   0.934   5.005   8.868  0.2337  0.0120  0.5523
   21SAPC  H19R 2774   0.975   4.919   8.925  2.1591 -0.4593 -1.4244
   21SAPC  H19S 2775   1.012   5.021   8.790 -1.2290 -0.2745 -1.0203
   21SAPC  C220 2776   0.796   4.989   8.799  0.1305  0.1023 -0.0765
   21SAPC  H20R 2777   0.721   4.970   8.878 -0.5068 -1.1878 -0.9494
   21SAPC  H20S 2778   0.791   4.895   8.740  0.1005 -1.1783  1.8602
   21SAPC  H20T 2779   0.761   5.077   8.742  1.2720 -1.1066 -2.8437
   21SAPC   C33 2780   1.080   5.926  10.020  0.0800 -0.2792  0.0327
   21SAPC   H3X 2781   1.073   5.822  10.058 -2.9557 -0.2093 -0.1023
   21SAPC   H3Y 2782   1.184   5.945   9.985  0.5305  1.2551  1.9868
   21SAPC   C34 2783   0.987   5.943   9.904  0.6298  0.6450 -0.2099
   21SAPC   H4X 2784   0.996   6.046   9.863 -1.4068  0.8122 -0.3415
   21SAPC   H4Y 2785   0.880   5.937   9.932  0.0044 -0.2349 -2.5387
   21SAPC   C35 2786   0.994   5.836   9.799  0.1198  0.8328 -0.1115
   21SAPC   H5X 2787   0.915   5.839   9.721  0.4999  2.4095 -0.4686
   21SAPC   H5Y 2788   1.000   5.738   9.850  2.5211  1.3903  0.8156
   21SAPC   C36 2789   1.118   5.849   9.716 -0.0014  1.2034 -0.5626
   21SAPC   H6X 2790   1.196   5.797   9.775 -0.8918  1.2404  0.6818
   21SAPC   H6Y 2791   1.160   5.952   9.704  0.0082  1.5100  1.5663
   21SAPC   C37 2792   1.112   5.782   9.576  0.9735  0.1789 -0.1084
   21SAPC   H7X 2793   1.021   5.820   9.526 -1.9239 -2.9504  2.2824
   21SAPC   H7Y 2794   1.083   5.675   9.586 -1.0935  0.8156  1.4669
   21SAPC   C38 2795   1.243   5.797   9.497 -0.3100 -0.5487 -0.0490
   21SAPC   H8X 2796   1.324   5.767   9.567 -1.6927  1.2014  2.4533
   21SAPC   H8Y 2797   1.262   5.904   9.471  2.2958 -0.4094  2.0036
   21SAPC   C39 2798   1.243   5.707   9.360 -0.9023  0.3658  0.2527
   21SAPC   H9X 2799   1.140   5.725   9.320  0.4000  3.2855 -2.1613
   21SAPC   H9Y 2800   1.257   5.602   9.394 -0.1961  0.5595  0.5617
   21SAPC  C310 2801   1.332   5.753   9.242  0.4847  0.8656 -0.2103
   21SAPC  H10X 2802   1.420   5.685   9.247 -1.0247 -1.1305  0.9377
   21SAPC  H10Y 2803   1.353   5.862   9.249  1.3892  0.7096 -0.3591
   21SAPC  C311 2804   1.274   5.736   9.093 -0.0910 -0.3458  0.2475
   21SAPC  H11X 2805   1.183   5.799   9.091  0.1874  0.0481 -1.0422
   21SAPC  H11Y 2806   1.258   5.627   9.082 -1.1487 -0.1655 -0.0491
   21SAPC  C312 2807   1.374   5.782   8.995 -0.4245 -0.5787 -0.2646
   21SAPC  H12X 2808   1.461   5.715   9.005  0.2270 -0.2065 -2.7149
   21SAPC  H12Y 2809   1.404   5.887   9.014  2.1475 -1.3808  0.4493
   21SAPC  C313 2810   1.346   5.758   8.852  0.2228 -0.7284  0.3578
   21SAPC  H13X 2811   1.260   5.822   8.826 -0.4410 -1.4710  0.6909
   21SAPC  H13Y 2812   1.307   5.654   8.855 -1.4531 -0.3317 -2.7894
   21SAPC  C314 2813   1.471   5.770   8.759 -0.2248 -0.1280 -0.4429
   21SAPC  H14X 2814   1.449   5.705   8.672 -2.4520  1.9282 -1.5369
   21SAPC  H14Y 2815   1.565   5.727   8.800 -0.3642  0.1473  0.1811
   21SAPC  C315 2816   1.487   5.897   8.678  0.2332  1.1630  0.2925
   21SAPC  H15X 2817   1.509   5.984   8.744  0.1024  0.5178  1.2159
   21SAPC  H15Y 2818   1.392   5.915   8.623  1.4974  2.7584 -1.4998
   21SAPC  C316 2819   1.607   5.874   8.580 -0.0127  0.3367 -0.0149
   21SAPC  H16X 2820   1.582   5.798   8.502  2.3825 -0.5463  0.0180
   21SAPC  H16Y 2821   1.678   5.835   8.655 -0.6296  1.0144  0.9420
   21SAPC  C317 2822   1.660   6.003   8.523 -0.3307  0.5675 -0.2126
   21SAPC  H17X 2823   1.754   5.976   8.471 -2.0791 -2.3223 -2.1441
   21SAPC  H17Y 2824   1.675   6.066   8.614 -1.3968 -1.6124  1.5631
   21SAPC  C318 2825   1.564   6.085   8.431  0.8438  0.3880  0.0298
   21SAPC  H18X 2826   1.468   6.107   8.482  1.5342 -0.4628  1.7941
   21SAPC  H18Y 2827   1.543   6.030   8.336 -0.6859  2.0917 -0.6699
   21SAPC  H18Z 2828   1.604   6.187   8.414  0.6381  0.3554 -0.6904
   22SAPC     N 2829   0.198   4.694  11.171  0.5407 -0.0641 -0.3503
   22SAPC   C12 2830   0.312   4.699  11.069  0.8490 -0.3991 -0.0921
   22SAPC  H12A 2831   0.320   4.603  11.020 -0.5128 -0.0332 -1.1011
   22SAPC  H12B 2832   0.407   4.708  11.119  0.2246 -0.4111  1.1319
   22SAPC   C13 2833   0.211   4.574  11.262 -0.1197  0.4996 -0.2065
   22SAPC  H13A 2834   0.118   4.558  11.314  0.0393  0.5502  0.1013
   22SAPC  H13B 2835   0.245   4.486  11.209  0.5050 -0.1872  1.2476
   22SAPC  H13C 2836   0.279   4.590  11.345  0.2905  0.9803 -0.6291
   22SAPC   C14 2837   0.174   4.824  11.247  0.0875  0.1538 -0.4928
   22SAPC  H14A 2838   0.105   4.816  11.330 -1.3576  1.7284 -1.4751
   22SAPC  H14B 2839   0.266   4.863  11.287 -1.2886  2.1500  0.8952
   22SAPC  H14C 2840   0.129   4.901  11.186 -0.8160  0.7539  0.8842
   22SAPC   C15 2841   0.069   4.667  11.087  0.1064 -0.7063  0.2901
   22SAPC  H15A 2842  -0.016   4.695  11.147 -0.6836  0.5285 -1.3167
   22SAPC  H15B 2843   0.068   4.713  10.989  0.5879 -0.2940  0.4728
   22SAPC  H15C 2844   0.058   4.561  11.069 -0.2941 -0.0885 -4.1181
   22SAPC   C11 2845   0.306   4.810  10.964 -0.1946  0.4229 -0.1608
   22SAPC  H11A 2846   0.401   4.818  10.907  1.7235 -1.3665  2.5155
   22SAPC  H11B 2847   0.291   4.908  11.013  2.0664  0.0276  1.4688
   22SAPC     P 2848   0.234   4.674  10.755 -0.0496 -0.2576  0.1562
   22SAPC   O13 2849   0.326   4.570  10.815  0.0481 -0.0041 -0.4293
   22SAPC   O14 2850   0.110   4.630  10.686  0.1161 -0.4995 -0.2233
   22SAPC   O12 2851   0.205   4.778  10.874 -0.0423 -0.7065 -0.4975
   22SAPC   O11 2852   0.312   4.754  10.649 -0.5371  0.8351 -0.0833
   22SAPC    C1 2853   0.290   4.890  10.608 -0.0449  0.0715 -0.2079
   22SAPC    HA 2854   0.232   4.946  10.685 -0.6673  0.9289 -1.2723
   22SAPC    HB 2855   0.384   4.942  10.577 -0.0277 -1.3936 -2.9712
   22SAPC    C2 2856   0.198   4.890  10.482 -0.4672 -0.0300 -0.1981
   22SAPC    HS 2857   0.109   4.829  10.509 -0.0596  0.2036  1.7883
   22SAPC   O21 2858   0.268   4.824  10.369  0.0628 -0.1698  0.5081
   22SAPC   C21 2859   0.193   4.777  10.263 -0.3700 -0.2845  0.3057
   22SAPC   O22 2860   0.073   4.784  10.249  0.0593  0.0601 -0.2420
   22SAPC   C22 2861   0.287   4.726  10.151 -0.7448 -0.1139  0.5931
   22SAPC   H2R 2862   0.384   4.779  10.162  0.5227 -2.1911  0.0374
   22SAPC   H2S 2863   0.313   4.622  10.183  0.7665  0.1939  0.4603
   22SAPC    C3 2864   0.160   5.038  10.460  0.5099  0.8877 -0.2406
   22SAPC    HX 2865   0.249   5.092  10.421  1.2637 -0.5006 -0.5285
   22SAPC    HY 2866   0.129   5.081  10.558 -1.4441 -0.6556 -0.1179
   22SAPC   O31 2867   0.037   5.056  10.380 -0.5095 -0.1818 -0.0830
   22SAPC   C31 2868   0.048   5.092  10.262  0.1371 -0.0058  0.2843
   22SAPC   O32 2869   0.149   5.100  10.194 -0.3356  0.2565  0.0348
   22SAPC   C32 2870  -0.083   5.153  10.212  0.1369  0.1249 -0.4114
   22SAPC   H2X 2871  -0.070   5.261  10.189 -0.1408  0.4010  0.6892
   22SAPC   H2Y 2872  -0.162   5.138  10.289  1.1287 -1.5908  0.3407
   22SAPC   C23 2873   0.228   4.713  10.005  0.0706 -0.4812 -1.0469
   22SAPC   H3R 2874   0.169   4.806   9.988  1.0357  0.1319 -1.1376
   22SAPC   H3S 2875   0.155   4.630  10.015 -0.5555 -0.0290 -1.7799
   22SAPC   C24 2876   0.330   4.674   9.894  0.0792  0.4798 -0.0477
   22SAPC   H4R 2877   0.344   4.566   9.920 -0.9875  0.6971  1.5338
   22SAPC   H4S 2878   0.422   4.732   9.917  0.5856 -0.9651  1.9105
   22SAPC   C25 2879   0.275   4.710   9.755 -0.1068  0.2215 -0.1591
   22SAPC   H5R 2880   0.214   4.801   9.758  0.3244  0.4930  0.4822
   22SAPC   C26 2881   0.286   4.638   9.641  0.3357 -0.9323  0.4114
   22SAPC   H6R 2882   0.241   4.680   9.549 -1.2064 -1.4928  0.8761
   22SAPC   C27 2883   0.345   4.502   9.625  0.2766 -0.3912 -0.3250
   22SAPC   H7R 2884   0.282   4.456   9.546  0.4490  1.9231 -1.9154
   22SAPC   H7S 2885   0.339   4.438   9.716  2.1764 -0.3852 -0.1425
   22SAPC   C28 2886   0.493   4.512   9.587 -0.6044 -0.2862  0.5781
   22SAPC   H8R 2887   0.556   4.516   9.677 -1.2457 -1.1803  1.0814
   22SAPC   C29 2888   0.550   4.491   9.460  0.2542 -0.7195 -0.0753
   22SAPC   H9R 2889   0.659   4.497   9.444  0.2304  2.5610  0.3126
   22SAPC  C210 2890   0.478   4.465   9.329  0.7526  0.1487  0.0572
   22SAPC  H10R 2891   0.415   4.376   9.352 -0.8448  1.5005  1.1045
   22SAPC  H10S 2892   0.556   4.443   9.253  1.0071  1.9753 -0.2600
   22SAPC  C211 2893   0.407   4.582   9.267  0.5929 -0.5374 -0.2743
   22SAPC  H11R 2894   0.442   4.682   9.296 -1.6231  1.5645 -4.1649
   22SAPC  C212 2895   0.308   4.572   9.178  0.6195 -0.4063  0.0256
   22SAPC  H12R 2896   0.254   4.660   9.141 -0.6644 -0.3500  1.8773
   22SAPC  C213 2897   0.250   4.446   9.124  0.6207  0.5323  0.2699
   22SAPC  H13R 2898   0.147   4.472   9.094  0.7609  1.6145  0.6984
   22SAPC  H13S 2899   0.238   4.367   9.202  0.2468  0.7479  0.4298
   22SAPC  C214 2900   0.324   4.392   9.008  0.5626  0.3075 -0.6975
   22SAPC  H14R 2901   0.432   4.380   9.027  0.7607  2.5086 -0.0998
   22SAPC  C215 2902   0.283   4.367   8.882 -0.7055 -0.5737 -0.9700
   22SAPC  H15R 2903   0.362   4.320   8.821  2.1157 -0.2086  2.1281
   22SAPC  C216 2904   0.145   4.391   8.828  0.2912 -0.1718 -0.3096
   22SAPC  H16R 2905   0.080   4.424   8.911 -0.0260 -0.6836 -0.3497
   22SAPC  H16S 2906   0.105   4.292   8.796 -0.9612 -0.2102  1.2497
   22SAPC  C217 2907   0.130   4.511   8.734 -0.8039 -0.6944  1.0358
   22SAPC  H17R 2908   0.022   4.527   8.712 -0.5362 -0.2865 -0.0116
   22SAPC  H17S 2909   0.164   4.497   8.630 -0.0810  1.5283  0.9334
   22SAPC  C218 2910   0.172   4.645   8.804  0.5809 -0.2858  0.2634
   22SAPC  H18R 2911   0.282   4.657   8.811  0.8911  1.1334 -4.2111
   22SAPC  H18S 2912   0.136   4.627   8.908 -1.6459 -1.3048 -0.6116
   22SAPC  C219 2913   0.100   4.770   8.735 -0.1638  0.1463 -0.3822
   22SAPC  H19R 2914  -0.006   4.744   8.754  0.3639 -0.8940  1.4556
   22SAPC  H19S 2915   0.121   4.771   8.626  0.8913  0.9210 -0.1885
   22SAPC  C220 2916   0.118   4.916   8.788 -0.4066 -0.2107 -0.2354
   22SAPC  H20R 2917   0.067   4.987   8.719 -3.7670 -2.3140 -0.0719
   22SAPC  H20S 2918   0.224   4.942   8.812 -0.8457 -0.3129  1.9858
   22SAPC  H20T 2919   0.059   4.933   8.880  0.7475  2.9767  0.0417
   22SAPC   C33 2920  -0.120   5.089  10.072 -0.4822 -0.0365 -0.0113
   22SAPC   H3X 2921  -0.146   4.983  10.094  2.5561 -0.7386  0.7004
   22SAPC   H3Y 2922  -0.039   5.084   9.996  0.1641 -1.2903  0.7079
   22SAPC   C34 2923  -0.240   5.154  10.012  0.1970  0.8113 -0.4045
   22SAPC   H4X 2924  -0.319   5.191  10.081 -0.2197  0.6891 -0.8058
   22SAPC   H4Y 2925  -0.292   5.093   9.934  1.9648 -1.0231 -0.2181
   22SAPC   C35 2926  -0.200   5.285   9.941 -0.7816  0.0198 -0.0926
   22SAPC   H5X 2927  -0.107   5.262   9.884 -1.7920  1.0037 -2.2648
   22SAPC   H5Y 2928  -0.171   5.355  10.023 -1.1016 -0.3143  0.3122
   22SAPC   C36 2929  -0.304   5.349   9.848  0.1631 -0.2065  0.9951
   22SAPC   H6X 2930  -0.389   5.391   9.907 -0.0828  2.6840 -1.2541
   22SAPC   H6Y 2931  -0.338   5.266   9.783  2.8709  0.5243 -1.5437
   22SAPC   C37 2932  -0.254   5.450   9.744 -0.6877  0.3308 -0.0778
   22SAPC   H7X 2933  -0.188   5.393   9.674 -0.9373 -1.5821  1.1530
   22SAPC   H7Y 2934  -0.191   5.534   9.777 -3.3768  1.7548  1.8240
   22SAPC   C38 2935  -0.366   5.525   9.664  0.5225  0.0295 -0.1530
   22SAPC   H8X 2936  -0.416   5.604   9.725  2.2345 -0.0184  1.3908
   22SAPC   H8Y 2937  -0.453   5.464   9.633  0.3112  1.1001 -1.8477
   22SAPC   C39 2938  -0.318   5.582   9.525 -0.1119 -0.5657 -0.6285
   22SAPC   H9X 2939  -0.254   5.503   9.480 -1.0401 -1.5021 -0.3579
   22SAPC   H9Y 2940  -0.244   5.664   9.538 -0.9776  0.1659 -0.2321
   22SAPC  C310 2941  -0.433   5.632   9.444  0.9481  0.2820  0.0765
   22SAPC  H10X 2942  -0.457   5.737   9.475 -2.6421 -0.4714  0.3311
   22SAPC  H10Y 2943  -0.525   5.572   9.462  0.5355  0.4274 -1.4420
   22SAPC  C311 2944  -0.407   5.628   9.294 -0.0336 -0.0935  0.5775
   22SAPC  H11X 2945  -0.337   5.543   9.276 -2.6163 -2.2694  0.1654
   22SAPC  H11Y 2946  -0.348   5.721   9.279 -1.0660  0.3099 -1.2392
   22SAPC  C312 2947  -0.527   5.614   9.203 -0.5838 -0.2619 -0.5758
   22SAPC  H12X 2948  -0.593   5.700   9.228  1.2165  0.3718  2.3843
   22SAPC  H12Y 2949  -0.570   5.516   9.231  2.3005 -1.8014 -1.1328
   22SAPC  C313 2950  -0.495   5.609   9.050 -0.4260  0.5581 -0.8134
   22SAPC  H13X 2951  -0.405   5.545   9.037 -1.2746 -0.5927 -1.1489
   22SAPC  H13Y 2952  -0.480   5.718   9.029 -2.9575  0.9591 -0.8970
   22SAPC  C314 2953  -0.612   5.564   8.975 -0.2874  0.0997  0.2327
   22SAPC  H14X 2954  -0.699   5.627   9.006 -0.9645 -0.6176 -0.1762
   22SAPC  H14Y 2955  -0.634   5.461   9.009  2.3408 -0.6811 -0.2898
   22SAPC  C315 2956  -0.606   5.563   8.823  0.1030  0.5208 -0.1160
   22SAPC  H15X 2957  -0.700   5.531   8.773  0.5862 -0.5556 -0.3609
   22SAPC  H15Y 2958  -0.527   5.493   8.787  1.4194  1.9243 -0.0553
   22SAPC  C316 2959  -0.557   5.687   8.756 -0.1043 -0.5790 -0.3106
   22SAPC  H16X 2960  -0.517   5.658   8.656  1.6076  0.8201 -0.0854
   22SAPC  H16Y 2961  -0.478   5.731   8.820  0.7786 -0.7299 -1.2547
   22SAPC  C317 2962  -0.676   5.786   8.746  0.0090  0.1180  0.4124
   22SAPC  H17X 2963  -0.682   5.850   8.837  2.8247  0.7811  0.2184
   22SAPC  H17Y 2964  -0.769   5.726   8.729  0.0805 -0.1345  0.8902
   22SAPC  C318 2965  -0.665   5.900   8.648 -0.2999  0.3098  0.3713
   22SAPC  H18X 2966  -0.576   5.961   8.675  0.0053  0.2037 -0.3719
   22SAPC  H18Y 2967  -0.751   5.971   8.646  0.1629  0.9460  1.9683
   22SAPC  H18Z 2968  -0.637   5.863   8.547 -0.1951 -0.0568  0.5377
   23SAPC     N 2969   1.626   4.193  10.588 -0.3508  0.6971  0.8755
   23SAPC   C12 2970   1.585   4.317  10.508  0.0219  0.1489  0.4552
   23SAPC  H12A 2971   1.668   4.338  10.443 -1.0956 -2.0002 -1.8092
   23SAPC  H12B 2972   1.579   4.397  10.580  0.4847 -1.0780  1.9217
   23SAPC   C13 2973   1.520   4.163  10.687 -0.5517  0.5379  0.1310
   23SAPC  H13A 2974   1.416   4.162  10.655 -0.3381 -0.1400 -0.5764
   23SAPC  H13B 2975   1.537   4.068  10.736  0.3963  0.7472  0.2105
   23SAPC  H13C 2976   1.518   4.241  10.761 -0.3519  1.2948 -0.6495
   23SAPC   C14 2977   1.639   4.080  10.490  0.3651  1.2720  0.0967
   23SAPC  H14A 2978   1.547   4.066  10.436  0.9230 -0.5510 -0.4367
   23SAPC  H14B 2979   1.721   4.096  10.422  0.4433 -0.5398 -0.2890
   23SAPC  H14C 2980   1.662   3.990  10.545 -2.1384  0.0101 -0.7995
   23SAPC   C15 2981   1.757   4.202  10.660  0.4107  0.0612  0.2783
   23SAPC  H15A 2982   1.753   4.123  10.734 -3.1024 -0.5763 -0.4416
   23SAPC  H15B 2983   1.838   4.200  10.589 -0.9310  1.2209 -1.3787
   23SAPC  H15C 2984   1.759   4.291  10.722 -0.0257  1.0059 -1.0264
   23SAPC   C11 2985   1.465   4.315  10.424  0.1738 -0.3840  0.5852
   23SAPC  H11A 2986   1.466   4.232  10.350  0.8120 -0.3602  0.5648
   23SAPC  H11B 2987   1.463   4.400  10.353 -2.6081 -1.9123 -1.3595
   23SAPC     P 2988   1.302   4.436  10.599  0.7824  0.5763 -0.0127
   23SAPC   O13 2989   1.281   4.385  10.734  0.1169 -0.1042  0.1353
   23SAPC   O14 2990   1.395   4.546  10.589 -0.5258 -0.6172  0.9629
   23SAPC   O12 2991   1.356   4.318  10.513  0.3797 -0.9281  0.5983
   23SAPC   O11 2992   1.169   4.460  10.538  0.3282  0.9921  0.1223
   23SAPC    C1 2993   1.074   4.354  10.537  0.1972  0.0412  0.7511
   23SAPC    HA 2994   1.116   4.255  10.513  0.0552 -0.3251  1.9554
   23SAPC    HB 2995   1.023   4.354  10.636  1.7138 -1.1840  1.5592
   23SAPC    C2 2996   0.965   4.375  10.434  0.6060 -0.3466  0.1893
   23SAPC    HS 2997   0.923   4.277  10.402 -0.8612  0.3198 -0.0091
   23SAPC   O21 2998   1.013   4.452  10.321 -0.2005 -0.9055 -0.4685
   23SAPC   C21 2999   1.110   4.403  10.258 -0.0334  0.4429  0.1272
   23SAPC   O22 3000   1.145   4.285  10.261  0.4216 -0.3212 -0.2357
   23SAPC   C22 3001   1.173   4.500  10.167 -0.4331 -0.2009  0.4969
   23SAPC   H2R 3002   1.092   4.542  10.104 -1.8402 -3.5009 -0.0691
   23SAPC   H2S 3003   1.203   4.584  10.235  0.1846 -0.5052  0.6115
   23SAPC    C3 3004   0.844   4.445  10.490  0.1549  0.3930  0.6758
   23SAPC    HX 3005   0.863   4.552  10.512 -1.3374  0.7502  0.3842
   23SAPC    HY 3006   0.804   4.395  10.581 -0.7536 -1.0802 -0.4872
   23SAPC   O31 3007   0.741   4.424  10.393 -0.0931  0.4483  0.1976
   23SAPC   C31 3008   0.621   4.481  10.416 -0.3758  0.5118 -0.8267
   23SAPC   O32 3009   0.605   4.550  10.512  0.0544 -0.1053 -0.6401
   23SAPC   C32 3010   0.522   4.468  10.298 -0.4655 -0.0147 -0.5500
   23SAPC   H2X 3011   0.536   4.560  10.238 -0.7373  0.4634  0.1061
   23SAPC   H2Y 3012   0.424   4.464  10.350  0.6479 -1.7183  1.5871
   23SAPC   C23 3013   1.292   4.450  10.070 -0.2124  0.6328 -0.5798
   23SAPC   H3R 3014   1.359   4.393  10.137 -0.5861 -1.8425 -2.1920
   23SAPC   H3S 3015   1.343   4.540  10.030 -0.7913  1.5260  0.6079
   23SAPC   C24 3016   1.231   4.371   9.957 -0.0824  0.0375 -0.1118
   23SAPC   H4R 3017   1.204   4.432   9.868  0.4877 -1.0402 -1.0457
   23SAPC   H4S 3018   1.143   4.321  10.003  1.1390  0.5245  3.0524
   23SAPC   C25 3019   1.340   4.273   9.916  0.0658 -0.0380 -0.2895
   23SAPC   H5R 3020   1.412   4.256   9.997  0.2586  2.0379  0.0396
   23SAPC   C26 3021   1.367   4.232   9.786 -0.2251  0.1432  0.5110
   23SAPC   H6R 3022   1.452   4.164   9.771 -0.1929  0.6717 -2.3223
   23SAPC   C27 3023   1.302   4.273   9.656  0.8582  0.4581 -0.1804
   23SAPC   H7R 3024   1.196   4.291   9.683  1.2154  0.9793  0.9697
   23SAPC   H7S 3025   1.305   4.190   9.582  1.0630  0.9380 -0.7210
   23SAPC   C28 3026   1.345   4.409   9.599  0.6412 -0.4855 -0.8252
   23SAPC   H8R 3027   1.337   4.478   9.684  1.6045 -0.9562 -0.3293
   23SAPC   C29 3028   1.389   4.443   9.477  0.8889  0.4865  0.3224
   23SAPC   H9R 3029   1.413   4.549   9.460 -0.1488  0.5093 -1.3398
   23SAPC  C210 3030   1.406   4.348   9.362 -0.0717  0.0538 -0.1154
   23SAPC  H10R 3031   1.473   4.268   9.401 -1.7164 -1.1058  0.4227
   23SAPC  H10S 3032   1.457   4.403   9.280 -0.5862 -0.4129 -0.7550
   23SAPC  C211 3033   1.278   4.298   9.291 -0.5986  0.3266 -0.5268
   23SAPC  H11R 3034   1.223   4.246   9.371  2.2421 -1.1016  0.6645
   23SAPC  C212 3035   1.239   4.306   9.158  0.3488  0.7811 -0.0667
   23SAPC  H12R 3036   1.146   4.252   9.134 -0.1003  1.2746  0.5097
   23SAPC  C213 3037   1.326   4.375   9.044 -0.2436  0.0203 -0.3343
   23SAPC  H13R 3038   1.288   4.349   8.943 -1.7866  1.0484 -0.0598
   23SAPC  H13S 3039   1.424   4.323   9.040  1.1175  2.4557 -3.5175
   23SAPC  C214 3040   1.336   4.524   9.052  0.9106 -0.5043  0.2864
   23SAPC  H14R 3041   1.272   4.571   9.127  0.9353  1.8381 -1.0557
   23SAPC  C215 3042   1.408   4.600   8.968 -0.9742 -0.3469 -0.5351
   23SAPC  H15R 3043   1.410   4.709   8.980 -2.5721 -0.2229 -1.1127
   23SAPC  C216 3044   1.491   4.550   8.854  0.4181 -0.1670 -0.3582
   23SAPC  H16R 3045   1.449   4.453   8.820 -1.3686 -0.0031  1.2312
   23SAPC  H16S 3046   1.595   4.526   8.884 -0.3101 -1.9569  0.9061
   23SAPC  C217 3047   1.487   4.650   8.737  0.4471  0.6305 -0.3862
   23SAPC  H17R 3048   1.529   4.746   8.774 -2.5033  1.2536  1.7740
   23SAPC  H17S 3049   1.383   4.669   8.701  0.5441 -0.9976 -1.6652
   23SAPC  C218 3050   1.576   4.592   8.627 -0.0064  0.0264 -0.2039
   23SAPC  H18R 3051   1.532   4.492   8.606 -1.9989  0.9095 -0.3935
   23SAPC  H18S 3052   1.676   4.576   8.673  0.7104 -0.1290 -1.7700
   23SAPC  C219 3053   1.583   4.683   8.508  0.0163  0.5162 -1.2779
   23SAPC  H19R 3054   1.659   4.647   8.436 -0.0672 -0.7628 -0.7594
   23SAPC  H19S 3055   1.619   4.780   8.548  1.7069 -0.6483  0.2369
   23SAPC  C220 3056   1.448   4.717   8.436 -0.0893 -0.0565  0.0578
   23SAPC  H20R 3057   1.420   4.624   8.381  2.1835 -1.8240  1.7224
   23SAPC  H20S 3058   1.480   4.798   8.366  3.1527 -0.9054  0.3954
   23SAPC  H20T 3059   1.362   4.748   8.499  0.0788  0.3756  0.0773
   23SAPC   C33 3060   0.548   4.338  10.221  0.0384 -0.3773  0.5498
   23SAPC   H3X 3061   0.533   4.251  10.289  2.1873 -0.5721  0.8641
   23SAPC   H3Y 3062   0.656   4.316  10.208  0.8280  2.2429  1.8997
   23SAPC   C34 3063   0.472   4.324  10.088 -0.2008  0.2761 -0.1878
   23SAPC   H4X 3064   0.532   4.389  10.021  2.3367 -0.1245  1.5688
   23SAPC   H4Y 3065   0.369   4.365  10.095  0.1193  1.2547 -0.9380
   23SAPC   C35 3066   0.477   4.183  10.027  0.9953  0.0661 -0.0013
   23SAPC   H5X 3067   0.413   4.115  10.088  1.8306 -2.7883 -2.0723
   23SAPC   H5Y 3068   0.581   4.144  10.031  1.6104  1.4551 -1.4311
   23SAPC   C36 3069   0.422   4.174   9.885 -0.2662 -0.6872 -0.4448
   23SAPC   H6X 3070   0.499   4.233   9.832 -0.3410 -2.7655 -3.0384
   23SAPC   H6Y 3071   0.322   4.221   9.872  0.5257  1.0039 -0.6618
   23SAPC   C37 3072   0.415   4.037   9.827  0.1649 -0.3018 -0.0535
   23SAPC   H7X 3073   0.342   3.983   9.891  0.3793  0.8166  1.1520
   23SAPC   H7Y 3074   0.509   3.978   9.839 -0.8186 -2.0447 -0.5452
   23SAPC   C38 3075   0.383   4.029   9.683 -0.0466 -0.1703 -0.4202
   23SAPC   H8X 3076   0.295   4.095   9.666  0.0685 -0.5228 -2.7392
   23SAPC   H8Y 3077   0.344   3.931   9.647  1.7339 -0.4982 -1.5656
   23SAPC   C39 3078   0.495   4.059   9.588 -0.3146  0.5795 -0.5703
   23SAPC   H9X 3079   0.564   3.975   9.608 -1.0287 -1.4920 -5.4245
   23SAPC   H9Y 3080   0.540   4.159   9.611  1.4061 -0.4453  0.8181
   23SAPC  C310 3081   0.465   4.061   9.436 -0.2303 -0.1799 -0.3604
   23SAPC  H10X 3082   0.383   4.136   9.435 -1.6613 -1.5766  2.3706
   23SAPC  H10Y 3083   0.434   3.960   9.402  1.3052 -0.7162 -0.2839
   23SAPC  C311 3084   0.580   4.108   9.341  0.6397  0.0430  0.1657
   23SAPC  H11X 3085   0.658   4.029   9.339  0.0252 -0.5758 -1.2396
   23SAPC  H11Y 3086   0.625   4.202   9.380 -1.6647  1.5211 -0.4818
   23SAPC  C312 3087   0.526   4.138   9.197  0.4818 -0.0685  0.1404
   23SAPC  H12X 3088   0.617   4.175   9.145  0.7663 -1.7572 -0.6219
   23SAPC  H12Y 3089   0.458   4.226   9.193  1.7440  0.8989 -2.7301
   23SAPC  C313 3090   0.478   4.022   9.117  0.1086 -0.2889  0.0514
   23SAPC  H13X 3091   0.424   4.065   9.029 -0.7075  1.9049  1.5506
   23SAPC  H13Y 3092   0.409   3.962   9.181  1.4475  1.1961  3.0454
   23SAPC  C314 3093   0.591   3.925   9.070  0.0083 -0.4117 -0.4054
   23SAPC  H14X 3094   0.542   3.834   9.029 -1.1326 -0.2090  0.4417
   23SAPC  H14Y 3095   0.648   3.898   9.161 -0.8511  0.0940  0.2994
   23SAPC  C315 3096   0.686   3.985   8.970 -0.3285 -0.0324 -0.7030
   23SAPC  H15X 3097   0.771   3.914   8.976  2.3953  3.0525  0.2599
   23SAPC  H15Y 3098   0.737   4.071   9.019  0.2514 -1.1152  0.6321
   23SAPC  C316 3099   0.642   4.020   8.831 -0.3585 -0.0453  0.5765
   23SAPC  H16X 3100   0.580   4.112   8.828 -0.0857  0.2183  2.1124
   23SAPC  H16Y 3101   0.574   3.941   8.794  0.0655 -0.0493 -0.2250
   23SAPC  C317 3102   0.752   4.025   8.723  0.0647 -0.1731 -0.0930
   23SAPC  H17X 3103   0.705   4.052   8.626  0.4197  1.2301  0.1002
   23SAPC  H17Y 3104   0.812   3.932   8.720  1.1298  0.1852  3.8675
   23SAPC  C318 3105   0.843   4.140   8.749  0.1107  0.0432 -0.9231
   23SAPC  H18X 3106   0.917   4.154   8.667 -0.2323 -2.9957 -1.8600
   23SAPC  H18Y 3107   0.899   4.137   8.845  3.4160  0.4331 -2.6859
   23SAPC  H18Z 3108   0.778   4.230   8.747  1.1262  0.8756  0.9473
   24SAPC     N 3109   4.183   3.819  11.172 -0.4521  0.1115  0.6303
   24SAPC   C12 3110   4.259   3.831  11.039 -0.5599  0.2415 -0.8340
   24SAPC  H12A 3111   4.313   3.738  11.027 -1.5647 -0.4523 -0.2159
   24SAPC  H12B 3112   4.323   3.917  11.050  0.4334 -0.6136  0.2230
   24SAPC   C13 3113   4.096   3.939  11.189  0.0798 -0.0297  0.1105
   24SAPC  H13A 3114   4.046   3.956  11.095  1.1238  1.1850 -0.2650
   24SAPC  H13B 3115   4.017   3.920  11.260 -0.7899 -0.1431 -0.8675
   24SAPC  H13C 3116   4.164   4.022  11.203 -0.3932  0.8326 -2.2897
   24SAPC   C14 3117   4.108   3.690  11.169  0.5639  0.5672  0.1194
   24SAPC  H14A 3118   4.051   3.682  11.077 -1.4079  1.3552  1.2217
   24SAPC  H14B 3119   4.165   3.599  11.161  0.2684 -0.0046  3.4066
   24SAPC  H14C 3120   4.033   3.690  11.246 -1.2512  0.2955 -1.5644
   24SAPC   C15 3121   4.278   3.817  11.285 -0.4016 -0.1973  0.4524
   24SAPC  H15A 3122   4.213   3.828  11.371 -2.4889  0.8602 -1.1974
   24SAPC  H15B 3123   4.348   3.734  11.287  2.3383  1.8159 -2.2953
   24SAPC  H15C 3124   4.346   3.899  11.271  0.8984 -1.4810 -1.0914
   24SAPC   C11 3125   4.185   3.850  10.904  0.3201 -0.2511  0.2767
   24SAPC  H11A 3126   4.133   3.756  10.878  1.8500 -0.4517 -2.3107
   24SAPC  H11B 3127   4.259   3.849  10.822 -0.3249  0.0159 -0.3200
   24SAPC     P 3128   4.150   4.102  10.876  0.0426 -0.1670 -0.0011
   24SAPC   O13 3129   4.041   4.202  10.838 -0.0348  1.4478  0.1138
   24SAPC   O14 3130   4.227   4.139  10.997 -0.2537 -0.4141  0.2739
   24SAPC   O12 3131   4.093   3.965  10.902 -0.3252 -0.1660 -0.3097
   24SAPC   O11 3132   4.239   4.084  10.742  0.7649  0.8904 -0.2524
   24SAPC    C1 3133   4.180   4.123  10.617 -0.5088 -0.1552 -0.4400
   24SAPC    HA 3134   4.145   4.228  10.619  0.4228  0.1695 -0.7569
   24SAPC    HB 3135   4.257   4.122  10.537  0.9924 -0.9794  0.9677
   24SAPC    C2 3136   4.068   4.034  10.571 -0.1995  0.1252 -0.4768
   24SAPC    HS 3137   4.029   3.971  10.654  2.5747  1.4919  2.0731
   24SAPC   O21 3138   4.118   3.952  10.465 -0.3470  0.0142 -0.5530
   24SAPC   C21 3139   4.049   3.845  10.437  0.1485  1.0902 -0.0470
   24SAPC   O22 3140   3.958   3.795  10.508 -0.3182 -0.1694 -0.0746
   24SAPC   C22 3141   4.104   3.770  10.317 -0.3931  0.2486 -0.1909
   24SAPC   H2R 3142   4.148   3.847  10.250  0.4114 -1.3163 -1.5364
   24SAPC   H2S 3143   4.188   3.707  10.351  1.3438  1.5178 -1.9266
   24SAPC    C3 3144   3.939   4.106  10.518  0.4391 -1.1129  0.2860
   24SAPC    HX 3145   3.906   4.156  10.612 -0.0223 -2.4212  0.8437
   24SAPC    HY 3146   3.855   4.039  10.488 -2.0913  2.2799 -0.9217
   24SAPC   O31 3147   3.965   4.207  10.415  0.1365  0.2626 -0.6084
   24SAPC   C31 3148   3.966   4.169  10.281  1.2598  1.0355 -0.3543
   24SAPC   O32 3149   3.946   4.052  10.249 -0.6447  0.1278  0.2719
   24SAPC   C32 3150   3.983   4.293  10.192 -0.3650  0.0463 -0.7137
   24SAPC   H2X 3151   4.093   4.305  10.199 -0.6362  1.5644  2.1390
   24SAPC   H2Y 3152   3.940   4.386  10.236  2.0911 -0.0597  2.2234
   24SAPC   C23 3153   3.996   3.692  10.241 -0.7617  0.2634  0.0971
   24SAPC   H3R 3154   3.899   3.747  10.229 -0.9523 -0.4192 -1.9129
   24SAPC   H3S 3155   3.971   3.611  10.313 -2.0559  1.0572  0.5914
   24SAPC   C24 3156   4.043   3.614  10.115  0.1039  0.2043 -0.0206
   24SAPC   H4R 3157   3.955   3.558  10.077 -0.0235  0.0666  0.4646
   24SAPC   H4S 3158   4.129   3.548  10.140  0.1714  1.1616  2.6054
   24SAPC   C25 3159   4.087   3.716  10.005 -0.3568  0.2319 -0.0996
   24SAPC   H5R 3160   4.034   3.812  10.009 -2.1959 -0.7134 -0.6340
   24SAPC   C26 3161   4.189   3.691   9.922 -0.1424  0.6406 -0.0285
   24SAPC   H6R 3162   4.211   3.753   9.834 -0.5272  0.5522 -0.1895
   24SAPC   C27 3163   4.264   3.561   9.914  0.5365 -0.2952 -0.4701
   24SAPC   H7R 3164   4.310   3.560   9.812  1.5184  4.2046 -0.2681
   24SAPC   H7S 3165   4.197   3.473   9.920  0.7313 -0.5036 -1.2146
   24SAPC   C28 3166   4.364   3.550  10.023  0.0747  0.0473  0.3579
   24SAPC   H8R 3167   4.322   3.578  10.121 -0.6882 -0.8146  0.2882
   24SAPC   C29 3168   4.490   3.518  10.015 -1.1098 -0.1325 -0.0864
   24SAPC   H9R 3169   4.553   3.519  10.105 -1.4533  0.3916  0.1544
   24SAPC  C210 3170   4.572   3.482   9.888 -0.3054  0.1134 -0.3973
   24SAPC  H10R 3171   4.653   3.558   9.880  0.4900 -0.7590 -0.8452
   24SAPC  H10S 3172   4.513   3.488   9.794 -0.3720 -0.0538 -0.3659
   24SAPC  C211 3173   4.628   3.345   9.878  0.9101  0.1730 -0.2810
   24SAPC  H11R 3174   4.567   3.278   9.815  0.6498  0.3217 -0.1902
   24SAPC  C212 3175   4.738   3.296   9.937 -0.7748 -0.6627  0.5364
   24SAPC  H12R 3176   4.767   3.194   9.908  3.0860  0.0898  1.1878
   24SAPC  C213 3177   4.843   3.368  10.024 -0.4576 -0.1276 -0.5854
   24SAPC  H13R 3178   4.791   3.410  10.113 -0.5571 -0.3219 -0.5504
   24SAPC  H13S 3179   4.889   3.456   9.974  1.4343 -0.0674  1.1368
   24SAPC  C214 3180   4.954   3.276  10.064  0.3790  0.1868 -0.2936
   24SAPC  H14R 3181   4.920   3.215  10.149 -2.8634  1.4757 -0.5015
   24SAPC  C215 3182   5.077   3.262  10.009  0.1373 -0.4049 -0.0036
   24SAPC  H15R 3183   5.137   3.181  10.053 -0.6892  0.0520  2.0924
   24SAPC  C216 3184   5.122   3.338   9.887 -0.1444  0.1139  0.0187
   24SAPC  H16R 3185   5.231   3.318   9.899 -0.5209 -3.3753 -1.2056
   24SAPC  H16S 3186   5.111   3.448   9.888  1.5307  0.3088 -0.4156
   24SAPC  C217 3187   5.089   3.288   9.752  0.1364 -0.1599 -0.2631
   24SAPC  H17R 3188   4.981   3.290   9.727  0.6498  1.6232 -2.7410
   24SAPC  H17S 3189   5.123   3.182   9.744  0.6068 -0.0677  0.4446
   24SAPC  C218 3190   5.157   3.362   9.636  0.2190 -0.3470 -0.5358
   24SAPC  H18R 3191   5.266   3.346   9.651 -0.0704 -2.6990 -0.4702
   24SAPC  H18S 3192   5.128   3.469   9.641 -0.3236 -0.5227  0.1011
   24SAPC  C219 3193   5.132   3.305   9.491 -0.0462  0.0589 -0.1805
   24SAPC  H19R 3194   5.181   3.206   9.477  1.9136  0.9791 -0.2554
   24SAPC  H19S 3195   5.172   3.377   9.416  0.0102  0.7406  0.4945
   24SAPC  C220 3196   4.985   3.283   9.446  0.4830  0.3274  0.0587
   24SAPC  H20R 3197   4.943   3.197   9.503  0.9801 -2.3597 -3.3498
   24SAPC  H20S 3198   4.979   3.258   9.338  2.2221  3.6577 -0.9365
   24SAPC  H20T 3199   4.928   3.375   9.470  0.0588 -0.0100  0.3590
   24SAPC   C33 3200   3.953   4.264  10.041 -0.4786 -0.0225  0.1434
   24SAPC   H3X 3201   3.844   4.241  10.040 -0.3790 -0.9328  2.8634
   24SAPC   H3Y 3202   4.005   4.168  10.019 -0.0149 -0.0396  1.2576
   24SAPC   C34 3203   3.993   4.378   9.945 -0.3162  0.4391  0.1530
   24SAPC   H4X 3204   4.052   4.335   9.861 -0.5780 -0.7189  0.5481
   24SAPC   H4Y 3205   4.057   4.452   9.997  1.7036 -1.7006  0.8861
   24SAPC   C35 3206   3.872   4.457   9.889  0.6139  0.5822  0.3553
   24SAPC   H5X 3207   3.804   4.493   9.969  0.2586 -1.9293  1.2771
   24SAPC   H5Y 3208   3.821   4.385   9.821 -0.3681  0.4794  1.1827
   24SAPC   C36 3209   3.920   4.583   9.806 -0.0291  0.5908 -0.1560
   24SAPC   H6X 3210   3.983   4.644   9.874 -0.4581  0.5463  0.2886
   24SAPC   H6Y 3211   3.824   4.626   9.773 -1.6681 -1.6256  1.4338
   24SAPC   C37 3212   4.001   4.550   9.677  0.2141 -0.2817 -0.8601
   24SAPC   H7X 3213   3.977   4.456   9.622 -1.2686 -0.2964 -0.2454
   24SAPC   H7Y 3214   4.104   4.534   9.716  0.1754 -2.0969 -1.3976
   24SAPC   C38 3215   4.001   4.656   9.575  0.1073  0.3037  0.5720
   24SAPC   H8X 3216   4.018   4.753   9.626 -0.1451 -0.1877  1.6208
   24SAPC   H8Y 3217   3.900   4.651   9.529  1.5546  1.0127 -3.0057
   24SAPC   C39 3218   4.102   4.620   9.468 -0.1717  0.2175  0.5767
   24SAPC   H9X 3219   4.088   4.516   9.432 -2.0381  0.7545 -0.3758
   24SAPC   H9Y 3220   4.202   4.626   9.516 -0.1249  0.2180  0.4779
   24SAPC  C310 3221   4.086   4.713   9.342 -0.3299 -0.2564 -0.1742
   24SAPC  H10X 3222   4.116   4.817   9.367  0.5801 -0.1077 -1.6902
   24SAPC  H10Y 3223   3.987   4.713   9.293 -0.5961  3.3295  0.1057
   24SAPC  C311 3224   4.172   4.665   9.223  1.0197 -0.1398  0.6723
   24SAPC  H11X 3225   4.154   4.556   9.210  0.6815 -0.4206  3.0510
   24SAPC  H11Y 3226   4.280   4.678   9.243  1.0023 -0.3555  0.9115
   24SAPC  C312 3227   4.161   4.743   9.091 -0.3766  0.0119  0.3845
   24SAPC  H12X 3228   4.244   4.710   9.025  0.5661 -0.6145  1.8331
   24SAPC  H12Y 3229   4.170   4.851   9.115 -0.5977  0.4707 -1.4693
   24SAPC  C313 3230   4.032   4.734   9.005  0.1308  0.0776 -0.2112
   24SAPC  H13X 3231   4.033   4.816   8.931 -3.2663  1.2414  0.8649
   24SAPC  H13Y 3232   3.940   4.734   9.067 -0.3638 -0.0613 -0.9412
   24SAPC  C314 3233   4.032   4.605   8.926 -0.3310  1.1698 -0.3812
   24SAPC  H14X 3234   4.038   4.524   9.001  0.9251  3.2907  1.9631
   24SAPC  H14Y 3235   4.125   4.587   8.868 -0.7682 -3.0066 -0.0349
   24SAPC  C315 3236   3.899   4.572   8.845 -0.3511  0.2241 -0.0108
   24SAPC  H15X 3237   3.881   4.644   8.763 -0.7296 -1.6328 -1.6262
   24SAPC  H15Y 3238   3.826   4.572   8.929 -0.3202 -1.2196  0.0405
   24SAPC  C316 3239   3.896   4.428   8.791  0.3557 -0.4166  0.1596
   24SAPC  H16X 3240   3.930   4.361   8.873  0.3773 -1.5105 -0.7291
   24SAPC  H16Y 3241   3.958   4.421   8.699 -0.5419 -2.2100 -0.3600
   24SAPC  C317 3242   3.758   4.370   8.736  0.1275 -0.6554  0.1659
   24SAPC  H17X 3243   3.776   4.270   8.692  0.0627 -0.6901  0.2182
   24SAPC  H17Y 3244   3.717   4.439   8.659  2.6174  1.2153  0.3927
   24SAPC  C318 3245   3.662   4.356   8.843  0.3512 -0.2782 -0.7172
   24SAPC  H18X 3246   3.656   4.452   8.898 -0.9227 -0.2669 -0.8509
   24SAPC  H18Y 3247   3.699   4.289   8.923  0.3790  2.0230  1.2867
   24SAPC  H18Z 3248   3.560   4.327   8.808  0.5710 -1.5908 -0.3067
   25SAPC     N 3249   1.548   0.062   5.968 -1.0037 -0.0108  0.7098
   25SAPC   C12 3250   1.667   0.146   5.917 -0.0717  0.2649 -1.1217
   25SAPC  H12A 3251   1.659   0.166   5.811  2.0527  0.9375 -1.2082
   25SAPC  H12B 3252   1.760   0.091   5.924  1.1275  2.1874 -1.0307
   25SAPC   C13 3253   1.419   0.128   5.931  0.6768 -0.1553 -0.1936
   25SAPC  H13A 3254   1.421   0.140   5.823 -1.1796 -0.1992 -0.2617
   25SAPC  H13B 3255   1.333   0.081   5.976  2.0979 -1.1020  1.6413
   25SAPC  H13C 3256   1.419   0.229   5.969  0.2261 -0.3233  0.2696
   25SAPC   C14 3257   1.534  -0.080   5.912 -0.0998 -0.4693 -0.6257
   25SAPC  H14A 3258   1.622  -0.141   5.925  0.1337  0.0942  0.5792
   25SAPC  H14B 3259   1.457  -0.120   5.977  1.7461 -0.2882  1.8097
   25SAPC  H14C 3260   1.500  -0.074   5.809 -1.8853  2.4717  0.0196
   25SAPC   C15 3261   1.556   0.056   6.121  0.1662  0.5196  0.1216
   25SAPC  H15A 3262   1.552   0.155   6.162  0.3939  0.4878  0.2189
   25SAPC  H15B 3263   1.474   0.003   6.167 -1.4245  1.8227 -1.0759
   25SAPC  H15C 3264   1.651   0.013   6.149  0.8761  1.5133 -0.6915
   25SAPC   C11 3265   1.675   0.287   5.973 -0.0104 -0.3771  0.2920
   25SAPC  H11A 3266   1.577   0.331   6.002  0.6585  1.3869  0.0010
   25SAPC  H11B 3267   1.726   0.344   5.892  2.5825 -0.5366  1.7010
   25SAPC     P 3268   1.808   0.423   6.152  0.0184 -0.3648 -0.0233
   25SAPC   O13 3269   1.900   0.384   6.265  0.0890  0.8482  0.7654
   25SAPC   O14 3270   1.866   0.516   6.049  0.3021  0.1318  0.0878
   25SAPC   O12 3271   1.761   0.292   6.089  0.2566  0.4052  0.2059
   25SAPC   O11 3272   1.674   0.480   6.207 -0.0736  0.4761  0.5482
   25SAPC    C1 3273   1.666   0.617   6.240  0.0801  0.4407  0.5336
   25SAPC    HA 3274   1.700   0.682   6.157  0.9054 -0.8170 -0.1392
   25SAPC    HB 3275   1.558   0.644   6.238 -0.2718 -0.7383  1.9100
   25SAPC    C2 3276   1.730   0.663   6.371  0.3229  1.3005 -0.6514
   25SAPC    HS 3277   1.838   0.640   6.363  0.0977  0.3044 -1.0723
   25SAPC   O21 3278   1.668   0.580   6.471  0.7516  0.2500 -0.1545
   25SAPC   C21 3279   1.742   0.559   6.574 -0.1435  0.4501  0.2867
   25SAPC   O22 3280   1.864   0.585   6.584 -0.3973 -0.1704  0.2033
   25SAPC   C22 3281   1.673   0.493   6.682  0.0534 -0.3833  0.1665
   25SAPC   H2R 3282   1.574   0.452   6.652  0.1783 -1.4258  1.0753
   25SAPC   H2S 3283   1.730   0.399   6.699  1.9601  0.3697 -1.6515
   25SAPC    C3 3284   1.720   0.811   6.406 -0.1253  0.2972  0.5060
   25SAPC    HX 3285   1.612   0.834   6.420 -0.0742  1.0224 -0.2399
   25SAPC    HY 3286   1.755   0.870   6.319  2.2422 -0.4445  0.8937
   25SAPC   O31 3287   1.779   0.853   6.525  0.5951  0.0994  0.3461
   25SAPC   C31 3288   1.910   0.886   6.525 -0.3133 -0.9961 -0.2292
   25SAPC   O32 3289   1.991   0.873   6.434 -0.2866 -0.1271 -0.4542
   25SAPC   C32 3290   1.937   0.968   6.653  0.1476  0.5969 -0.1095
   25SAPC   H2X 3291   1.859   1.044   6.674 -1.0220 -0.3755 -0.7679
   25SAPC   H2Y 3292   2.033   1.023   6.648 -1.9690  4.6015 -0.6998
   25SAPC   C23 3293   1.674   0.575   6.807 -0.0041 -0.0383 -0.2315
   25SAPC   H3R 3294   1.779   0.600   6.833 -0.0895 -0.7533  0.8842
   25SAPC   H3S 3295   1.640   0.517   6.896 -1.5680 -0.9003 -1.3296
   25SAPC   C24 3296   1.579   0.699   6.804 -0.7894  0.0732 -0.2765
   25SAPC   H4R 3297   1.612   0.759   6.717  0.8066 -0.6025 -0.1628
   25SAPC   H4S 3298   1.607   0.755   6.896 -0.7037 -0.3055 -0.0676
   25SAPC   C25 3299   1.432   0.673   6.794  0.1600  0.7669 -0.0019
   25SAPC   H5R 3300   1.394   0.671   6.691  1.6677  0.9302 -0.5949
   25SAPC   C26 3301   1.348   0.655   6.891  0.1396 -0.5325 -1.2643
   25SAPC   H6R 3302   1.241   0.637   6.870 -0.3071 -1.1299  1.1344
   25SAPC   C27 3303   1.395   0.631   7.034 -0.4908  0.4431 -0.2304
   25SAPC   H7R 3304   1.345   0.708   7.096 -0.0571 -0.2359  1.0078
   25SAPC   H7S 3305   1.504   0.638   7.053 -0.6593 -0.4757  1.1802
   25SAPC   C28 3306   1.352   0.498   7.079  0.6640  0.6476 -0.4611
   25SAPC   H8R 3307   1.309   0.442   6.995  1.5475 -0.5516 -0.1402
   25SAPC   C29 3308   1.371   0.441   7.203 -0.5428  0.1746  0.6284
   25SAPC   H9R 3309   1.305   0.356   7.224 -0.5968  0.4524  1.6583
   25SAPC  C210 3310   1.449   0.498   7.316  0.0326 -0.0812 -0.7248
   25SAPC  H10R 3311   1.554   0.517   7.285  0.3468  1.7150  1.2507
   25SAPC  H10S 3312   1.449   0.425   7.399 -0.6880  0.0609 -0.5922
   25SAPC  C211 3313   1.400   0.629   7.374 -0.6000 -0.3782  0.0582
   25SAPC  H11R 3314   1.348   0.692   7.300 -0.5973  0.8154  1.0380
   25SAPC  C212 3315   1.425   0.675   7.501  0.2154 -0.1370 -0.5070
   25SAPC  H12R 3316   1.383   0.772   7.532 -1.1617 -1.4287  2.0026
   25SAPC  C213 3317   1.506   0.608   7.610 -0.3118  0.2983 -0.3825
   25SAPC  H13R 3318   1.544   0.513   7.567  3.9310  2.0607 -1.0585
   25SAPC  H13S 3319   1.433   0.580   7.689 -1.6513  0.8863 -1.3694
   25SAPC  C214 3320   1.616   0.705   7.657  0.1929 -0.6365  0.1848
   25SAPC  H14R 3321   1.694   0.722   7.581  0.1606 -3.1784 -0.5262
   25SAPC  C215 3322   1.635   0.758   7.772  0.1885  0.0569 -0.7240
   25SAPC  H15R 3323   1.709   0.837   7.794 -0.6516  0.7228 -0.2372
   25SAPC  C216 3324   1.542   0.732   7.895 -0.3861 -0.6399 -0.4003
   25SAPC  H16R 3325   1.598   0.741   7.991 -1.8275 -1.0411  0.5047
   25SAPC  H16S 3326   1.492   0.633   7.888  0.1694 -0.9763  0.2668
   25SAPC  C217 3327   1.450   0.852   7.881  0.0410  0.1971 -1.2686
   25SAPC  H17R 3328   1.374   0.838   7.960  2.1051 -2.2073  0.4659
   25SAPC  H17S 3329   1.409   0.882   7.782 -0.2423  2.4071 -0.5360
   25SAPC  C218 3330   1.519   0.978   7.928 -0.8198 -0.1208  0.2283
   25SAPC  H18R 3331   1.609   1.005   7.869  0.3621  1.2391  2.4976
   25SAPC  H18S 3332   1.558   0.954   8.030  1.6446 -0.8591 -0.8099
   25SAPC  C219 3333   1.421   1.094   7.943 -0.2964 -0.2321 -0.2235
   25SAPC  H19R 3334   1.356   1.108   7.854  1.4777 -0.0797 -1.5286
   25SAPC  H19S 3335   1.487   1.182   7.933 -1.0661  0.1635 -2.5042
   25SAPC  C220 3336   1.343   1.106   8.069 -0.4256  0.1224 -1.0061
   25SAPC  H20R 3337   1.283   1.198   8.088  1.5159  1.6574 -1.9581
   25SAPC  H20S 3338   1.413   1.112   8.156 -2.7863  0.1605  1.0072
   25SAPC  H20T 3339   1.278   1.017   8.081 -0.8474  0.7405  2.6351
   25SAPC   C33 3340   1.941   0.874   6.779 -0.0203 -0.3928  0.3448
   25SAPC   H3X 3341   1.995   0.782   6.749  1.8736  0.9021 -0.3701
   25SAPC   H3Y 3342   1.839   0.849   6.817 -0.8675 -1.1875 -2.2745
   25SAPC   C34 3343   2.030   0.932   6.892  0.6680 -0.7697 -0.8065
   25SAPC   H4X 3344   1.999   1.039   6.902 -1.2104 -1.4040  0.8007
   25SAPC   H4Y 3345   2.136   0.917   6.860  0.9503 -0.7757  0.1137
   25SAPC   C35 3346   2.013   0.859   7.020  0.6092 -0.6672 -0.4752
   25SAPC   H5X 3347   2.073   0.766   7.020 -0.4022 -1.3530  1.2397
   25SAPC   H5Y 3348   1.907   0.826   7.021  0.9038 -1.6666 -0.8300
   25SAPC   C36 3349   2.054   0.944   7.139  0.3589  0.9908  0.2890
   25SAPC   H6X 3350   2.157   0.975   7.114  0.8193 -0.1698  0.6936
   25SAPC   H6Y 3351   2.063   0.876   7.226  1.4241 -0.4996 -0.9252
   25SAPC   C37 3352   1.964   1.067   7.173  0.4816 -0.8015 -0.0236
   25SAPC   H7X 3353   1.856   1.043   7.174  0.2749  0.1129  0.9298
   25SAPC   H7Y 3354   1.973   1.148   7.097  2.3193  1.1030  2.0664
   25SAPC   C38 3355   2.019   1.139   7.296  0.5243  0.7768  0.0308
   25SAPC   H8X 3356   1.964   1.235   7.304 -0.8809 -0.0059  0.1338
   25SAPC   H8Y 3357   2.126   1.162   7.279  0.4516  0.4402 -0.9056
   25SAPC   C39 3358   2.006   1.060   7.429 -0.1975 -0.4182 -0.0505
   25SAPC   H9X 3359   2.052   0.960   7.413  1.9896  0.6668 -0.9821
   25SAPC   H9Y 3360   1.901   1.037   7.455 -0.5995  0.3122 -0.9473
   25SAPC  C310 3361   2.078   1.129   7.542  0.3847 -0.3016  0.2743
   25SAPC  H10X 3362   2.067   1.239   7.542 -0.6360 -0.3850  0.9571
   25SAPC  H10Y 3363   2.184   1.095   7.545 -0.3377 -2.7184  1.2342
   25SAPC  C311 3364   2.024   1.071   7.682 -0.3501  0.1049 -0.2430
   25SAPC  H11X 3365   2.031   0.960   7.679  0.8456  0.1541 -0.0170
   25SAPC  H11Y 3366   1.918   1.103   7.682  0.7584  4.3905 -0.3361
   25SAPC  C312 3367   2.107   1.128   7.798  0.1423  0.7576 -0.1493
   25SAPC  H12X 3368   2.070   1.230   7.818  0.5595  0.9194 -0.1786
   25SAPC  H12Y 3369   2.208   1.133   7.751  0.6932  0.1058  0.9237
   25SAPC  C313 3370   2.116   1.033   7.926 -0.0498  0.3340  0.2840
   25SAPC  H13X 3371   2.173   1.067   8.015 -1.7963  2.7759  0.6036
   25SAPC  H13Y 3372   2.159   0.940   7.883 -0.7741 -0.6240  1.5730
   25SAPC  C314 3373   1.978   1.011   7.990  0.0742 -0.1159 -0.4301
   25SAPC  H14X 3374   1.975   0.910   8.035  0.7439  0.0216 -0.0725
   25SAPC  H14Y 3375   1.894   1.010   7.917 -0.5574 -1.9102  0.2832
   25SAPC  C315 3376   1.929   1.106   8.103 -0.4083 -0.8014 -0.3558
   25SAPC  H15X 3377   1.933   1.212   8.070  2.5976  0.2819  2.8393
   25SAPC  H15Y 3378   1.987   1.089   8.196 -1.4600 -1.0428  0.2586
   25SAPC  C316 3379   1.782   1.078   8.133  0.4346 -0.0467  0.0962
   25SAPC  H16X 3380   1.772   0.967   8.133 -2.5355  0.1380  1.5466
   25SAPC  H16Y 3381   1.736   1.131   8.047 -1.2986 -1.7160 -0.0729
   25SAPC  C317 3382   1.725   1.139   8.257  0.0469 -0.6733 -0.3230
   25SAPC  H17X 3383   1.781   1.116   8.350 -0.8975  0.4998  0.5694
   25SAPC  H17Y 3384   1.627   1.087   8.262  0.8438 -2.1592  0.4216
   25SAPC  C318 3385   1.710   1.294   8.249 -0.1188 -0.5415  0.2931
   25SAPC  H18X 3386   1.632   1.328   8.178 -1.0471 -4.5049 -0.8674
   25SAPC  H18Y 3387   1.805   1.335   8.211  0.1512  2.3849  3.6350
   25SAPC  H18Z 3388   1.697   1.348   8.345  0.0872 -0.7946  0.4644
   26SAPC     N 3389   0.562   5.739   6.191 -0.5766  0.3409  0.1658
   26SAPC   C12 3390   0.677   5.693   6.276  0.1901 -0.2501  0.5018
   26SAPC  H12A 3391   0.726   5.779   6.321 -2.3742  1.8517 -0.4502
   26SAPC  H12B 3392   0.744   5.647   6.205  1.6919 -0.1442  1.7924
   26SAPC   C13 3393   0.499   5.627   6.119  0.3523  0.2071 -0.6169
   26SAPC  H13A 3394   0.467   5.551   6.189  0.9231  0.2074 -0.3608
   26SAPC  H13B 3395   0.411   5.653   6.061 -1.0281 -0.9728  0.8536
   26SAPC  H13C 3396   0.564   5.575   6.050 -1.8052 -0.6111 -2.1669
   26SAPC   C14 3397   0.453   5.799   6.267  0.1613 -0.0691 -0.8114
   26SAPC  H14A 3398   0.411   5.719   6.326 -0.0170  0.9292  0.4610
   26SAPC  H14B 3399   0.479   5.886   6.326 -1.0652 -0.0054 -0.3319
   26SAPC  H14C 3400   0.376   5.838   6.202  1.1863 -0.1590 -2.1137
   26SAPC   C15 3401   0.609   5.838   6.087  0.5733  0.1837  1.8224
   26SAPC  H15A 3402   0.693   5.803   6.029 -0.2634  0.3434  0.4863
   26SAPC  H15B 3403   0.536   5.851   6.009  1.0659  1.1047  1.5144
   26SAPC  H15C 3404   0.623   5.939   6.122  1.0112  1.1664 -0.9438
   26SAPC   C11 3405   0.651   5.598   6.391  0.2649 -0.7024 -0.4228
   26SAPC  H11A 3406   0.594   5.658   6.466 -1.7154 -0.9560 -1.6549
   26SAPC  H11B 3407   0.747   5.572   6.441  0.4766  0.5962 -0.0893
   26SAPC     P 3408   0.637   5.363   6.283  0.1238 -0.0832 -0.0572
   26SAPC   O13 3409   0.521   5.300   6.212 -0.0556 -0.1837 -0.0523
   26SAPC   O14 3410   0.745   5.405   6.194  0.0395 -0.0552 -0.1057
   26SAPC   O12 3411   0.576   5.485   6.371  0.0785 -0.0056  0.0014
   26SAPC   O11 3412   0.693   5.263   6.384 -0.0969 -0.4306  0.3626
   26SAPC    C1 3413   0.640   5.247   6.523 -0.6298 -0.2334 -0.3161
   26SAPC    HA 3414   0.550   5.307   6.550 -0.5860  0.2383 -1.1777
   26SAPC    HB 3415   0.606   5.143   6.541 -0.9808 -0.1602 -0.5349
   26SAPC    C2 3416   0.749   5.291   6.628 -0.3576  0.2035  0.0684
   26SAPC    HS 3417   0.801   5.380   6.588  1.5759 -0.5767  0.7632
   26SAPC   O21 3418   0.832   5.183   6.658 -0.4105  0.0423  0.4666
   26SAPC   C21 3419   0.946   5.213   6.711 -0.2789 -0.3145 -0.3926
   26SAPC   O22 3420   0.992   5.326   6.729 -0.2015 -0.2973  0.1703
   26SAPC   C22 3421   1.014   5.079   6.757 -0.1245  0.6804 -0.1303
   26SAPC   H2R 3422   0.940   5.035   6.827  0.7056  0.2643  0.5098
   26SAPC   H2S 3423   1.019   5.001   6.679 -3.2125  1.2264 -0.9972
   26SAPC    C3 3424   0.683   5.336   6.760  0.8632 -0.4073 -0.4495
   26SAPC    HX 3425   0.642   5.240   6.799  0.9191  0.0224  0.7260
   26SAPC    HY 3426   0.598   5.406   6.742  1.0660 -0.4227 -1.5236
   26SAPC   O31 3427   0.772   5.392   6.856 -0.4344 -0.5064  0.1793
   26SAPC   C31 3428   0.812   5.523   6.849 -0.1295  0.0204 -0.4795
   26SAPC   O32 3429   0.771   5.605   6.767 -0.2663 -0.2485  0.2684
   26SAPC   C32 3430   0.895   5.561   6.976 -0.2134 -0.5456 -0.3386
   26SAPC   H2X 3431   0.902   5.671   6.990 -1.5699 -0.7347  2.4492
   26SAPC   H2Y 3432   0.993   5.520   6.943 -0.5236 -0.7197 -1.0734
   26SAPC   C23 3433   1.142   5.103   6.835 -0.3381 -0.0414  0.1349
   26SAPC   H3R 3434   1.215   5.165   6.778 -0.4791 -0.1369 -0.1501
   26SAPC   H3S 3435   1.200   5.008   6.835 -1.1376 -0.5555 -1.3222
   26SAPC   C24 3436   1.122   5.151   6.973 -0.3749  0.6651 -1.0088
   26SAPC   H4R 3437   1.070   5.249   6.966  0.3708  1.0946 -0.7565
   26SAPC   H4S 3438   1.216   5.182   7.025 -2.8829  2.3966  2.9652
   26SAPC   C25 3439   1.041   5.060   7.064  0.3554 -0.1196  0.0315
   26SAPC   H5R 3440   0.932   5.051   7.052  0.1347 -1.7731  2.4426
   26SAPC   C26 3441   1.080   4.995   7.179  0.0629 -0.0006 -0.2152
   26SAPC   H6R 3442   1.007   4.939   7.238  0.0242 -0.3078 -0.5470
   26SAPC   C27 3443   1.222   4.990   7.219 -0.2954 -0.4860 -1.1908
   26SAPC   H7R 3444   1.234   4.976   7.328  0.4730 -0.0648 -1.2099
   26SAPC   H7S 3445   1.266   5.088   7.192 -1.5210  0.6023  0.6195
   26SAPC   C28 3446   1.299   4.888   7.147  0.0262 -0.3663 -0.1086
   26SAPC   H8R 3447   1.238   4.797   7.135 -2.0314  1.0342 -0.7268
   26SAPC   C29 3448   1.425   4.885   7.108 -0.4400  0.3232  0.2874
   26SAPC   H9R 3449   1.466   4.801   7.050  0.3596  0.7784  0.1637
   26SAPC  C210 3450   1.520   5.002   7.146  0.3048 -0.1597  0.5847
   26SAPC  H10R 3451   1.485   5.048   7.241 -0.1266 -0.2903  0.4939
   26SAPC  H10S 3452   1.511   5.090   7.080 -0.3928  1.1190  2.3094
   26SAPC  C211 3453   1.656   4.955   7.160  0.2225 -0.5319  0.2974
   26SAPC  H11R 3454   1.724   4.974   7.076 -1.1570  2.2646 -0.3060
   26SAPC  C212 3455   1.709   4.912   7.277 -0.4474  0.9947 -0.3236
   26SAPC  H12R 3456   1.812   4.873   7.284 -0.7869  0.3121  1.4691
   26SAPC  C213 3457   1.636   4.897   7.411 -0.2261  0.3850  0.3158
   26SAPC  H13R 3458   1.672   4.815   7.476  2.4992  0.8570 -0.4681
   26SAPC  H13S 3459   1.529   4.872   7.391 -0.3431  1.9158 -1.2675
   26SAPC  C214 3460   1.633   5.022   7.493 -0.2759  0.0669 -1.4111
   26SAPC  H14R 3461   1.696   5.107   7.463  0.7015  0.1735  0.6983
   26SAPC  C215 3462   1.560   5.043   7.600 -0.6606  0.5983  0.0260
   26SAPC  H15R 3463   1.568   5.141   7.649  0.6530 -1.0021  3.2785
   26SAPC  C216 3464   1.459   4.942   7.664 -0.8729 -0.0151 -0.3709
   26SAPC  H16R 3465   1.465   4.852   7.600  2.5619  0.4843 -0.9424
   26SAPC  H16S 3466   1.354   4.972   7.685 -0.9480 -0.4399 -0.1289
   26SAPC  C217 3467   1.502   4.894   7.808  0.8621  0.1704 -0.1162
   26SAPC  H17R 3468   1.595   4.834   7.807  0.2228 -0.9022  1.2941
   26SAPC  H17S 3469   1.420   4.835   7.855  2.9278 -3.1083 -0.2636
   26SAPC  C218 3470   1.518   5.012   7.899 -0.1111 -0.3255 -0.1016
   26SAPC  H18R 3471   1.434   5.084   7.890  0.0827  0.0351  0.8497
   26SAPC  H18S 3472   1.609   5.071   7.874 -0.7419  0.9008  0.4155
   26SAPC  C219 3473   1.529   4.967   8.055  0.2744  0.4977  0.0765
   26SAPC  H19R 3474   1.445   4.897   8.071  1.1009 -1.1207 -2.1603
   26SAPC  H19S 3475   1.519   5.051   8.127  1.7611 -0.5467  1.5871
   26SAPC  C220 3476   1.659   4.891   8.083  1.0535  0.0770  0.0997
   26SAPC  H20R 3477   1.744   4.963   8.070  0.0375  1.0795 -1.3190
   26SAPC  H20S 3478   1.686   4.811   8.011  2.5313  0.2305  0.4426
   26SAPC  H20T 3479   1.647   4.834   8.177 -0.7254 -1.4113 -0.9735
   26SAPC   C33 3480   0.844   5.498   7.114 -0.5974 -0.5110  0.0902
   26SAPC   H3X 3481   0.810   5.393   7.102 -1.5792 -0.4796  2.0795
   26SAPC   H3Y 3482   0.755   5.550   7.155 -0.7879 -0.1386 -0.7749
   26SAPC   C34 3483   0.952   5.494   7.221 -0.2866 -0.3166  0.1040
   26SAPC   H4X 3484   0.961   5.586   7.282  0.0427 -1.4832  1.8883
   26SAPC   H4Y 3485   1.051   5.472   7.177 -0.6456  0.6332 -1.2749
   26SAPC   C35 3486   0.907   5.391   7.325  0.2491 -0.0816 -0.0477
   26SAPC   H5X 3487   0.894   5.295   7.270 -2.6691  2.0517 -3.6492
   26SAPC   H5Y 3488   0.819   5.427   7.382  0.6742  0.0896  0.5054
   26SAPC   C36 3489   1.019   5.357   7.423  0.6676 -0.2643 -0.6626
   26SAPC   H6X 3490   1.056   5.459   7.447  0.3112 -0.1239 -0.7054
   26SAPC   H6Y 3491   1.101   5.295   7.379  1.1044  0.1114 -0.3862
   26SAPC   C37 3492   0.970   5.297   7.556  0.8418 -0.2641  0.0935
   26SAPC   H7X 3493   1.058   5.301   7.624  0.1040 -1.0084  1.1277
   26SAPC   H7Y 3494   0.947   5.190   7.536  0.2762  0.2650 -2.4556
   26SAPC   C38 3495   0.857   5.362   7.631  0.4513  0.6265  0.1184
   26SAPC   H8X 3496   0.764   5.327   7.581  0.3718  1.3791 -0.2771
   26SAPC   H8Y 3497   0.870   5.472   7.620  4.2984  0.2901 -0.0547
   26SAPC   C39 3498   0.853   5.344   7.786 -0.0199 -0.2493 -0.6006
   26SAPC   H9X 3499   0.929   5.412   7.829 -1.7677  2.6801 -1.8421
   26SAPC   H9Y 3500   0.876   5.235   7.794 -0.0470 -0.4380 -2.5349
   26SAPC  C310 3501   0.710   5.373   7.842 -0.2392  0.6878  0.4619
   26SAPC  H10X 3502   0.635   5.307   7.794  0.1151 -0.3342  1.2670
   26SAPC  H10Y 3503   0.687   5.476   7.805  0.6976  0.2000 -1.6398
   26SAPC  C311 3504   0.705   5.354   7.997 -0.3614  0.4781 -0.8683
   26SAPC  H11X 3505   0.777   5.420   8.051  1.2101 -1.9502  0.1930
   26SAPC  H11Y 3506   0.750   5.253   8.011 -0.6652  0.2776 -1.2991
   26SAPC  C312 3507   0.563   5.349   8.055  0.3378 -0.3354 -0.9509
   26SAPC  H12X 3508   0.516   5.447   8.031 -0.8451 -0.3358  1.1088
   26SAPC  H12Y 3509   0.555   5.367   8.165  0.5971 -0.0467 -0.9791
   26SAPC  C313 3510   0.484   5.227   8.016 -0.0797 -0.2503  0.3331
   26SAPC  H13X 3511   0.516   5.188   7.917 -1.9295  0.9389 -0.7708
   26SAPC  H13Y 3512   0.381   5.265   8.000 -0.1608 -0.7190 -0.2936
   26SAPC  C314 3513   0.495   5.127   8.125 -0.1809 -0.5316 -0.1029
   26SAPC  H14X 3514   0.515   5.167   8.226  0.7318 -3.5192  1.0065
   26SAPC  H14Y 3515   0.594   5.081   8.102  0.7875  1.2341  0.3670
   26SAPC  C315 3516   0.384   5.022   8.120  0.8744 -0.3689  0.4914
   26SAPC  H15X 3517   0.365   4.999   8.012  5.3519 -2.4972 -0.0887
   26SAPC  H15Y 3518   0.295   5.074   8.161  1.1911  1.5577 -1.0969
   26SAPC  C316 3519   0.422   4.886   8.192 -0.1515 -0.3352  0.2798
   26SAPC  H16X 3520   0.508   4.847   8.133 -0.2689 -1.6151  0.9168
   26SAPC  H16Y 3521   0.341   4.811   8.178  0.0745 -1.4207  3.7245
   26SAPC  C317 3522   0.431   4.896   8.342 -0.4907  0.7843 -0.3343
   26SAPC  H17X 3523   0.347   4.963   8.369 -1.4473 -1.1045  1.7301
   26SAPC  H17Y 3524   0.527   4.936   8.379 -0.0277 -1.0197  0.5341
   26SAPC  C318 3525   0.429   4.765   8.429  0.6726  0.0451  0.4997
   26SAPC  H18X 3526   0.511   4.693   8.409 -0.6254 -2.0039  2.0986
   26SAPC  H18Y 3527   0.334   4.718   8.395  2.4850 -1.7502 -2.6117
   26SAPC  H18Z 3528   0.433   4.791   8.537  0.6559  0.8937  0.3046
   27SAPC     N 3529   2.374   1.694   6.338 -0.1490  0.0320 -0.0468
   27SAPC   C12 3530   2.337   1.777   6.461 -0.5983 -0.0042  0.4352
   27SAPC  H12A 3531   2.339   1.881   6.433  0.0054  0.0463  0.6577
   27SAPC  H12B 3532   2.418   1.754   6.528 -0.9646 -0.8882  0.5936
   27SAPC   C13 3533   2.306   1.732   6.215 -0.1992  1.0144  0.2104
   27SAPC  H13A 3534   2.286   1.836   6.194 -4.5943  0.4067  0.3660
   27SAPC  H13B 3535   2.356   1.688   6.130  0.1471  0.5512  0.6501
   27SAPC  H13C 3536   2.205   1.695   6.204 -0.1842  1.6645 -3.3864
   27SAPC   C14 3537   2.519   1.735   6.311  0.1027  0.1265 -0.4943
   27SAPC  H14A 3538   2.567   1.692   6.224  2.4026  0.9873  0.2608
   27SAPC  H14B 3539   2.536   1.842   6.311  0.7036  0.0461  0.5070
   27SAPC  H14C 3540   2.579   1.700   6.394 -1.0184  0.4264  0.4649
   27SAPC   C15 3541   2.362   1.548   6.373 -0.0376  0.5442  0.6913
   27SAPC  H15A 3542   2.366   1.480   6.289  1.3539 -2.3905  2.9654
   27SAPC  H15B 3543   2.445   1.514   6.433  1.4664  1.3987 -0.7913
   27SAPC  H15C 3544   2.268   1.521   6.416 -0.1448 -1.6681 -0.7761
   27SAPC   C11 3545   2.194   1.773   6.525  0.1967  0.5972  0.8305
   27SAPC  H11A 3546   2.198   1.807   6.631 -0.6816  0.6667  0.8468
   27SAPC  H11B 3547   2.128   1.684   6.521 -1.0626  1.3824 -4.9902
   27SAPC     P 3548   2.114   2.013   6.422  0.4488 -0.1541 -0.2155
   27SAPC   O13 3549   2.251   2.052   6.392 -0.6179  0.8022  0.0046
   27SAPC   O14 3550   2.009   2.051   6.327 -0.2301  0.3565  0.3750
   27SAPC   O12 3551   2.111   1.857   6.445  0.4408  0.3826 -0.3246
   27SAPC   O11 3552   2.070   2.074   6.561 -0.1483 -0.5076  0.1380
   27SAPC    C1 3553   1.945   2.032   6.618  0.2595 -0.5752  0.0551
   27SAPC    HA 3554   1.892   1.952   6.563  1.4186 -0.1938 -1.6916
   27SAPC    HB 3555   1.970   1.991   6.718  1.9496 -0.4443 -0.2867
   27SAPC    C2 3556   1.853   2.154   6.637  0.8508  0.5883  0.2090
   27SAPC    HS 3557   1.850   2.198   6.535 -0.6533  1.3199  0.5362
   27SAPC   O21 3558   1.902   2.251   6.729 -0.5796  0.6517  0.2969
   27SAPC   C21 3559   1.852   2.370   6.711  0.0457 -0.4953 -0.5496
   27SAPC   O22 3560   1.780   2.405   6.618 -0.0398 -0.2158  0.2914
   27SAPC   C22 3561   1.882   2.459   6.831 -1.1944 -0.1442  0.7912
   27SAPC   H2R 3562   1.899   2.401   6.925 -0.9109 -0.0522  0.7975
   27SAPC   H2S 3563   1.972   2.519   6.806 -1.8833  0.2324 -0.8876
   27SAPC    C3 3564   1.707   2.105   6.662  0.5736 -0.2276 -0.4962
   27SAPC    HX 3565   1.700   2.011   6.604  0.2205  0.2540 -1.2483
   27SAPC    HY 3566   1.640   2.179   6.612 -1.1213 -1.2583  0.1907
   27SAPC   O31 3567   1.679   2.082   6.803 -0.1601  0.2464  0.1238
   27SAPC   C31 3568   1.615   2.172   6.870  0.1566 -0.4308 -0.0928
   27SAPC   O32 3569   1.556   2.269   6.828  0.5541 -0.0249  0.1259
   27SAPC   C32 3570   1.648   2.164   7.020  0.6902  0.0748  0.2635
   27SAPC   H2X 3571   1.570   2.105   7.071 -0.3528  0.6073 -0.6756
   27SAPC   H2Y 3572   1.640   2.266   7.063 -1.0405  0.3172 -0.5828
   27SAPC   C23 3573   1.765   2.557   6.860  0.3620  0.5076 -0.7542
   27SAPC   H3R 3574   1.669   2.505   6.880 -1.2635  2.0686 -3.7318
   27SAPC   H3S 3575   1.748   2.627   6.775 -6.2113  0.1757 -0.2779
   27SAPC   C24 3576   1.803   2.653   6.975 -1.1393 -0.7171 -0.3316
   27SAPC   H4R 3577   1.718   2.724   6.979 -0.4287  0.1825 -0.7375
   27SAPC   H4S 3578   1.893   2.711   6.946 -0.9994 -1.0974 -0.6758
   27SAPC   C25 3579   1.829   2.582   7.104 -0.7498 -0.1773  0.5227
   27SAPC   H5R 3580   1.925   2.528   7.097  0.1798  1.5906 -2.9140
   27SAPC   C26 3581   1.743   2.573   7.206 -0.6834  0.7729  0.5235
   27SAPC   H6R 3582   1.782   2.545   7.305  2.4770 -0.3100 -0.8821
   27SAPC   C27 3583   1.609   2.642   7.204 -0.5534 -0.2313 -0.0402
   27SAPC   H7R 3584   1.602   2.730   7.136 -2.3504 -0.5948 -0.3562
   27SAPC   H7S 3585   1.583   2.682   7.305 -1.4054  0.3866 -0.4959
   27SAPC   C28 3586   1.509   2.549   7.144 -0.0447 -0.3103 -0.3894
   27SAPC   H8R 3587   1.467   2.572   7.045  0.5063  0.6018 -0.4223
   27SAPC   C29 3588   1.459   2.450   7.221  0.5221  0.1919 -0.5237
   27SAPC   H9R 3589   1.394   2.379   7.169  1.4601 -0.1757 -1.2255
   27SAPC  C210 3590   1.506   2.417   7.362  0.1714  0.3608  0.3169
   27SAPC  H10R 3591   1.466   2.503   7.420  0.7253  1.3364 -0.7080
   27SAPC  H10S 3592   1.617   2.421   7.370  0.2838  1.4793 -1.3105
   27SAPC  C211 3593   1.450   2.286   7.410 -0.7553 -0.5717  0.0827
   27SAPC  H11R 3594   1.425   2.210   7.335 -2.0385  0.7987 -0.9518
   27SAPC  C212 3595   1.451   2.233   7.531  0.1643 -0.3084 -0.3514
   27SAPC  H12R 3596   1.398   2.137   7.544  0.6556 -0.5982 -0.4451
   27SAPC  C213 3597   1.520   2.277   7.655  0.1508  1.0879  0.7192
   27SAPC  H13R 3598   1.550   2.384   7.647 -1.3177  1.4790  0.2705
   27SAPC  H13S 3599   1.617   2.222   7.650 -0.6708 -0.3020 -1.6907
   27SAPC  C214 3600   1.440   2.243   7.780 -0.0378 -0.2679 -0.7028
   27SAPC  H14R 3601   1.344   2.295   7.793 -0.1605 -0.9708  1.7893
   27SAPC  C215 3602   1.487   2.172   7.887 -0.3601  0.0912  0.0053
   27SAPC  H15R 3603   1.421   2.155   7.973 -1.7533 -1.5328 -1.3196
   27SAPC  C216 3604   1.627   2.112   7.892 -0.0479 -0.0173 -0.7430
   27SAPC  H16R 3605   1.681   2.112   7.795  1.4491  2.6991 -0.0281
   27SAPC  H16S 3606   1.635   2.012   7.939 -2.5445 -0.5247 -1.2740
   27SAPC  C217 3607   1.713   2.200   7.985  0.2352 -0.0211  0.4624
   27SAPC  H17R 3608   1.729   2.300   7.939  3.4833 -1.4858 -1.9945
   27SAPC  H17S 3609   1.817   2.160   7.988  0.9008  1.3672 -1.8420
   27SAPC  C218 3610   1.661   2.219   8.132  0.2835  0.2208 -0.1439
   27SAPC  H18R 3611   1.639   2.115   8.164 -0.5345 -0.5033 -2.7524
   27SAPC  H18S 3612   1.567   2.277   8.124 -2.0384 -2.8445  2.4697
   27SAPC  C219 3613   1.759   2.272   8.232 -0.3475 -0.6391  0.1889
   27SAPC  H19R 3614   1.854   2.214   8.231 -0.4227 -0.7804 -0.8692
   27SAPC  H19S 3615   1.722   2.271   8.337 -0.8985  0.4002  0.0164
   27SAPC  C220 3616   1.795   2.418   8.199 -0.3008  0.1545  0.5138
   27SAPC  H20R 3617   1.699   2.470   8.181 -0.6631 -0.5933  0.2483
   27SAPC  H20S 3618   1.859   2.420   8.108 -0.6298  0.0080  0.2813
   27SAPC  H20T 3619   1.866   2.468   8.268  0.3130  1.6605 -1.1182
   27SAPC   C33 3620   1.781   2.104   7.055 -0.2945  0.0458  0.9736
   27SAPC   H3X 3621   1.856   2.146   6.984 -0.6596 -0.1304  0.4796
   27SAPC   H3Y 3622   1.783   1.992   7.054 -0.8576  0.0237  1.7367
   27SAPC   C34 3623   1.828   2.144   7.192  1.0741 -0.1388 -0.2824
   27SAPC   H4X 3624   1.749   2.107   7.261  0.2686  2.4738  0.3054
   27SAPC   H4Y 3625   1.835   2.255   7.193  3.9644 -0.2576 -0.1448
   27SAPC   C35 3626   1.958   2.099   7.251 -0.3240  0.1200  0.8705
   27SAPC   H5X 3627   2.046   2.148   7.204 -0.0528  0.8628  2.1242
   27SAPC   H5Y 3628   1.974   1.989   7.239 -0.2578 -0.0993  2.6392
   27SAPC   C36 3629   1.964   2.135   7.398 -0.4292 -0.0308 -0.4749
   27SAPC   H6X 3630   2.071   2.127   7.425 -0.2728  3.3747  0.4421
   27SAPC   H6Y 3631   1.914   2.063   7.466  0.0955 -0.6854 -0.7810
   27SAPC   C37 3632   1.918   2.279   7.442  0.2710  0.4833  0.4201
   27SAPC   H7X 3633   1.812   2.291   7.413 -1.2643 -4.5860  2.7157
   27SAPC   H7Y 3634   1.980   2.340   7.373 -1.5702  2.7985  0.7294
   27SAPC   C38 3635   1.940   2.318   7.590 -0.0478  0.6719 -0.8712
   27SAPC   H8X 3636   1.877   2.257   7.659  1.2936  0.9545  0.6471
   27SAPC   H8Y 3637   1.902   2.422   7.593  0.9649  1.0231  0.7974
   27SAPC   C39 3638   2.080   2.315   7.644  0.0718 -0.0630 -0.2498
   27SAPC   H9X 3639   2.148   2.380   7.585 -0.3402  0.7488  0.1506
   27SAPC   H9Y 3640   2.121   2.212   7.653 -2.0011 -1.0707 -1.7100
   27SAPC  C310 3641   2.065   2.367   7.790  0.0838 -0.4874 -0.8583
   27SAPC  H10X 3642   1.995   2.294   7.836 -3.4710  1.6928 -2.3180
   27SAPC  H10Y 3643   2.003   2.459   7.785  0.0521 -0.5351 -1.5106
   27SAPC  C311 3644   2.191   2.380   7.880 -0.1216 -0.3474  0.7909
   27SAPC  H11X 3645   2.271   2.443   7.834  1.6172 -0.6955  3.1751
   27SAPC  H11Y 3646   2.227   2.276   7.894 -0.4929 -0.2362  2.9364
   27SAPC  C312 3647   2.166   2.430   8.020 -0.1920 -0.2875 -0.7885
   27SAPC  H12X 3648   2.086   2.377   8.076 -0.0382  0.8214  0.5322
   27SAPC  H12Y 3649   2.143   2.538   8.004  0.2713 -0.0264  0.2413
   27SAPC  C313 3650   2.284   2.431   8.111 -0.2111 -0.0980 -0.7246
   27SAPC  H13X 3651   2.368   2.489   8.068 -0.0837 -0.8408 -1.4982
   27SAPC  H13Y 3652   2.332   2.332   8.125  0.5397  0.5689  1.9651
   27SAPC  C314 3653   2.244   2.489   8.248  0.5473  0.6403  0.1765
   27SAPC  H14X 3654   2.174   2.574   8.233  1.1004  0.7808 -2.0875
   27SAPC  H14Y 3655   2.334   2.527   8.302  1.1142 -1.6345  0.9157
   27SAPC  C315 3656   2.172   2.382   8.336 -0.0150 -0.2616  0.2575
   27SAPC  H15X 3657   2.250   2.315   8.377  0.3930  0.1104  0.1013
   27SAPC  H15Y 3658   2.102   2.326   8.271  0.4635 -0.6819  0.0997
   27SAPC  C316 3659   2.100   2.444   8.456 -0.0950 -0.7120 -1.0111
   27SAPC  H16X 3660   2.033   2.531   8.438  1.3825  0.7496  0.2214
   27SAPC  H16Y 3661   2.179   2.492   8.517 -1.5105 -0.3937  0.6422
   27SAPC  C317 3662   2.025   2.341   8.538 -0.5226  0.4123  0.9146
   27SAPC  H17X 3663   2.106   2.273   8.571 -0.6630  0.0190  0.4644
   27SAPC  H17Y 3664   1.957   2.294   8.464 -2.5805  2.5545  1.3292
   27SAPC  C318 3665   1.944   2.407   8.645  0.4735 -0.2637  0.0120
   27SAPC  H18X 3666   1.873   2.484   8.608 -0.6687 -0.6743  1.2911
   27SAPC  H18Y 3667   2.011   2.436   8.730 -1.2096 -1.1089  1.6984
   27SAPC  H18Z 3668   1.880   2.327   8.688 -0.4963  1.1488  1.3084
   28SAPC     N 3669   3.689   6.312   5.953  0.3307  0.0870 -0.3332
   28SAPC   C12 3670   3.604   6.289   6.076  0.6707 -0.2753 -0.8492
   28SAPC  H12A 3671   3.547   6.200   6.055  0.9762 -0.1253 -2.4041
   28SAPC  H12B 3672   3.533   6.371   6.080 -0.9895 -1.6749 -0.7364
   28SAPC   C13 3673   3.606   6.299   5.831  0.0402 -0.5776 -0.4476
   28SAPC  H13A 3674   3.525   6.370   5.834 -1.2298 -1.9713  1.3703
   28SAPC  H13B 3675   3.656   6.319   5.738  2.4899 -0.6138  0.7907
   28SAPC  H13C 3676   3.557   6.203   5.823  0.2369 -0.9134  1.7234
   28SAPC   C14 3677   3.739   6.454   5.963 -0.4502  0.1611  0.0038
   28SAPC  H14A 3678   3.837   6.460   6.009  0.5270 -0.2113 -1.9057
   28SAPC  H14B 3679   3.746   6.487   5.860 -0.8113 -0.4696 -0.2251
   28SAPC  H14C 3680   3.666   6.515   6.013 -1.2768 -1.2664  0.5988
   28SAPC   C15 3681   3.805   6.224   5.948 -0.0245  0.2213 -0.2621
   28SAPC  H15A 3682   3.837   6.221   6.051 -2.4895  1.1422  0.6009
   28SAPC  H15B 3683   3.778   6.126   5.914  0.0662  0.2294 -0.3592
   28SAPC  H15C 3684   3.875   6.272   5.882 -0.0384  3.3201  1.7659
   28SAPC   C11 3685   3.664   6.281   6.221 -0.2303  0.6902  0.0040
   28SAPC  H11A 3686   3.572   6.286   6.284  0.3787  1.8147  0.8410
   28SAPC  H11B 3687   3.733   6.365   6.243  0.6133 -0.1995  0.8353
   28SAPC     P 3688   3.650   6.017   6.245  0.6091 -0.6253 -0.1320
   28SAPC   O13 3689   3.519   6.032   6.180  0.5882 -0.2222 -0.1096
   28SAPC   O14 3690   3.729   5.898   6.207  0.4984  0.0895  0.2205
   28SAPC   O12 3691   3.730   6.153   6.228 -0.5847 -0.0875  0.2660
   28SAPC   O11 3692   3.611   6.007   6.399  0.2520  0.3835  0.1674
   28SAPC    C1 3693   3.719   6.041   6.479  0.2325 -0.6444  0.1380
   28SAPC    HA 3694   3.815   6.005   6.437  0.5421  0.0903  0.2000
   28SAPC    HB 3695   3.736   6.151   6.482  0.6738 -0.7218  2.3690
   28SAPC    C2 3696   3.704   5.987   6.627 -0.0604 -0.3420 -0.0634
   28SAPC    HS 3697   3.724   5.878   6.625  0.1856 -0.3100  0.5485
   28SAPC   O21 3698   3.580   6.038   6.676 -0.6033 -0.4723 -0.1754
   28SAPC   C21 3699   3.536   5.952   6.769 -0.3575 -0.5305 -0.0796
   28SAPC   O22 3700   3.594   5.850   6.800 -0.5467 -0.6252 -0.1042
   28SAPC   C22 3701   3.404   6.008   6.825 -0.2017 -0.5710  0.9969
   28SAPC   H2R 3702   3.422   6.115   6.845 -2.1348 -0.1825  0.8720
   28SAPC   H2S 3703   3.326   5.999   6.745 -0.0097 -1.2324  0.8740
   28SAPC    C3 3704   3.829   6.043   6.711 -0.2206  0.2644  1.0284
   28SAPC    HX 3705   3.849   6.151   6.700  2.6308 -0.1663  1.1455
   28SAPC    HY 3706   3.912   5.987   6.663 -2.2437 -1.2224 -0.9466
   28SAPC   O31 3707   3.834   5.998   6.842  0.5458 -0.4035  0.1273
   28SAPC   C31 3708   3.924   6.043   6.923 -0.4042  0.5613  0.3116
   28SAPC   O32 3709   4.013   6.115   6.897 -0.5710 -0.2188  0.2745
   28SAPC   C32 3710   3.900   5.982   7.057 -0.2819 -0.3783  0.8342
   28SAPC   H2X 3711   3.945   5.881   7.066  1.9407  0.4723  0.2218
   28SAPC   H2Y 3712   3.790   5.974   7.067 -0.4657  0.2048 -0.4055
   28SAPC   C23 3713   3.360   5.943   6.955  0.2084  0.8926  0.0246
   28SAPC   H3R 3714   3.440   5.954   7.031 -1.1077  2.1694  1.2820
   28SAPC   H3S 3715   3.343   5.836   6.928 -0.2503  0.9813 -0.0375
   28SAPC   C24 3716   3.242   6.016   7.011 -0.5452 -0.1632 -0.6728
   28SAPC   H4R 3717   3.171   6.034   6.928 -0.1096  0.8273 -0.8573
   28SAPC   H4S 3718   3.186   5.958   7.087 -1.2368  1.7343  0.3347
   28SAPC   C25 3719   3.280   6.145   7.086  0.0410 -0.3087  1.1621
   28SAPC   H5R 3720   3.322   6.227   7.026 -1.4899 -0.7243 -0.5931
   28SAPC   C26 3721   3.262   6.181   7.215  0.3922  0.1857  0.4818
   28SAPC   H6R 3722   3.287   6.282   7.251 -1.1896  0.0621  2.0764
   28SAPC   C27 3723   3.203   6.094   7.326 -0.5602 -0.2058 -0.2793
   28SAPC   H7R 3724   3.283   6.047   7.386 -1.7417 -1.0733  0.6542
   28SAPC   H7S 3725   3.146   6.012   7.277  2.8295 -0.5578 -4.2132
   28SAPC   C28 3726   3.111   6.179   7.408  0.2188  0.0238 -0.2295
   28SAPC   H8R 3727   3.061   6.256   7.347  4.3322  0.9809 -2.7689
   28SAPC   C29 3728   3.094   6.180   7.542 -1.0127  0.3333  0.2279
   28SAPC   H9R 3729   3.013   6.244   7.580 -0.8664 -0.2671  1.5982
   28SAPC  C210 3730   3.159   6.095   7.651 -0.2659 -0.4920  0.4518
   28SAPC  H10R 3731   3.256   6.141   7.681 -0.5984 -0.0654  0.9102
   28SAPC  H10S 3732   3.191   5.997   7.613  2.0167 -1.6245  4.6400
   28SAPC  C211 3733   3.064   6.067   7.766 -0.5509 -0.4781  0.6438
   28SAPC  H11R 3734   3.040   5.961   7.785 -0.0143 -0.4572  1.4555
   28SAPC  C212 3735   3.043   6.155   7.860 -0.0477 -0.1322  0.2225
   28SAPC  H12R 3736   2.974   6.138   7.944 -1.8984  0.6799 -1.0646
   28SAPC  C213 3737   3.113   6.291   7.860 -0.1295 -0.1081 -0.0370
   28SAPC  H13R 3738   3.081   6.342   7.768 -1.0421 -1.0177 -0.2426
   28SAPC  H13S 3739   3.223   6.283   7.849  0.0256  1.2413  0.3351
   28SAPC  C214 3740   3.093   6.368   7.986 -0.9240  0.7160  0.9810
   28SAPC  H14R 3741   3.052   6.469   7.969 -0.0006  0.6867 -1.9971
   28SAPC  C215 3742   3.119   6.337   8.113  1.4680  0.1540  0.1248
   28SAPC  H15R 3743   3.083   6.414   8.183  3.6773  0.1062  1.4091
   28SAPC  C216 3744   3.177   6.210   8.163  0.2348 -0.0142  0.1184
   28SAPC  H16R 3745   3.284   6.223   8.187  0.0740  0.3098  0.6911
   28SAPC  H16S 3746   3.167   6.128   8.088 -1.1887 -0.1043  0.3738
   28SAPC  C217 3747   3.102   6.161   8.288 -0.5286 -0.1036  0.1449
   28SAPC  H17R 3748   3.129   6.055   8.308 -0.0180 -0.6361 -2.8797
   28SAPC  H17S 3749   2.992   6.149   8.275 -0.1522 -2.7259 -1.2750
   28SAPC  C218 3750   3.119   6.250   8.414 -0.1309  0.4552 -0.6596
   28SAPC  H18R 3751   3.137   6.353   8.376  2.8269 -0.0158 -0.8372
   28SAPC  H18S 3752   3.205   6.212   8.473 -1.5599 -0.5527  0.8643
   28SAPC  C219 3753   3.003   6.240   8.513 -0.3961 -0.2562  0.0056
   28SAPC  H19R 3754   3.003   6.137   8.556  0.7576 -0.7748 -1.1765
   28SAPC  H19S 3755   2.912   6.257   8.451  1.2362 -0.6281 -2.6344
   28SAPC  C220 3756   3.009   6.354   8.617  0.1731  0.0948  0.7528
   28SAPC  H20R 3757   2.953   6.444   8.583 -0.5462 -0.3248  0.8177
   28SAPC  H20S 3758   3.113   6.380   8.645  1.4070  0.8968 -3.7133
   28SAPC  H20T 3759   2.963   6.317   8.711  0.1285 -0.2190  0.6097
   28SAPC   C33 3760   3.929   6.085   7.174 -0.2120  0.5410 -0.0011
   28SAPC   H3X 3761   3.887   6.186   7.158  2.4677  1.9939  1.3274
   28SAPC   H3Y 3762   4.040   6.090   7.187 -0.3423  1.2433  0.8946
   28SAPC   C34 3763   3.858   6.037   7.301  0.2480 -0.4089  0.2738
   28SAPC   H4X 3764   3.895   5.933   7.313 -0.8781 -0.7496  0.9305
   28SAPC   H4Y 3765   3.748   6.044   7.287  0.0910 -0.5345  1.3937
   28SAPC   C35 3766   3.887   6.128   7.415 -0.5134 -0.4488 -0.6201
   28SAPC   H5X 3767   3.856   6.233   7.395  1.9737  0.4658  0.0255
   28SAPC   H5Y 3768   3.994   6.119   7.443 -0.8767 -2.0912  0.3920
   28SAPC   C36 3769   3.807   6.085   7.544 -0.1974 -0.3588 -0.7073
   28SAPC   H6X 3770   3.802   5.975   7.557 -0.4497 -0.5836 -2.4561
   28SAPC   H6Y 3771   3.698   6.108   7.545  0.3314  2.8760  2.2160
   28SAPC   C37 3772   3.882   6.133   7.666  0.0277 -0.4482  0.0632
   28SAPC   H7X 3773   3.898   6.243   7.655 -1.8711 -0.1182  0.2879
   28SAPC   H7Y 3774   3.985   6.095   7.649  1.0671  1.2537  2.0288
   28SAPC   C38 3775   3.825   6.087   7.796 -0.1573  0.2427 -0.1667
   28SAPC   H8X 3776   3.804   5.978   7.804 -1.6262  0.4273 -1.1561
   28SAPC   H8Y 3777   3.718   6.116   7.801 -0.3396 -0.3133 -0.8488
   28SAPC   C39 3778   3.906   6.141   7.914 -0.5745 -0.1299  0.2485
   28SAPC   H9X 3779   3.920   6.251   7.906  2.0256 -0.4509 -0.6298
   28SAPC   H9Y 3780   4.013   6.117   7.893 -0.5238  0.7217 -0.4963
   28SAPC  C310 3781   3.851   6.105   8.053  0.5501 -0.0543 -0.1571
   28SAPC  H10X 3782   3.842   5.995   8.062 -2.6308  0.0458 -0.6653
   28SAPC  H10Y 3783   3.749   6.148   8.067  1.4048  1.5767  1.4152
   28SAPC  C311 3784   3.940   6.149   8.176 -0.2410  0.0062 -0.0591
   28SAPC  H11X 3785   4.021   6.221   8.155  1.3320 -1.1266  1.8359
   28SAPC  H11Y 3786   4.007   6.068   8.211  1.6154  0.6841 -1.8712
   28SAPC  C312 3787   3.851   6.209   8.287  0.3975 -0.1943 -0.1630
   28SAPC  H12X 3788   3.774   6.135   8.319  0.5255  0.2548  1.2567
   28SAPC  H12Y 3789   3.792   6.291   8.239  1.3607 -0.2702 -1.5391
   28SAPC  C313 3790   3.928   6.253   8.408  0.8663  0.0782 -0.5238
   28SAPC  H13X 3791   4.010   6.323   8.382  1.4530 -0.2109  0.4835
   28SAPC  H13Y 3792   3.981   6.164   8.450  2.9197  0.9885 -1.0335
   28SAPC  C314 3793   3.852   6.325   8.518  0.1239  0.0228  0.0773
   28SAPC  H14X 3794   3.933   6.339   8.592 -0.0511  2.7566 -0.1728
   28SAPC  H14Y 3795   3.784   6.249   8.562  1.2802 -0.7412  0.5996
   28SAPC  C315 3796   3.785   6.457   8.484 -0.4928 -0.0782  0.3304
   28SAPC  H15X 3797   3.723   6.440   8.393 -0.9117 -1.3111  0.8317
   28SAPC  H15Y 3798   3.866   6.532   8.475  0.0123 -0.7553 -0.8660
   28SAPC  C316 3799   3.684   6.479   8.591 -0.0067 -0.0571 -0.5170
   28SAPC  H16X 3800   3.720   6.439   8.688  1.0629 -0.6201 -1.1184
   28SAPC  H16Y 3801   3.587   6.426   8.576  0.0816 -0.5911  0.7164
   28SAPC  C317 3802   3.653   6.633   8.614  0.1742  0.3252 -0.0724
   28SAPC  H17X 3803   3.618   6.683   8.521 -1.5748 -0.5201  0.0736
   28SAPC  H17Y 3804   3.747   6.682   8.646 -0.7918  2.0014  0.3224
   28SAPC  C318 3805   3.562   6.656   8.737  0.1568  0.0524  0.3121
   28SAPC  H18X 3806   3.458   6.624   8.713 -0.1569  0.2157  1.3732
   28SAPC  H18Y 3807   3.557   6.765   8.756  1.3346 -0.3634  3.7238
   28SAPC  H18Z 3808   3.591   6.606   8.832  0.6703  1.0643  0.6975
   29SAPC     N 3809   0.250   2.655   6.191 -0.9088 -0.1482  0.0713
   29SAPC   C12 3810   0.291   2.783   6.271  0.6300  1.2906  0.9774
   29SAPC  H12A 3811   0.397   2.775   6.288  0.9257 -0.3891 -1.2576
   29SAPC  H12B 3812   0.247   2.779   6.370  0.6743  1.4113  1.0024
   29SAPC   C13 3813   0.101   2.661   6.171 -0.5664  0.4763 -0.4679
   29SAPC  H13A 3814   0.064   2.757   6.139 -1.0862  0.2361 -0.5911
   29SAPC  H13B 3815   0.061   2.594   6.097  0.3526 -0.1859 -0.3884
   29SAPC  H13C 3816   0.055   2.646   6.268 -0.5938  0.9797 -0.4000
   29SAPC   C14 3817   0.311   2.656   6.050 -0.2865  0.7099  0.1537
   29SAPC  H14A 3818   0.416   2.681   6.057 -0.6132  2.1675  0.0873
   29SAPC  H14B 3819   0.286   2.567   5.994  0.7811  0.6410 -0.2297
   29SAPC  H14C 3820   0.260   2.728   5.989  0.7169  0.6977 -0.7218
   29SAPC   C15 3821   0.304   2.531   6.259 -0.2279  0.1910  0.1511
   29SAPC  H15A 3822   0.258   2.520   6.356 -0.0376  0.6088  0.2941
   29SAPC  H15B 3823   0.286   2.440   6.204  0.8903 -0.8312  1.4071
   29SAPC  H15C 3824   0.410   2.541   6.277  0.0911  0.2473 -1.6010
   29SAPC   C11 3825   0.271   2.923   6.208  0.1678 -0.0960 -0.2425
   29SAPC  H11A 3826   0.254   3.000   6.286 -1.4641  1.6531 -2.1767
   29SAPC  H11B 3827   0.176   2.924   6.150  0.7286  2.6717 -1.2688
   29SAPC     P 3828   0.400   3.116   6.081  0.1836  0.3475  0.1701
   29SAPC   O13 3829   0.523   3.134   5.997 -0.7925 -0.3619  0.4391
   29SAPC   O14 3830   0.271   3.173   6.032  0.1258 -0.1689  0.7360
   29SAPC   O12 3831   0.377   2.962   6.116 -0.1457 -0.2173 -0.4455
   29SAPC   O11 3832   0.421   3.177   6.224 -0.4941 -0.3476 -0.0973
   29SAPC    C1 3833   0.539   3.144   6.297 -0.4236  0.1710 -0.0685
   29SAPC    HA 3834   0.570   3.039   6.277 -2.2504 -0.2838 -0.7235
   29SAPC    HB 3835   0.629   3.200   6.263  1.1577 -3.1340 -1.7702
   29SAPC    C2 3836   0.525   3.167   6.451  0.4054 -0.1319  0.6299
   29SAPC    HS 3837   0.463   3.089   6.499  2.0965 -0.7564  1.8598
   29SAPC   O21 3838   0.475   3.302   6.472  0.5549 -0.0845 -0.2049
   29SAPC   C21 3839   0.351   3.314   6.508  0.8355  0.3464  0.7387
   29SAPC   O22 3840   0.275   3.218   6.533  0.7551 -0.0824 -0.2007
   29SAPC   C22 3841   0.304   3.464   6.513 -0.2452  0.1828  0.0561
   29SAPC   H2R 3842   0.344   3.499   6.415 -2.7058 -2.2345 -1.9709
   29SAPC   H2S 3843   0.193   3.477   6.517 -0.5174 -1.7251 -0.3815
   29SAPC    C3 3844   0.663   3.144   6.522  0.9174  0.3538 -0.0709
   29SAPC    HX 3845   0.745   3.204   6.478  0.3686  0.1978 -1.3408
   29SAPC    HY 3846   0.691   3.041   6.491  1.5995  0.1155  1.2496
   29SAPC   O31 3847   0.649   3.144   6.667  0.2103 -0.2963  0.2307
   29SAPC   C31 3848   0.686   3.258   6.719 -0.4060 -0.1658 -0.1376
   29SAPC   O32 3849   0.701   3.364   6.664 -0.0067 -0.0747  0.0274
   29SAPC   C32 3850   0.697   3.240   6.867  0.3359  0.0534  0.1073
   29SAPC   H2X 3851   0.731   3.139   6.898  0.9359  0.4985  0.9111
   29SAPC   H2Y 3852   0.594   3.253   6.906 -1.2539 -2.5483 -2.7059
   29SAPC   C23 3853   0.378   3.541   6.620 -0.6631  0.6012  0.6083
   29SAPC   H3R 3854   0.350   3.648   6.614  0.1706  0.8383  0.8601
   29SAPC   H3S 3855   0.485   3.545   6.590 -0.9603 -0.1523 -0.6140
   29SAPC   C24 3856   0.356   3.484   6.761 -0.1410 -0.1171  0.1423
   29SAPC   H4R 3857   0.388   3.378   6.769  0.4203 -0.1806 -2.2909
   29SAPC   H4S 3858   0.245   3.484   6.765 -0.5356  2.1831 -4.4104
   29SAPC   C25 3859   0.410   3.571   6.865  0.5354 -0.2175  0.6634
   29SAPC   H5R 3860   0.513   3.548   6.893  1.3244  1.8318 -0.3563
   29SAPC   C26 3861   0.352   3.679   6.919 -0.4827  0.6342  0.2048
   29SAPC   H6R 3862   0.404   3.739   6.995 -0.2970 -0.2362  0.7708
   29SAPC   C27 3863   0.215   3.732   6.889 -0.0144  0.0097 -0.1845
   29SAPC   H7R 3864   0.167   3.677   6.804  0.4949 -0.9780  0.1476
   29SAPC   H7S 3865   0.235   3.838   6.864  2.6985 -0.8691 -2.3121
   29SAPC   C28 3866   0.115   3.710   6.994 -0.1201  0.0667  0.5070
   29SAPC   H8R 3867   0.068   3.611   7.003  0.5275 -0.2712  0.2080
   29SAPC   C29 3868   0.066   3.812   7.074 -0.7699  0.0706  0.7216
   29SAPC   H9R 3869   0.002   3.792   7.161 -0.8630  3.0502  1.4262
   29SAPC  C210 3870   0.105   3.957   7.066  0.3502 -0.0573  0.5590
   29SAPC  H10R 3871   0.089   4.005   6.967  1.3374  0.8244  0.8164
   29SAPC  H10S 3872   0.211   3.960   7.098  0.0934  1.8259  1.3747
   29SAPC  C211 3873   0.032   4.044   7.170 -0.7809 -0.3421 -0.0930
   29SAPC  H11R 3874  -0.070   4.074   7.141 -0.4526 -0.0964 -1.0363
   29SAPC  C212 3875   0.076   4.095   7.287  0.5355  0.7233  0.5518
   29SAPC  H12R 3876   0.008   4.152   7.352 -0.1968  1.1197 -0.5296
   29SAPC  C213 3877   0.220   4.076   7.342  0.0455  0.3821 -1.0902
   29SAPC  H13R 3878   0.287   4.154   7.302  1.2969 -0.7020 -1.1720
   29SAPC  H13S 3879   0.258   3.976   7.313 -0.0303 -0.3325  1.1206
   29SAPC  C214 3880   0.210   4.096   7.491  0.6391  0.0008 -0.3475
   29SAPC  H14R 3881   0.107   4.097   7.529  1.1057  0.3223  0.9518
   29SAPC  C215 3882   0.304   4.105   7.579 -0.2012 -0.3101 -0.1723
   29SAPC  H15R 3883   0.279   4.124   7.685  0.1314  0.3836 -0.2117
   29SAPC  C216 3884   0.449   4.109   7.538  0.0386 -0.5808  0.4816
   29SAPC  H16R 3885   0.488   4.208   7.505  2.9156 -1.7297  0.1462
   29SAPC  H16S 3886   0.465   4.037   7.455 -1.3905 -0.8267  0.3920
   29SAPC  C217 3887   0.535   4.045   7.653 -0.3685  0.2321  0.1126
   29SAPC  H17R 3888   0.493   3.942   7.661 -2.5564  1.2289  2.7088
   29SAPC  H17S 3889   0.515   4.099   7.748  0.2433  1.2237 -0.3106
   29SAPC  C218 3890   0.684   4.038   7.627  0.1089 -0.0325 -0.0701
   29SAPC  H18R 3891   0.729   4.138   7.640 -0.0747 -0.0614  0.8738
   29SAPC  H18S 3892   0.695   4.010   7.520 -2.7223  2.2044 -1.0906
   29SAPC  C219 3893   0.750   3.937   7.717  0.3229 -0.0119 -0.0281
   29SAPC  H19R 3894   0.844   3.908   7.666 -0.7788 -2.5998 -0.7492
   29SAPC  H19S 3895   0.695   3.841   7.714 -2.2598  1.1699  3.0629
   29SAPC  C220 3896   0.773   3.987   7.858  0.1276  0.0865 -0.6347
   29SAPC  H20R 3897   0.676   4.030   7.890 -0.1751 -0.2033 -1.1377
   29SAPC  H20S 3898   0.850   4.067   7.863 -0.7285  0.8700  0.5709
   29SAPC  H20T 3899   0.809   3.916   7.936  0.2722  1.5083  0.6374
   29SAPC   C33 3900   0.808   3.330   6.923  0.3263 -0.4468  0.4275
   29SAPC   H3X 3901   0.781   3.437   6.913  0.3058 -0.4918 -0.0047
   29SAPC   H3Y 3902   0.891   3.310   6.853  0.6768 -0.7537  0.9189
   29SAPC   C34 3903   0.853   3.307   7.067  0.6110  0.0422  0.4552
   29SAPC   H4X 3904   0.877   3.200   7.085  0.9543 -0.0467 -0.4864
   29SAPC   H4Y 3905   0.770   3.334   7.137 -0.4781 -2.4251  0.2272
   29SAPC   C35 3906   0.980   3.387   7.107 -0.4990 -0.2751 -0.1917
   29SAPC   H5X 3907   0.964   3.495   7.090 -1.8657  0.1444  3.0798
   29SAPC   H5Y 3908   1.063   3.339   7.049  0.5981  0.2968  0.8750
   29SAPC   C36 3909   1.008   3.367   7.253  0.2691  0.0068  0.4658
   29SAPC   H6X 3910   1.014   3.257   7.267  0.0131 -0.2225 -0.9949
   29SAPC   H6Y 3911   0.922   3.406   7.312  0.8187 -0.0592  1.3272
   29SAPC   C37 3912   1.136   3.438   7.303 -0.1065 -0.1090 -0.2599
   29SAPC   H7X 3913   1.118   3.545   7.280 -2.0162 -0.2822  0.2718
   29SAPC   H7Y 3914   1.224   3.398   7.248  0.3899 -0.2671  0.6341
   29SAPC   C38 3915   1.154   3.430   7.453 -0.0962  0.1714 -0.1710
   29SAPC   H8X 3916   1.057   3.447   7.505  1.1094  1.0921  1.8914
   29SAPC   H8Y 3917   1.218   3.513   7.490 -0.0168 -0.5509  1.4220
   29SAPC   C39 3918   1.211   3.300   7.493  0.3773  0.3450  0.0758
   29SAPC   H9X 3919   1.321   3.298   7.481  0.3247  0.6438 -0.4893
   29SAPC   H9Y 3920   1.166   3.220   7.431  0.0719  1.4865 -1.2083
   29SAPC  C310 3921   1.187   3.278   7.643 -0.5120 -0.0318 -0.0871
   29SAPC  H10X 3922   1.083   3.243   7.659 -0.5578 -0.9539 -2.1061
   29SAPC  H10Y 3923   1.185   3.371   7.704 -3.5548 -0.4619  0.6503
   29SAPC  C311 3924   1.284   3.167   7.698 -0.0753 -0.2897  0.4753
   29SAPC  H11X 3925   1.386   3.202   7.669 -0.3101 -0.5055 -0.6759
   29SAPC  H11Y 3926   1.271   3.072   7.642 -0.0362  1.4843 -2.8056
   29SAPC  C312 3927   1.268   3.153   7.847  0.6516 -0.2393 -0.0388
   29SAPC  H12X 3928   1.293   3.253   7.889  1.1791 -1.0350  1.6213
   29SAPC  H12Y 3929   1.348   3.088   7.887 -0.8530 -1.6633  0.7843
   29SAPC  C313 3930   1.128   3.116   7.904 -0.1119 -0.2081  0.4292
   29SAPC  H13X 3931   1.073   3.045   7.837  0.6212 -0.2556 -0.1338
   29SAPC  H13Y 3932   1.058   3.199   7.927 -4.4455 -2.6898 -2.3938
   29SAPC  C314 3933   1.141   3.033   8.032  0.0696 -0.0552 -0.6085
   29SAPC  H14X 3934   1.209   2.947   8.012  0.0477 -0.8388  2.2778
   29SAPC  H14Y 3935   1.039   3.003   8.063 -0.0661  2.0836  1.2166
   29SAPC  C315 3936   1.211   3.110   8.156 -0.1861 -0.1069 -0.0913
   29SAPC  H15X 3937   1.293   3.171   8.112  0.8931 -0.8695  0.8398
   29SAPC  H15Y 3938   1.259   3.032   8.218  1.2931  0.8500  0.0140
   29SAPC  C316 3939   1.122   3.206   8.239  0.0346 -0.5697 -0.7561
   29SAPC  H16X 3940   1.065   3.274   8.171  1.5295  0.6062 -0.8860
   29SAPC  H16Y 3941   1.188   3.267   8.304 -0.1667 -1.2646  0.1211
   29SAPC  C317 3942   1.027   3.128   8.329  0.0106  0.5125 -0.6000
   29SAPC  H17X 3943   1.079   3.039   8.371 -1.0311 -0.2575 -0.9098
   29SAPC  H17Y 3944   0.943   3.085   8.271 -0.6481  0.6198  0.2554
   29SAPC  C318 3945   0.964   3.230   8.418 -0.2553  0.3693 -0.4184
   29SAPC  H18X 3946   0.937   3.324   8.365  0.9872  0.5023 -0.8362
   29SAPC  H18Y 3947   1.034   3.260   8.499  2.6760 -2.3685 -1.7479
   29SAPC  H18Z 3948   0.873   3.196   8.473 -0.3188  1.9574  0.5116
   30SAPC     N 3949   5.477   5.742   6.127 -0.3934  0.0140  0.0174
   30SAPC   C12 3950   5.436   5.708   6.270 -0.4257  0.5573 -0.3450
   30SAPC  H12A 3951   5.415   5.801   6.321 -0.9645  1.0350 -1.4117
   30SAPC  H12B 3952   5.518   5.658   6.320  1.2834  2.4788 -1.1056
   30SAPC   C13 3953   5.599   5.824   6.139 -0.1680  0.1452  0.2367
   30SAPC  H13A 3954   5.607   5.892   6.056  2.1772 -1.3927 -0.9125
   30SAPC  H13B 3955   5.595   5.882   6.230  1.6635  1.2655 -0.3476
   30SAPC  H13C 3956   5.692   5.768   6.141  1.0731  1.9413 -2.1100
   30SAPC   C14 3957   5.500   5.616   6.050  0.5712  0.9246  0.4649
   30SAPC  H14A 3958   5.596   5.570   6.070 -0.1250 -0.1166  1.5771
   30SAPC  H14B 3959   5.425   5.539   6.065  1.3282 -0.4015 -1.9579
   30SAPC  H14C 3960   5.501   5.646   5.946  2.3625 -2.4826 -0.6787
   30SAPC   C15 3961   5.364   5.829   6.073  0.6097  0.2684  0.1443
   30SAPC  H15A 3962   5.272   5.772   6.066  1.2949 -0.8076 -0.5788
   30SAPC  H15B 3963   5.349   5.918   6.131 -1.0985  0.7182 -0.9085
   30SAPC  H15C 3964   5.387   5.852   5.970 -0.6487 -1.2354 -0.5055
   30SAPC   C11 3965   5.308   5.632   6.298  0.1425 -0.2264  0.2545
   30SAPC  H11A 3966   5.224   5.690   6.253 -1.2811 -1.9558  0.5372
   30SAPC  H11B 3967   5.295   5.625   6.408  0.8983 -1.0835  0.3006
   30SAPC     P 3968   5.298   5.372   6.306  0.4981  0.1186  0.2070
   30SAPC   O13 3969   5.163   5.347   6.360 -0.1552  0.1842  0.0279
   30SAPC   O14 3970   5.349   5.274   6.216 -0.5990 -0.2262 -0.7995
   30SAPC   O12 3971   5.299   5.508   6.231  0.1911  0.6017 -0.1406
   30SAPC   O11 3972   5.418   5.393   6.411 -0.2742 -0.2554  0.0818
   30SAPC    C1 3973   5.423   5.322   6.531  0.3617  0.8399 -0.7338
   30SAPC    HA 3974   5.370   5.225   6.522 -0.1621  0.8539  1.4818
   30SAPC    HB 3975   5.529   5.299   6.556  0.2639  0.2949 -0.8246
   30SAPC    C2 3976   5.356   5.390   6.655  0.3530  0.2515  0.2343
   30SAPC    HS 3977   5.247   5.400   6.640  0.3342 -1.7477 -1.3934
   30SAPC   O21 3978   5.432   5.514   6.671 -0.1491  0.2869 -0.1638
   30SAPC   C21 3979   5.367   5.615   6.735  0.4335 -0.0592  0.1627
   30SAPC   O22 3980   5.260   5.612   6.778  0.1002 -0.2359 -0.1269
   30SAPC   C22 3981   5.458   5.736   6.745  0.1512 -0.1379 -0.5518
   30SAPC   H2R 3982   5.429   5.803   6.661 -1.8995 -0.5603 -0.2277
   30SAPC   H2S 3983   5.428   5.785   6.840 -2.4152 -0.1704 -1.2956
   30SAPC    C3 3984   5.373   5.291   6.777  0.6182 -0.2040 -0.2190
   30SAPC    HX 3985   5.479   5.290   6.808  0.4524  2.5559  0.6597
   30SAPC    HY 3986   5.348   5.186   6.749 -2.3422  0.3323  0.0662
   30SAPC   O31 3987   5.303   5.341   6.896 -0.0479  0.3696 -0.2025
   30SAPC   C31 3988   5.169   5.321   6.898 -0.2885  0.4958 -0.1800
   30SAPC   O32 3989   5.104   5.260   6.816 -0.3402  0.4408  0.3018
   30SAPC   C32 3990   5.118   5.371   7.039  0.4827 -0.1468  0.4085
   30SAPC   H2X 3991   5.200   5.419   7.096 -0.7709 -0.0608  2.2392
   30SAPC   H2Y 3992   5.103   5.276   7.095  1.2093 -1.1752 -1.0877
   30SAPC   C23 3993   5.614   5.713   6.758  0.3812  0.1029  0.5787
   30SAPC   H3R 3994   5.667   5.810   6.747  0.6729 -0.1419 -0.1639
   30SAPC   H3S 3995   5.646   5.645   6.677 -1.9235 -0.0366 -0.2948
   30SAPC   C24 3996   5.660   5.659   6.893 -0.6150  0.0576 -0.6608
   30SAPC   H4R 3997   5.771   5.656   6.890 -0.6154  0.4084 -2.5950
   30SAPC   H4S 3998   5.633   5.552   6.902 -0.0170  0.0163  0.8160
   30SAPC   C25 3999   5.633   5.742   7.018 -0.5609 -0.3461  1.0703
   30SAPC   H5R 4000   5.703   5.826   7.025  1.7394 -1.9258 -1.1783
   30SAPC   C26 4001   5.535   5.722   7.110 -0.1866 -1.1475  1.1951
   30SAPC   H6R 4002   5.544   5.793   7.193 -1.6791  1.3040 -0.6154
   30SAPC   C27 4003   5.427   5.627   7.122 -0.2947  0.0734 -0.3111
   30SAPC   H7R 4004   5.463   5.533   7.169 -3.8486 -1.6782 -0.7911
   30SAPC   H7S 4005   5.398   5.602   7.018 -0.5960  1.1901 -0.5022
   30SAPC   C28 4006   5.303   5.670   7.202 -0.1266 -0.3437  0.1595
   30SAPC   H8R 4007   5.247   5.744   7.142  2.5142  0.5960 -1.3265
   30SAPC   C29 4008   5.259   5.645   7.328  0.1059  0.4051 -0.1854
   30SAPC   H9R 4009   5.166   5.677   7.378  0.6404  1.0107  0.4321
   30SAPC  C210 4010   5.327   5.558   7.428 -0.3790 -0.1282  1.0041
   30SAPC  H10R 4011   5.410   5.618   7.472 -0.8093 -0.8092  2.8006
   30SAPC  H10S 4012   5.382   5.473   7.382 -0.4675  0.6352 -0.5786
   30SAPC  C211 4013   5.251   5.510   7.543  0.0036 -0.0461  0.1911
   30SAPC  H11R 4014   5.239   5.580   7.627  0.5112 -3.2979  3.2487
   30SAPC  C212 4015   5.196   5.386   7.549 -0.2116  0.2574  0.0024
   30SAPC  H12R 4016   5.147   5.352   7.642  1.2675 -0.0878  0.6844
   30SAPC  C213 4017   5.218   5.283   7.438 -0.7668  0.0911  0.7233
   30SAPC  H13R 4018   5.328   5.270   7.426 -0.5867  2.0188 -0.1380
   30SAPC  H13S 4019   5.182   5.329   7.343 -1.0191 -0.6197  0.4632
   30SAPC  C214 4020   5.134   5.156   7.465  0.5077 -0.6622 -0.7729
   30SAPC  H14R 4021   5.028   5.177   7.486  0.6193  0.5754 -1.4041
   30SAPC  C215 4022   5.170   5.027   7.463  0.0434 -0.1666  0.0938
   30SAPC  H15R 4023   5.094   4.952   7.489 -0.2639 -0.1329 -0.6860
   30SAPC  C216 4024   5.310   4.973   7.436  0.0525 -1.2728  0.2488
   30SAPC  H16R 4025   5.335   5.005   7.333 -0.8450 -3.0131 -0.5512
   30SAPC  H16S 4026   5.316   4.863   7.438  1.3140 -1.3016 -2.1311
   30SAPC  C217 4027   5.417   5.012   7.547 -0.0829  0.1949  0.6287
   30SAPC  H17R 4028   5.422   5.122   7.556  0.6410  0.1197  1.3055
   30SAPC  H17S 4029   5.513   4.969   7.511 -0.3578 -0.8240  1.0606
   30SAPC  C218 4030   5.393   4.952   7.685 -0.4408  0.9931 -0.1807
   30SAPC  H18R 4031   5.382   4.842   7.674  1.8620  0.7230 -0.2799
   30SAPC  H18S 4032   5.298   4.983   7.733 -1.3613 -0.8862 -0.6955
   30SAPC  C219 4033   5.509   4.985   7.781 -0.3537  0.7319  0.3449
   30SAPC  H19R 4034   5.601   4.950   7.730 -1.9981 -2.2665 -0.8920
   30SAPC  H19S 4035   5.498   4.921   7.871  1.3606  1.9171  1.4384
   30SAPC  C220 4036   5.519   5.129   7.825 -0.0551 -0.0884  0.5261
   30SAPC  H20R 4037   5.574   5.185   7.747 -1.1695  0.3017 -0.0120
   30SAPC  H20S 4038   5.570   5.148   7.922  0.3005 -1.3041  0.5886
   30SAPC  H20T 4039   5.422   5.183   7.833  0.8190  1.5347  0.5349
   30SAPC   C33 4040   4.992   5.456   7.046 -0.0998 -0.5650 -0.3557
   30SAPC   H3X 4041   4.912   5.424   6.976  1.4893 -1.7825 -1.7032
   30SAPC   H3Y 4042   5.024   5.553   7.004  0.2830 -1.2403 -1.6770
   30SAPC   C34 4043   4.944   5.466   7.190 -0.2250  0.5289  0.0719
   30SAPC   H4X 4044   5.029   5.511   7.245 -1.2084 -0.2613  2.3631
   30SAPC   H4Y 4045   4.924   5.362   7.224  3.6937 -0.5848 -0.4735
   30SAPC   C35 4046   4.828   5.556   7.205 -0.3945  0.3441 -0.5595
   30SAPC   H5X 4047   4.762   5.536   7.118  0.7274  0.9589 -1.5823
   30SAPC   H5Y 4048   4.862   5.661   7.216 -0.5845  0.5743 -2.0044
   30SAPC   C36 4049   4.756   5.514   7.324  0.2547  0.4937  0.2071
   30SAPC   H6X 4050   4.685   5.430   7.306  0.6750  0.3983 -1.0503
   30SAPC   H6Y 4051   4.701   5.608   7.349  2.2570  1.0682  2.8977
   30SAPC   C37 4052   4.840   5.488   7.449 -0.2729 -0.1988 -0.9970
   30SAPC   H7X 4053   4.946   5.518   7.435 -0.8123  2.6944  0.4420
   30SAPC   H7Y 4054   4.833   5.377   7.454 -2.5575 -0.0732 -0.2630
   30SAPC   C38 4055   4.795   5.548   7.586  0.0719  0.4052  0.1871
   30SAPC   H8X 4056   4.784   5.658   7.580 -2.6260  0.1573 -0.9353
   30SAPC   H8Y 4057   4.873   5.516   7.658  0.6420  0.9763 -0.1688
   30SAPC   C39 4058   4.662   5.484   7.644 -0.4952  0.0438 -0.1197
   30SAPC   H9X 4059   4.647   5.375   7.625 -1.6750 -0.3364  2.5230
   30SAPC   H9Y 4060   4.583   5.540   7.588  0.4621  2.7219  1.0420
   30SAPC  C310 4061   4.669   5.492   7.798  0.8820  0.8305 -0.8658
   30SAPC  H10X 4062   4.563   5.497   7.830  1.6587  0.3589  2.1159
   30SAPC  H10Y 4063   4.724   5.581   7.835 -1.0201  0.5436  3.1711
   30SAPC  C311 4064   4.739   5.373   7.867 -0.1567  0.4599 -0.4414
   30SAPC  H11X 4065   4.832   5.349   7.811  0.2611  0.2679  0.3217
   30SAPC  H11Y 4066   4.679   5.281   7.851  1.5358 -0.9715  0.9075
   30SAPC  C312 4067   4.773   5.392   8.017  0.2415  0.4045  0.5007
   30SAPC  H12X 4068   4.834   5.483   8.032 -2.1134  2.0478  0.6758
   30SAPC  H12Y 4069   4.830   5.302   8.045  1.2927 -0.3142 -3.3065
   30SAPC  C313 4070   4.649   5.398   8.105  0.2265 -0.0122 -0.0845
   30SAPC  H13X 4071   4.580   5.312   8.094 -1.7169  1.0248  2.8124
   30SAPC  H13Y 4072   4.590   5.485   8.068  0.6845  1.0708  1.5984
   30SAPC  C314 4073   4.701   5.429   8.247  0.0995 -1.2137  0.5938
   30SAPC  H14X 4074   4.611   5.443   8.311 -0.3794  2.1553 -0.5957
   30SAPC  H14Y 4075   4.746   5.530   8.250 -3.5202  0.5944  0.1420
   30SAPC  C315 4076   4.791   5.314   8.298 -0.5869  0.3331 -0.2716
   30SAPC  H15X 4077   4.886   5.300   8.243 -1.1112 -0.5851 -0.9675
   30SAPC  H15Y 4078   4.733   5.220   8.291 -0.5762  0.3323 -0.3510
   30SAPC  C316 4079   4.820   5.319   8.455 -0.1520 -0.2693  0.1207
   30SAPC  H16X 4080   4.727   5.301   8.514 -2.3750 -0.2595 -3.1055
   30SAPC  H16Y 4081   4.851   5.425   8.467 -0.3319 -0.3729  1.8352
   30SAPC  C317 4082   4.941   5.233   8.491  0.5351  0.4056  0.4206
   30SAPC  H17X 4083   5.003   5.304   8.549  0.2381  0.7888  0.2740
   30SAPC  H17Y 4084   5.002   5.204   8.402  0.5169 -1.5124  0.9900
   30SAPC  C318 4085   4.905   5.110   8.572  0.8030  0.6351 -0.3442
   30SAPC  H18X 4086   4.833   5.151   8.646  1.4368  1.2497 -0.0559
   30SAPC  H18Y 4087   4.988   5.055   8.622 -0.1282 -0.1889  0.3551
   30SAPC  H18Z 4088   4.857   5.037   8.504 -0.0269  0.3973  0.4685
   31SAPC     N 4089   0.909   5.024   6.181  0.1172 -0.1963 -0.5947
   31SAPC   C12 4090   0.818   4.920   6.242 -0.2100  0.6278 -1.1394
   31SAPC  H12A 4091   0.820   4.833   6.179 -4.4478 -0.9382  0.5098
   31SAPC  H12B 4092   0.721   4.967   6.237 -0.8742 -0.6456 -0.4969
   31SAPC   C13 4093   0.843   5.099   6.075  0.1364  0.4552  0.7109
   31SAPC  H13A 4094   0.902   5.184   6.044  0.8206 -0.6057 -1.1019
   31SAPC  H13B 4095   0.819   5.042   5.986  3.9413  3.4726 -2.6574
   31SAPC  H13C 4096   0.750   5.139   6.113 -1.2124 -0.4244 -1.4549
   31SAPC   C14 4097   0.948   5.131   6.284 -0.3456  0.7348 -0.6386
   31SAPC  H14A 4098   0.874   5.209   6.295 -0.0674  0.9776 -0.5002
   31SAPC  H14B 4099   0.965   5.083   6.379 -3.2300  3.0755  1.2514
   31SAPC  H14C 4100   1.036   5.183   6.249  0.3089  0.5308  0.6515
   31SAPC   C15 4101   1.026   4.952   6.121 -0.0641  0.4180  0.0451
   31SAPC  H15A 4102   0.997   4.896   6.033  1.0270 -1.9081  1.0844
   31SAPC  H15B 4103   1.105   5.018   6.089  1.5324 -0.3524  2.1849
   31SAPC  H15C 4104   1.063   4.878   6.191 -0.9954 -0.1968 -0.0873
   31SAPC   C11 4105   0.849   4.871   6.385 -0.3938 -0.2562 -0.7119
   31SAPC  H11A 4106   0.766   4.813   6.430 -0.5634 -0.3343 -1.1267
   31SAPC  H11B 4107   0.869   4.954   6.457  1.8173 -2.2633  1.1381
   31SAPC     P 4108   0.981   4.646   6.406  0.1645  0.0294  0.0873
   31SAPC   O13 4109   0.866   4.584   6.343 -0.1588  0.0767 -0.7200
   31SAPC   O14 4110   1.117   4.603   6.371 -0.0323  0.2367 -0.2299
   31SAPC   O12 4111   0.979   4.809   6.375 -0.2754 -0.1608 -0.0469
   31SAPC   O11 4112   0.970   4.631   6.567  0.3669 -0.2853  0.3834
   31SAPC    C1 4113   1.049   4.706   6.654  0.0529  0.4171 -0.2990
   31SAPC    HA 4114   1.092   4.798   6.607  0.4809 -1.1295 -3.1990
   31SAPC    HB 4115   0.973   4.723   6.732 -0.8353 -0.8758 -0.8572
   31SAPC    C2 4116   1.161   4.614   6.720  0.2877 -0.3914 -0.8013
   31SAPC    HS 4117   1.241   4.589   6.647  1.0000 -0.2138 -0.1045
   31SAPC   O21 4118   1.096   4.492   6.769  0.2511 -0.5148  0.8634
   31SAPC   C21 4119   1.171   4.388   6.744 -0.7888  0.9713  0.8173
   31SAPC   O22 4120   1.280   4.374   6.688 -0.4029 -0.3837  0.0236
   31SAPC   C22 4121   1.092   4.267   6.794  0.3923  0.4118 -0.3922
   31SAPC   H2R 4122   0.988   4.285   6.758 -0.2646  0.3175  1.3271
   31SAPC   H2S 4123   1.120   4.169   6.750 -1.5157 -0.0190 -0.7667
   31SAPC    C3 4124   1.234   4.677   6.839 -0.2604  0.6383 -0.6826
   31SAPC    HX 4125   1.152   4.694   6.913 -0.0279 -0.0009 -0.2678
   31SAPC    HY 4126   1.284   4.771   6.808  0.9093 -0.1003 -1.1004
   31SAPC   O31 4127   1.338   4.585   6.888 -0.0985  0.1432 -0.3162
   31SAPC   C31 4128   1.459   4.594   6.829  0.3225  0.2644  0.5426
   31SAPC   O32 4129   1.487   4.694   6.763  0.0009  0.6599 -0.0272
   31SAPC   C32 4130   1.541   4.473   6.860 -1.0323  0.3411 -0.0312
   31SAPC   H2X 4131   1.539   4.403   6.774  1.0018  1.2795 -0.9069
   31SAPC   H2Y 4132   1.495   4.413   6.941 -0.3312  0.1631  0.2413
   31SAPC   C23 4133   1.086   4.276   6.957  0.0950  0.0774  0.1605
   31SAPC   H3R 4134   1.000   4.216   6.993 -0.1876  0.6429  0.4413
   31SAPC   H3S 4135   1.060   4.379   6.989 -1.7452  0.2962 -1.7834
   31SAPC   C24 4136   1.207   4.227   7.030  0.0171 -0.3695  0.3842
   31SAPC   H4R 4137   1.193   4.257   7.136  3.2086  0.0049  0.8045
   31SAPC   H4S 4138   1.304   4.280   7.014  0.8936 -1.1628  2.6475
   31SAPC   C25 4139   1.237   4.080   7.010  0.6241  0.7378 -0.4847
   31SAPC   H5R 4140   1.266   4.052   6.908 -1.0964 -0.7195 -0.6090
   31SAPC   C26 4141   1.238   3.982   7.110  0.4058 -0.3993  0.1507
   31SAPC   H6R 4142   1.267   3.881   7.077  2.2855  0.6499 -1.6960
   31SAPC   C27 4143   1.207   3.995   7.254 -0.3935 -0.2758 -0.7337
   31SAPC   H7R 4144   1.103   4.025   7.277 -0.2152 -0.2721  0.0817
   31SAPC   H7S 4145   1.277   4.078   7.277 -0.8351  0.5528 -2.2111
   31SAPC   C28 4146   1.264   3.872   7.325  0.4530 -0.4516  0.7323
   31SAPC   H8R 4147   1.231   3.776   7.282 -1.3380  0.3230  0.3014
   31SAPC   C29 4148   1.355   3.859   7.423  0.3977  0.2819 -0.3732
   31SAPC   H9R 4149   1.391   3.762   7.458 -1.8708 -0.6715 -0.5028
   31SAPC  C210 4150   1.421   3.968   7.504 -0.5755  0.5880  0.4822
   31SAPC  H10R 4151   1.502   4.011   7.440  0.3337 -0.8608  0.6145
   31SAPC  H10S 4152   1.477   3.924   7.589 -3.6421 -1.8001  1.4188
   31SAPC  C211 4153   1.342   4.079   7.548 -0.0385  0.5965  0.1420
   31SAPC  H11R 4154   1.339   4.162   7.476  1.4938  0.3358 -0.2501
   31SAPC  C212 4155   1.257   4.077   7.656  0.2585  0.0342 -0.1205
   31SAPC  H12R 4156   1.197   4.168   7.673  1.2404  1.1113 -2.0583
   31SAPC  C213 4157   1.237   3.965   7.758 -0.0235 -0.5100  0.8605
   31SAPC  H13R 4158   1.250   3.867   7.708 -2.1124  0.7274 -2.4614
   31SAPC  H13S 4159   1.130   3.974   7.786  0.1590 -1.9992  2.0997
   31SAPC  C214 4160   1.344   3.960   7.860  0.0962  1.1384  0.2504
   31SAPC  H14R 4161   1.439   3.921   7.822 -0.9878 -1.4846  0.0049
   31SAPC  C215 4162   1.340   3.987   7.995  0.2505  0.3638 -0.2894
   31SAPC  H15R 4163   1.428   3.967   8.058 -0.5056  0.7001  0.9000
   31SAPC  C216 4164   1.210   4.034   8.054 -0.2810  0.6534 -0.6451
   31SAPC  H16R 4165   1.119   4.005   7.998 -1.1771  0.5728  0.8017
   31SAPC  H16S 4166   1.203   4.144   8.042 -3.2276  0.9916  2.6150
   31SAPC  C217 4167   1.194   3.992   8.204  0.3759 -0.0415  0.1148
   31SAPC  H17R 4168   1.275   4.033   8.269  0.4270  1.0729 -0.6240
   31SAPC  H17S 4169   1.205   3.881   8.207  1.5686  0.0530 -0.0732
   31SAPC  C218 4170   1.054   4.042   8.261 -0.6373 -0.0219 -0.1017
   31SAPC  H18R 4171   1.037   3.994   8.359  1.6597 -0.7508 -0.0167
   31SAPC  H18S 4172   0.975   4.015   8.187  0.3947 -2.6348 -0.3464
   31SAPC  C219 4173   1.042   4.195   8.254  0.1788  0.0191 -0.3233
   31SAPC  H19R 4174   1.005   4.224   8.154 -2.8565  0.3115  0.7877
   31SAPC  H19S 4175   1.144   4.234   8.277 -0.1926  1.7431 -1.4641
   31SAPC  C220 4176   0.943   4.237   8.362  0.3750  0.1630 -0.6558
   31SAPC  H20R 4177   0.962   4.173   8.451 -1.5682  1.0075  0.4178
   31SAPC  H20S 4178   0.837   4.243   8.331 -0.4579  0.8375  2.0408
   31SAPC  H20T 4179   0.959   4.346   8.383 -3.2206  0.6640  0.1452
   31SAPC   C33 4180   1.682   4.515   6.899 -0.5940  0.0600  0.0145
   31SAPC   H3X 4181   1.732   4.566   6.814 -2.0187  0.0243 -0.8723
   31SAPC   H3Y 4182   1.744   4.426   6.923  0.2566  0.7776  0.5906
   31SAPC   C34 4183   1.699   4.616   7.017  0.4794  0.0320 -0.2191
   31SAPC   H4X 4184   1.642   4.708   6.995  0.4089  0.0051 -0.1497
   31SAPC   H4Y 4185   1.805   4.647   7.019  0.2016  1.0328  2.1777
   31SAPC   C35 4186   1.655   4.563   7.155  0.0053 -0.0942 -0.1179
   31SAPC   H5X 4187   1.544   4.554   7.154 -0.0981  0.9318  0.2895
   31SAPC   H5Y 4188   1.670   4.646   7.227 -0.7831  0.4638 -0.5743
   31SAPC   C36 4189   1.722   4.430   7.192  0.0226 -0.8019  0.5977
   31SAPC   H6X 4190   1.831   4.450   7.176 -0.4295  2.9363  1.1458
   31SAPC   H6Y 4191   1.699   4.348   7.121  1.4670 -2.9077  2.4490
   31SAPC   C37 4192   1.682   4.375   7.334 -0.4284  0.1266  0.7020
   31SAPC   H7X 4193   1.577   4.340   7.326 -0.8913  1.8616 -2.7664
   31SAPC   H7Y 4194   1.694   4.453   7.413 -4.1518  0.0496  1.5329
   31SAPC   C38 4195   1.774   4.255   7.371  0.4387 -0.9760 -0.1120
   31SAPC   H8X 4196   1.873   4.298   7.346 -1.0357  0.6550 -3.9158
   31SAPC   H8Y 4197   1.733   4.179   7.301 -0.9311 -0.0104 -0.4095
   31SAPC   C39 4198   1.747   4.218   7.516 -0.1602  0.1846 -0.7296
   31SAPC   H9X 4199   1.638   4.216   7.536  0.2288 -0.9338  1.6378
   31SAPC   H9Y 4200   1.789   4.298   7.581 -3.1847  0.5664  0.9303
   31SAPC  C310 4201   1.816   4.086   7.555  0.4357 -0.1116 -0.3698
   31SAPC  H10X 4202   1.923   4.085   7.525  0.5138 -2.2601 -0.1738
   31SAPC  H10Y 4203   1.758   4.009   7.501  3.2710 -2.2745 -0.5523
   31SAPC  C311 4204   1.812   4.049   7.703 -0.3239 -0.2023  0.2269
   31SAPC  H11X 4205   1.830   3.940   7.709  4.4574  0.3049 -0.3996
   31SAPC  H11Y 4206   1.708   4.068   7.737 -1.2297 -1.1001 -1.8616
   31SAPC  C312 4207   1.912   4.137   7.785  0.1418 -0.3100 -0.1257
   31SAPC  H12X 4208   1.885   4.245   7.788  2.0924  0.2126  0.3672
   31SAPC  H12Y 4209   2.009   4.126   7.731  0.6832  2.0170  0.2549
   31SAPC  C313 4210   1.916   4.101   7.929 -0.5652 -0.2570 -0.0400
   31SAPC  H13X 4211   1.824   4.146   7.971 -0.1201  0.7354 -0.0885
   31SAPC  H13Y 4212   1.993   4.170   7.971 -0.5652  0.5097 -1.2483
   31SAPC  C314 4213   1.936   3.953   7.970 -0.0205  0.1944 -0.1079
   31SAPC  H14X 4214   2.029   3.921   7.918  0.9245  2.1338  0.2966
   31SAPC  H14Y 4215   1.849   3.895   7.933  1.3142  0.0956 -3.4153
   31SAPC  C315 4216   1.963   3.938   8.119  0.6460 -0.0558  0.5262
   31SAPC  H15X 4217   1.874   3.959   8.181 -1.1984  0.8622 -2.2425
   31SAPC  H15Y 4218   2.041   4.003   8.164  1.6153 -0.4031 -0.5929
   31SAPC  C316 4219   1.984   3.786   8.151 -0.1950 -0.6791 -0.3989
   31SAPC  H16X 4220   1.892   3.734   8.116 -1.3877  0.0468  1.4975
   31SAPC  H16Y 4221   1.984   3.774   8.262 -1.5285  0.2128 -0.2751
   31SAPC  C317 4222   2.111   3.715   8.096 -0.7455 -0.0845 -0.0968
   31SAPC  H17X 4223   2.196   3.771   8.140  2.7677 -4.3626 -0.8420
   31SAPC  H17Y 4224   2.120   3.726   7.986 -0.0800 -1.3781 -0.1804
   31SAPC  C318 4225   2.131   3.573   8.138  0.4359  0.0872 -0.1234
   31SAPC  H18X 4226   2.204   3.513   8.081 -1.6211 -1.7562 -0.9656
   31SAPC  H18Y 4227   2.034   3.523   8.119  0.7034 -0.1716 -0.8545
   31SAPC  H18Z 4228   2.150   3.557   8.246  1.3721  0.5114 -0.2179
   32SAPC     N 4229   4.388   4.663   6.356 -0.7433 -0.2624 -0.1101
   32SAPC   C12 4230   4.409   4.536   6.436  0.5084 -0.1741  0.3413
   32SAPC  H12A 4231   4.486   4.550   6.510 -0.2233  0.0374  1.0811
   32SAPC  H12B 4232   4.448   4.461   6.369  1.4945  1.1407 -0.5900
   32SAPC   C13 4233   4.310   4.768   6.428  0.1768  0.1067 -0.2640
   32SAPC  H13A 4234   4.210   4.729   6.442  0.0548  0.8622  1.2368
   32SAPC  H13B 4235   4.357   4.782   6.525  0.8827 -1.3352 -0.3844
   32SAPC  H13C 4236   4.299   4.863   6.376 -0.1157  0.5159  0.5317
   32SAPC   C14 4237   4.531   4.720   6.330  0.6880 -0.6403  0.3097
   32SAPC  H14A 4238   4.590   4.648   6.274 -0.9081  1.5034 -4.7672
   32SAPC  H14B 4239   4.525   4.813   6.276 -0.2190 -1.7790 -1.6637
   32SAPC  H14C 4240   4.586   4.751   6.417  2.3809  0.0838 -0.9549
   32SAPC   C15 4241   4.334   4.640   6.217 -0.1847 -0.0659  0.3320
   32SAPC  H15A 4242   4.311   4.736   6.174 -1.3587  0.8218  2.7284
   32SAPC  H15B 4243   4.401   4.601   6.142  1.5890  2.3529  0.5705
   32SAPC  H15C 4244   4.237   4.590   6.215  0.9689 -2.4556 -1.2471
   32SAPC   C11 4245   4.291   4.475   6.506  0.2519  0.7404  0.3643
   32SAPC  H11A 4246   4.250   4.548   6.579  1.9820  2.7603 -0.5787
   32SAPC  H11B 4247   4.337   4.386   6.554  0.4860 -0.8190 -2.5057
   32SAPC     P 4248   4.223   4.305   6.321 -0.6800 -0.0628 -0.7145
   32SAPC   O13 4249   4.103   4.287   6.244  0.1044  0.0193  0.7864
   32SAPC   O14 4250   4.348   4.322   6.251  0.0693 -0.1703  0.3789
   32SAPC   O12 4251   4.190   4.432   6.418 -0.3174 -0.2263 -0.4550
   32SAPC   O11 4252   4.242   4.181   6.417  0.0141  0.4817 -0.8962
   32SAPC    C1 4253   4.129   4.118   6.488  0.0045  0.4513 -0.2870
   32SAPC    HA 4254   4.036   4.117   6.427 -0.5365  2.9621  0.3648
   32SAPC    HB 4255   4.159   4.012   6.503 -3.5941 -0.8334 -1.1822
   32SAPC    C2 4256   4.108   4.174   6.629 -0.5268  0.1013  0.1100
   32SAPC    HS 4257   4.095   4.284   6.620  0.8776  0.1469 -2.1211
   32SAPC   O21 4258   4.217   4.134   6.708 -0.6031 -0.2641  0.1947
   32SAPC   C21 4259   4.249   4.197   6.818 -0.0433  0.1624  1.4523
   32SAPC   O22 4260   4.205   4.307   6.845 -0.1605 -0.1283 -0.3188
   32SAPC   C22 4261   4.347   4.114   6.902  1.4361 -0.3594  0.3267
   32SAPC   H2R 4262   4.288   4.043   6.964  0.8400 -0.5557 -0.4590
   32SAPC   H2S 4263   4.424   4.075   6.832  0.3081 -1.2777 -0.4458
   32SAPC    C3 4264   3.979   4.126   6.699  0.4691  0.4787  0.3963
   32SAPC    HX 4265   4.003   4.019   6.714  2.0891  0.8522  0.7105
   32SAPC    HY 4266   3.888   4.147   6.639  0.7154  2.3470  0.6224
   32SAPC   O31 4267   3.961   4.182   6.830  0.4633  0.4770  0.0992
   32SAPC   C31 4268   3.884   4.277   6.851  0.2480  0.1995  0.3393
   32SAPC   O32 4269   3.812   4.329   6.770  0.3610  0.3430 -0.6314
   32SAPC   C32 4270   3.895   4.321   6.996 -0.6361 -0.8106  0.1188
   32SAPC   H2X 4271   3.892   4.432   7.003  3.6323 -0.5288 -0.0675
   32SAPC   H2Y 4272   3.994   4.296   7.039  0.5560  1.1745 -1.2890
   32SAPC   C23 4273   4.410   4.196   7.009  0.6561  0.0296  0.4639
   32SAPC   H3R 4274   4.348   4.212   7.100  1.0749  1.7581  0.4760
   32SAPC   H3S 4275   4.440   4.290   6.958 -1.0949  0.0515 -0.6014
   32SAPC   C24 4276   4.536   4.135   7.065 -0.7642  0.9155  0.2542
   32SAPC   H4R 4277   4.579   4.205   7.140  0.6951  1.0157 -0.6526
   32SAPC   H4S 4278   4.614   4.141   6.986  1.2652  1.9064  2.2281
   32SAPC   C25 4279   4.522   3.993   7.108  0.0950 -0.2644 -0.5317
   32SAPC   H5R 4280   4.474   3.927   7.034 -0.5133  1.2116 -1.5094
   32SAPC   C26 4281   4.552   3.939   7.233  0.5327 -0.5841  0.6480
   32SAPC   H6R 4282   4.535   3.831   7.237  1.1141 -0.6957  0.2539
   32SAPC   C27 4283   4.611   4.014   7.344  0.0481 -0.1547  0.0855
   32SAPC   H7R 4284   4.540   4.097   7.364  0.3685  0.3608 -0.8340
   32SAPC   H7S 4285   4.708   4.068   7.332 -0.3408  0.2287 -1.5910
   32SAPC   C28 4286   4.624   3.931   7.470 -0.0499  0.2930  0.1859
   32SAPC   H8R 4287   4.626   3.825   7.442 -1.4913  0.4458 -0.6090
   32SAPC   C29 4288   4.627   3.973   7.594  0.4325  0.3052  0.0957
   32SAPC   H9R 4289   4.625   3.893   7.670 -1.9894 -0.6717 -0.9045
   32SAPC  C210 4290   4.614   4.111   7.646  0.6199 -0.3541  0.2168
   32SAPC  H10R 4291   4.518   4.124   7.701 -0.0797 -1.0023 -0.8156
   32SAPC  H10S 4292   4.597   4.176   7.558  2.1019 -1.8506 -1.2267
   32SAPC  C211 4293   4.737   4.148   7.724  0.0347  0.3327 -0.5338
   32SAPC  H11R 4294   4.825   4.155   7.658 -1.2209 -1.7667 -2.5775
   32SAPC  C212 4295   4.746   4.164   7.858 -0.2071  0.0214 -0.8776
   32SAPC  H12R 4296   4.841   4.177   7.911 -1.3370  1.4059  0.9186
   32SAPC  C213 4297   4.629   4.141   7.952 -0.4009 -0.4891  0.6652
   32SAPC  H13R 4298   4.594   4.035   7.946  1.6231 -1.1558 -2.7783
   32SAPC  H13S 4299   4.549   4.214   7.927 -0.0743  0.8159  3.1372
   32SAPC  C214 4300   4.653   4.155   8.101 -0.1168 -0.7451 -0.5107
   32SAPC  H14R 4301   4.752   4.198   8.124 -2.4608  3.0894  3.9601
   32SAPC  C215 4302   4.570   4.129   8.197 -0.0444 -0.3368  0.3980
   32SAPC  H15R 4303   4.611   4.133   8.299  0.7345 -1.0402  0.1124
   32SAPC  C216 4304   4.422   4.104   8.173 -0.4767  0.3112  0.1741
   32SAPC  H16R 4305   4.409   3.997   8.146 -0.6004  0.0051  1.3876
   32SAPC  H16S 4306   4.384   4.169   8.092 -1.0370  1.3827  1.2514
   32SAPC  C217 4307   4.322   4.136   8.296  0.6368 -0.1942  0.3993
   32SAPC  H17R 4308   4.219   4.109   8.264  0.9561 -0.2504 -0.6353
   32SAPC  H17S 4309   4.332   4.246   8.292 -0.5830 -0.0147  1.8407
   32SAPC  C218 4310   4.354   4.070   8.429  0.7502 -0.3008  0.0341
   32SAPC  H18R 4311   4.308   4.136   8.505  1.5515 -1.7082  1.8123
   32SAPC  H18S 4312   4.464   4.074   8.445  0.9078 -1.3908 -0.6744
   32SAPC  C219 4313   4.288   3.930   8.444 -0.5951 -0.3691 -0.2614
   32SAPC  H19R 4314   4.333   3.867   8.364  1.6475  0.0019  0.6119
   32SAPC  H19S 4315   4.180   3.939   8.423 -0.8296 -0.5697  0.7912
   32SAPC  C220 4316   4.298   3.876   8.581 -0.0636 -0.2016 -0.3897
   32SAPC  H20R 4317   4.403   3.872   8.617  0.5019  1.4056 -1.7204
   32SAPC  H20S 4318   4.255   3.774   8.592  3.5250 -1.7213  0.7381
   32SAPC  H20T 4319   4.242   3.933   8.658  1.1877 -1.5312  1.6163
   32SAPC   C33 4320   3.790   4.259   7.085 -0.2910 -0.3450  0.2769
   32SAPC   H3X 4321   3.767   4.155   7.053 -1.1331 -0.1118  0.0912
   32SAPC   H3Y 4322   3.690   4.308   7.073 -1.2490 -1.9774  1.1684
   32SAPC   C34 4323   3.828   4.250   7.233  0.1895  0.9354 -0.3803
   32SAPC   H4X 4324   3.918   4.186   7.243 -0.0432  0.0181 -3.2685
   32SAPC   H4Y 4325   3.739   4.207   7.284  1.0943  1.1764  1.4462
   32SAPC   C35 4326   3.844   4.391   7.295 -0.0783 -0.4282 -0.2149
   32SAPC   H5X 4327   3.764   4.455   7.253 -1.0357 -0.8532  0.8965
   32SAPC   H5Y 4328   3.942   4.430   7.260  0.3246 -2.1269 -1.1281
   32SAPC   C36 4329   3.807   4.401   7.439  0.0693  0.1242 -0.4243
   32SAPC   H6X 4330   3.704   4.362   7.447  0.5610 -1.8023 -2.4046
   32SAPC   H6Y 4331   3.801   4.504   7.479 -2.0647 -0.4502  0.8622
   32SAPC   C37 4332   3.894   4.314   7.533  0.3014 -0.1069  0.6387
   32SAPC   H7X 4333   3.999   4.339   7.503 -0.5823  2.5589 -0.5744
   32SAPC   H7Y 4334   3.884   4.207   7.507 -0.3540 -0.0180  0.5105
   32SAPC   C38 4335   3.873   4.337   7.683 -0.1357 -0.2780 -0.4192
   32SAPC   H8X 4336   3.765   4.334   7.710  0.0912  0.7848  0.6645
   32SAPC   H8Y 4337   3.920   4.436   7.698  0.5929 -0.6429 -0.2033
   32SAPC   C39 4338   3.921   4.223   7.774 -0.0210 -0.1717 -0.7106
   32SAPC   H9X 4339   4.029   4.199   7.782 -0.2435 -0.7691  0.7030
   32SAPC   H9Y 4340   3.877   4.132   7.729 -2.7243  1.7028 -2.1501
   32SAPC  C310 4341   3.870   4.243   7.919  0.1670 -0.5650  0.0434
   32SAPC  H10X 4342   3.841   4.143   7.959  0.3941 -1.2854 -1.5415
   32SAPC  H10Y 4343   3.777   4.305   7.921  0.1409 -0.5214 -1.5673
   32SAPC  C311 4344   3.968   4.318   8.016 -0.2427 -0.5971 -0.1527
   32SAPC  H11X 4345   3.984   4.422   7.982  1.1417 -0.7002  0.1329
   32SAPC  H11Y 4346   4.065   4.268   7.998  0.2049  0.3308 -0.3138
   32SAPC  C312 4347   3.930   4.305   8.162  0.1801  0.1424  0.0666
   32SAPC  H12X 4348   3.941   4.198   8.191 -0.1771  0.0706 -0.0485
   32SAPC  H12Y 4349   3.829   4.350   8.174  0.9903  2.4193 -1.1730
   32SAPC  C313 4350   4.039   4.390   8.240 -0.0702 -0.3929  0.1687
   32SAPC  H13X 4351   4.021   4.494   8.206 -0.8622 -0.7818 -0.6485
   32SAPC  H13Y 4352   4.142   4.361   8.211  1.0567  2.2650  1.2062
   32SAPC  C314 4353   4.032   4.376   8.395 -0.3852  0.6705 -0.1995
   32SAPC  H14X 4354   4.042   4.269   8.421  3.7994  0.9557  0.1347
   32SAPC  H14Y 4355   3.936   4.414   8.436 -0.2857 -0.8469  1.5367
   32SAPC  C315 4356   4.145   4.445   8.469 -0.6208 -0.2888  0.1384
   32SAPC  H15X 4357   4.238   4.433   8.410 -0.3521 -1.5425  0.7769
   32SAPC  H15Y 4358   4.167   4.402   8.569  0.7185  0.4860  0.2022
   32SAPC  C316 4359   4.121   4.594   8.477  0.0559 -0.6865 -0.2479
   32SAPC  H16X 4360   4.017   4.607   8.517 -0.1659 -1.1687 -0.6631
   32SAPC  H16Y 4361   4.137   4.635   8.375  2.9589 -1.2129 -0.0668
   32SAPC  C317 4362   4.214   4.663   8.581  0.0104 -0.0539  0.7268
   32SAPC  H17X 4363   4.244   4.600   8.667 -0.7478 -0.6974  0.5347
   32SAPC  H17Y 4364   4.150   4.735   8.637  0.1604  0.0914  0.7117
   32SAPC  C318 4365   4.328   4.741   8.522 -0.3128  0.0837 -0.0396
   32SAPC  H18X 4366   4.288   4.817   8.452  0.0640  0.8527  0.5589
   32SAPC  H18Y 4367   4.398   4.666   8.481  1.2391  0.8049  1.1838
   32SAPC  H18Z 4368   4.383   4.781   8.610 -2.3005  0.4854  1.0621
   33POPC     N 4369   5.929   2.625  10.718  0.6280  0.0296  0.8744
   33POPC   C12 4370   5.943   2.517  10.615 -0.2959  0.3245  0.2115
   33POPC  H12A 4371   5.923   2.426  10.669 -1.4036  1.5769  2.0436
   33POPC  H12B 4372   6.047   2.512  10.588  0.3182 -1.0497  2.5370
   33POPC   C13 4373   5.984   2.756  10.662 -0.4957 -0.5129  0.2026
   33POPC  H13A 4374   6.088   2.738  10.637 -1.0152 -0.8421 -1.9098
   33POPC  H13B 4375   5.941   2.794  10.570 -2.0567 -1.1698  0.6419
   33POPC  H13C 4376   5.984   2.837  10.733  3.3284  0.3398 -0.5184
   33POPC   C14 4377   5.783   2.632  10.749 -0.1171 -0.2001  0.3231
   33POPC  H14A 4378   5.767   2.708  10.824 -1.1950 -0.0198 -0.0747
   33POPC  H14B 4379   5.734   2.672  10.661 -0.1216  0.7416  0.7460
   33POPC  H14C 4380   5.729   2.542  10.775 -1.7333 -0.0406 -2.1107
   33POPC   C15 4381   6.007   2.582  10.836  0.0410  0.0503 -0.6037
   33POPC  H15A 4382   6.004   2.671  10.898  0.5311 -1.0869  1.1310
   33POPC  H15B 4383   6.111   2.558  10.818  0.1656 -0.5135  0.6805
   33POPC  H15C 4384   5.956   2.499  10.883  0.2319 -0.5914 -1.5192
   33POPC   C11 4385   5.878   2.530  10.476  0.1271  0.2035 -0.4673
   33POPC  H11A 4386   5.929   2.468  10.399  3.0260  2.9639 -1.0074
   33POPC  H11B 4387   5.888   2.636  10.443  0.3684  0.2147 -0.3617
   33POPC     P 4388   5.679   2.356  10.504 -0.1811  0.2033 -0.6194
   33POPC   O13 4389   5.548   2.365  10.565 -0.0039  0.0091  0.2874
   33POPC   O14 4390   5.779   2.270  10.571 -0.2502  0.4976 -0.4669
   33POPC   O12 4391   5.735   2.500  10.494  0.1298 -0.1780 -0.1783
   33POPC   O11 4392   5.665   2.321  10.352  0.1187 -0.2661  0.1347
   33POPC    C1 4393   5.633   2.424  10.245 -0.0483 -0.1813 -0.0946
   33POPC    HA 4394   5.666   2.525  10.274  1.9601 -0.7937 -0.1389
   33POPC    HB 4395   5.691   2.392  10.156  2.7343  1.5856  0.9657
   33POPC    C2 4396   5.487   2.436  10.219  0.6581  0.0526 -0.0311
   33POPC    HS 4397   5.436   2.446  10.317 -1.1427 -2.3529 -0.6179
   33POPC   O21 4398   5.450   2.318  10.153 -1.1054  0.4789 -0.3397
   33POPC   C21 4399   5.322   2.297  10.148 -0.1989  0.1341 -0.3643
   33POPC   O22 4400   5.228   2.366  10.190 -0.6358 -0.2301 -0.0784
   33POPC   C22 4401   5.299   2.173  10.049 -0.1441  0.0679  0.1798
   33POPC   H2R 4402   5.201   2.129  10.078  1.1288 -3.3606 -0.1394
   33POPC   H2S 4403   5.371   2.090  10.065  0.3035 -0.0851 -2.2269
   33POPC    C3 4404   5.469   2.564  10.130  0.1686 -0.4688 -0.8904
   33POPC    HX 4405   5.484   2.650  10.200  1.5357  0.1133 -1.8608
   33POPC    HY 4406   5.360   2.575  10.111  0.0039  0.7951  0.5408
   33POPC   O31 4407   5.546   2.576  10.012  0.5688 -0.1657 -0.1334
   33POPC   C31 4408   5.616   2.685   9.993  0.8440 -0.3888 -0.4108
   33POPC   O32 4409   5.604   2.782  10.065  0.0705  0.1461  0.1663
   33POPC   C32 4410   5.717   2.662   9.883 -0.6288 -0.8033  0.2349
   33POPC   H2X 4411   5.763   2.568   9.920  1.1355  0.3689  1.1502
   33POPC   H2Y 4412   5.794   2.742   9.878 -0.4033 -1.0393 -3.9399
   33POPC   C23 4413   5.287   2.210   9.900  0.1864  0.6475  0.3708
   33POPC   H3R 4414   5.213   2.286   9.867  0.0652 -0.0078 -0.9469
   33POPC   H3S 4415   5.257   2.115   9.851  3.0208  0.6218 -1.5644
   33POPC   C24 4416   5.416   2.241   9.830 -0.3146 -0.2080 -0.7989
   33POPC   H4R 4417   5.460   2.143   9.801  1.5212  1.0167 -2.4309
   33POPC   H4S 4418   5.484   2.297   9.897 -0.0366 -1.2170 -0.2171
   33POPC   C25 4419   5.396   2.327   9.710 -0.2976 -0.4894 -0.2141
   33POPC   H5R 4420   5.497   2.349   9.668 -0.2566  0.5452  0.3838
   33POPC   H5S 4421   5.354   2.427   9.734  2.1326  0.0504  2.3595
   33POPC   C26 4422   5.318   2.268   9.591 -0.0769  0.2359 -0.6615
   33POPC   H6R 4423   5.226   2.219   9.630  0.9278 -1.4297 -0.2849
   33POPC   H6S 4424   5.381   2.185   9.550  1.2246  0.0649  1.4744
   33POPC   C27 4425   5.310   2.367   9.476 -0.0053 -0.0099  0.1019
   33POPC   H7R 4426   5.415   2.381   9.442 -0.0883  0.7696  0.1354
   33POPC   H7S 4427   5.278   2.464   9.520 -1.6987 -0.1837 -0.6615
   33POPC   C28 4428   5.213   2.337   9.359  0.2869  0.1468 -0.1697
   33POPC   H8R 4429   5.204   2.439   9.317 -0.5648  1.0385  2.0520
   33POPC   H8S 4430   5.107   2.328   9.389  0.2092  0.2028 -0.4201
   33POPC   C29 4431   5.261   2.220   9.273  0.1798  0.0592  0.5067
   33POPC   H91 4432   5.325   2.150   9.327 -0.9647 -0.3063  1.4373
   33POPC  C210 4433   5.225   2.196   9.153 -0.2986  0.3800  0.4298
   33POPC  H101 4434   5.259   2.109   9.095  0.4678  1.9162 -1.5506
   33POPC  C211 4435   5.130   2.287   9.082  0.3202 -0.8654 -0.2783
   33POPC  H11R 4436   5.057   2.326   9.156  1.9730  0.0341  0.9529
   33POPC  H11S 4437   5.072   2.225   9.011 -1.5346  1.1720 -0.6790
   33POPC  C212 4438   5.197   2.408   9.015 -0.1845 -0.3253 -0.0680
   33POPC  H12R 4439   5.285   2.386   8.952  0.8719 -0.3967  1.3755
   33POPC  H12S 4440   5.222   2.482   9.094 -0.6899  0.0081 -0.2135
   33POPC  C213 4441   5.094   2.459   8.912  0.0264  0.5844  0.4192
   33POPC  H13R 4442   4.995   2.482   8.957 -0.4629  2.2677 -1.3984
   33POPC  H13S 4443   5.093   2.379   8.834  1.6202  2.0857 -1.2286
   33POPC  C214 4444   5.144   2.587   8.852 -0.2279 -0.1486  0.5635
   33POPC  H14R 4445   5.255   2.590   8.858 -0.2137  2.1401 -0.1805
   33POPC  H14S 4446   5.121   2.672   8.918 -0.4108  0.4410 -0.2446
   33POPC  C215 4447   5.097   2.604   8.708 -0.1091  0.3290  0.0302
   33POPC  H15R 4448   5.101   2.710   8.678 -0.5960 -0.3449 -2.6920
   33POPC  H15S 4449   4.995   2.559   8.702 -0.2655  0.8722 -3.1964
   33POPC  C216 4450   5.195   2.529   8.614 -0.1020  0.6537 -0.0531
   33POPC  H16R 4451   5.188   2.421   8.638 -1.2886  0.3751 -1.5254
   33POPC  H16S 4452   5.298   2.568   8.629 -0.1412 -0.2418  3.3984
   33POPC  C217 4453   5.163   2.550   8.474  0.3259  1.0055  0.3572
   33POPC  H17R 4454   5.186   2.655   8.449 -0.5601  0.9174 -0.9220
   33POPC  H17S 4455   5.056   2.535   8.447  0.2627 -0.5846  1.3289
   33POPC  C218 4456   5.240   2.455   8.379 -0.2221 -0.7413  0.2982
   33POPC  H18R 4457   5.208   2.353   8.410  2.6528 -0.8889  3.4204
   33POPC  H18S 4458   5.351   2.464   8.386 -0.2994 -1.1443  3.8148
   33POPC  H18T 4459   5.206   2.468   8.274  0.2326 -0.5769  0.1702
   33POPC   C33 4460   5.665   2.646   9.738 -0.2599 -0.1401  0.4758
   33POPC   H3X 4461   5.594   2.560   9.734 -0.1445 -0.2528  0.8848
   33POPC   H3Y 4462   5.751   2.625   9.671 -2.0616 -0.2470 -1.9461
   33POPC   C34 4463   5.588   2.765   9.676 -0.1831 -0.1996 -0.3039
   33POPC   H4X 4464   5.620   2.771   9.570 -0.7792 -0.5598 -0.5104
   33POPC   H4Y 4465   5.623   2.862   9.718  0.3512  1.0250 -3.3253
   33POPC   C35 4466   5.431   2.754   9.685  0.2769 -0.2197 -0.3728
   33POPC   H5X 4467   5.393   2.726   9.786  0.3463 -1.2752 -0.6354
   33POPC   H5Y 4468   5.403   2.671   9.617 -0.6129 -0.1196 -0.1375
   33POPC   C36 4469   5.360   2.892   9.648  0.1859  0.0311  0.0081
   33POPC   H6X 4470   5.425   2.943   9.574  1.0516 -0.3932  0.4624
   33POPC   H6Y 4471   5.362   2.947   9.744 -0.9782 -0.7462  0.4993
   33POPC   C37 4472   5.212   2.886   9.603 -1.2603 -0.3638  0.3222
   33POPC   H7X 4473   5.177   2.991   9.592 -1.6047 -0.5007  0.0731
   33POPC   H7Y 4474   5.150   2.837   9.681  1.3523 -2.0454  1.4823
   33POPC   C38 4475   5.189   2.825   9.465  0.5237 -0.0060 -0.5792
   33POPC   H8X 4476   5.078   2.828   9.457  0.4121  1.4764  1.0197
   33POPC   H8Y 4477   5.225   2.720   9.472 -0.9335 -0.5314 -0.5248
   33POPC   C39 4478   5.249   2.898   9.352 -0.8007  0.2912 -0.0441
   33POPC   H9X 4479   5.359   2.912   9.353 -0.8607  0.8277 -0.6325
   33POPC   H9Y 4480   5.204   2.999   9.350 -2.4708 -0.3687  1.2033
   33POPC  C310 4481   5.225   2.823   9.214  0.6774 -0.0229 -0.8332
   33POPC  H10X 4482   5.222   2.713   9.230 -2.6438 -0.2159 -1.8714
   33POPC  H10Y 4483   5.302   2.853   9.140  2.0525 -3.3420 -0.9155
   33POPC  C311 4484   5.094   2.873   9.142  0.0174  0.3775  0.4637
   33POPC  H11X 4485   5.019   2.906   9.217  0.1316  0.2178  0.6475
   33POPC  H11Y 4486   5.037   2.792   9.092  0.8013  1.0934 -1.6993
   33POPC  C312 4487   5.117   2.986   9.037  0.5992 -0.1309  0.2729
   33POPC  H12X 4488   5.023   2.993   8.979  0.1772  2.4567  1.1515
   33POPC  H12Y 4489   5.204   2.953   8.976 -1.0752 -0.9698 -1.7771
   33POPC  C313 4490   5.160   3.125   9.099  0.1465  0.1363  0.2161
   33POPC  H13X 4491   5.263   3.110   9.137 -0.2830 -0.6628  1.0870
   33POPC  H13Y 4492   5.096   3.154   9.185  2.0238  0.8035  1.4655
   33POPC  C314 4493   5.144   3.235   8.995 -0.2465  0.5534 -0.5063
   33POPC  H14X 4494   5.161   3.329   9.052 -0.9894  0.5290 -0.2346
   33POPC  H14Y 4495   5.037   3.232   8.964 -0.5537  1.4876  0.3882
   33POPC  C315 4496   5.231   3.223   8.870  0.4769 -0.0464  0.1066
   33POPC  H15X 4497   5.225   3.120   8.830  4.1285 -1.4597  2.6482
   33POPC  H15Y 4498   5.335   3.241   8.904  1.6306 -1.5138 -2.3699
   33POPC  C316 4499   5.200   3.326   8.763 -0.5324  0.4164  0.2783
   33POPC  H16X 4500   5.295   3.334   8.706 -0.7941  0.1887 -0.2069
   33POPC  H16Y 4501   5.174   3.426   8.805 -3.2779 -0.2744  0.4428
   33POPC  H16Z 4502   5.117   3.300   8.692 -2.5181  0.0494  2.6042
   34POPC     N 4503   6.827   3.321  11.081  0.0268 -0.3875  0.4631
   34POPC   C12 4504   6.983   3.328  11.077 -0.0732 -0.1611  0.0725
   34POPC  H12A 4505   7.024   3.256  11.146  0.2158 -2.7186 -2.5365
   34POPC  H12B 4506   7.012   3.420  11.124 -0.6270  0.1298 -0.1386
   34POPC   C13 4507   6.779   3.351  11.222 -0.3460 -0.4666 -0.5173
   34POPC  H13A 4508   6.842   3.428  11.263 -0.2802 -1.7234  1.9791
   34POPC  H13B 4509   6.675   3.379  11.233 -0.4066 -0.2513 -1.5470
   34POPC  H13C 4510   6.802   3.266  11.285 -0.4403  1.0397  1.6695
   34POPC   C14 4511   6.775   3.426  10.993  0.6679 -0.9090  0.2230
   34POPC  H14A 4512   6.670   3.413  10.976  0.7112 -1.9192  0.6296
   34POPC  H14B 4513   6.779   3.519  11.048  0.1856 -0.8360  0.1357
   34POPC  H14C 4514   6.824   3.425  10.896 -0.5532 -0.8201 -0.4064
   34POPC   C15 4515   6.779   3.190  11.046 -0.5712  0.4240 -0.6143
   34POPC  H15A 4516   6.841   3.111  11.084 -0.0927 -0.3337 -2.8320
   34POPC  H15B 4517   6.795   3.187  10.939 -3.1593 -0.1856 -1.0579
   34POPC  H15C 4518   6.676   3.162  11.061  0.2517 -3.1115 -0.7443
   34POPC   C11 4519   7.047   3.314  10.935 -0.0412 -0.0767 -0.3472
   34POPC  H11A 4520   7.022   3.219  10.884 -1.7311 -1.9737  3.5495
   34POPC  H11B 4521   7.155   3.307  10.958  0.0570 -1.4594 -1.1287
   34POPC     P 4522   7.074   3.449  10.703 -0.2588  0.0693 -0.0403
   34POPC   O13 4523   7.213   3.497  10.711 -0.4163  0.2208  0.1491
   34POPC   O14 4524   6.977   3.540  10.635  1.0701  0.2365  0.3826
   34POPC   O12 4525   7.022   3.424  10.849  0.7634  0.2992  0.2001
   34POPC   O11 4526   7.068   3.309  10.641 -0.2964  0.3627  0.7345
   34POPC    C1 4527   6.947   3.258  10.574  0.7116 -0.1898 -0.7742
   34POPC    HA 4528   6.860   3.318  10.605  0.2391  0.4614 -3.1742
   34POPC    HB 4529   6.937   3.150  10.599  0.5437 -0.2653 -1.1646
   34POPC    C2 4530   6.945   3.262  10.419  0.0669  0.1460  0.2766
   34POPC    HS 4531   6.899   3.167  10.384  0.4495  0.9083 -2.5817
   34POPC   O21 4532   7.079   3.272  10.361  0.3135  0.9570  0.1111
   34POPC   C21 4533   7.142   3.149  10.350  0.6200 -0.1272 -0.8908
   34POPC   O22 4534   7.083   3.044  10.359 -0.3927  0.2635 -0.3753
   34POPC   C22 4535   7.301   3.170  10.338 -0.4399  0.3021 -0.2171
   34POPC   H2R 4536   7.362   3.181  10.430 -0.0536 -0.6133 -0.3574
   34POPC   H2S 4537   7.315   3.261  10.276  1.3744  1.3537  1.6130
   34POPC    C3 4538   6.858   3.372  10.357  0.4739  0.0116  0.5227
   34POPC    HX 4539   6.888   3.469  10.402 -0.5894  0.0140  1.2659
   34POPC    HY 4540   6.755   3.341  10.384  0.7726  0.0614  1.8112
   34POPC   O31 4541   6.884   3.378  10.218 -0.4105 -0.2433 -0.3223
   34POPC   C31 4542   6.809   3.295  10.140 -0.0146  0.1433  0.0853
   34POPC   O32 4543   6.712   3.230  10.180  0.1940 -0.1109 -0.3930
   34POPC   C32 4544   6.882   3.299  10.004  0.0591 -0.2314 -0.0081
   34POPC   H2X 4545   6.970   3.231  10.012 -0.4502 -0.7523  1.6354
   34POPC   H2Y 4546   6.917   3.403   9.992 -0.0754 -0.2421 -0.4875
   34POPC   C23 4547   7.369   3.058  10.256  0.5526 -0.1540  0.0524
   34POPC   H3R 4548   7.354   2.959  10.305 -0.5790 -0.3143 -0.5890
   34POPC   H3S 4549   7.478   3.073  10.239  0.2570  2.4503  0.1340
   34POPC   C24 4550   7.316   3.047  10.109 -0.0720 -0.3711  0.3829
   34POPC   H4R 4551   7.325   3.148  10.065 -1.3523 -0.9437 -1.3181
   34POPC   H4S 4552   7.207   3.029  10.115 -0.3958  1.0261 -0.7554
   34POPC   C25 4553   7.390   2.954  10.018  0.0826  0.6020 -0.2396
   34POPC   H5R 4554   7.359   2.851  10.047 -1.5586  1.4828  1.3331
   34POPC   H5S 4555   7.499   2.940  10.040  0.4149 -0.7776 -2.4679
   34POPC   C26 4556   7.383   2.983   9.873  0.9660 -0.1256  0.0968
   34POPC   H6R 4557   7.454   2.920   9.816 -0.6546 -2.7052  0.7401
   34POPC   H6S 4558   7.407   3.091   9.874 -0.4295  0.2114  0.3747
   34POPC   C27 4559   7.236   2.956   9.830  0.8255  0.4766  0.1439
   34POPC   H7R 4560   7.167   3.029   9.879 -1.8738 -1.2561 -0.8377
   34POPC   H7S 4561   7.211   2.852   9.859  1.4748  0.9866  2.8271
   34POPC   C28 4562   7.226   2.967   9.678  0.4810 -0.2628  0.1413
   34POPC   H8R 4563   7.276   3.064   9.658 -0.5593  0.8757  2.6335
   34POPC   H8S 4564   7.118   2.970   9.652  0.1012 -1.7443  1.3679
   34POPC   C29 4565   7.290   2.853   9.607  0.6136 -1.3537  0.1214
   34POPC   H91 4566   7.372   2.802   9.660  2.6122  0.9411 -0.5742
   34POPC  C210 4567   7.248   2.814   9.485  0.3979  0.1382  0.2122
   34POPC  H101 4568   7.306   2.728   9.448  1.3021 -0.7183  3.2776
   34POPC  C211 4569   7.140   2.866   9.396  0.0944  0.6251  0.0116
   34POPC  H11R 4570   7.122   2.973   9.419 -1.3752  0.0489  1.7726
   34POPC  H11S 4571   7.043   2.814   9.406  0.5263 -0.6692 -2.0247
   34POPC  C212 4572   7.195   2.843   9.254  0.3739  0.0025 -0.7524
   34POPC  H12R 4573   7.114   2.873   9.183 -0.5081  1.4413  0.7791
   34POPC  H12S 4574   7.209   2.734   9.237 -0.3942  0.1698 -2.6499
   34POPC  C213 4575   7.317   2.928   9.221 -0.9321 -0.2314  0.1173
   34POPC  H13R 4576   7.403   2.915   9.290 -0.2896  2.7622  0.0317
   34POPC  H13S 4577   7.283   3.033   9.232 -1.5429 -0.4507  0.3770
   34POPC  C214 4578   7.356   2.904   9.077  0.3889 -0.2757  0.6312
   34POPC  H14R 4579   7.267   2.888   9.014  0.0034  2.4795  0.3645
   34POPC  H14S 4580   7.429   2.820   9.070 -0.0764 -0.5743 -0.9104
   34POPC  C215 4581   7.403   3.038   9.013 -0.4947 -0.2890 -0.0716
   34POPC  H15R 4582   7.450   3.105   9.088  0.3835  1.0970 -1.8075
   34POPC  H15S 4583   7.312   3.092   8.979  1.1282  1.6468 -1.4913
   34POPC  C216 4584   7.511   3.024   8.907 -0.0554 -0.4422 -0.8108
   34POPC  H16R 4585   7.485   2.935   8.845  1.9556 -1.1292 -0.7144
   34POPC  H16S 4586   7.597   3.005   8.974 -0.1827 -1.7131 -0.9827
   34POPC  C217 4587   7.517   3.152   8.825 -0.7343 -0.2849 -1.3357
   34POPC  H17R 4588   7.532   3.231   8.902  0.4519  0.4370 -2.2655
   34POPC  H17S 4589   7.419   3.179   8.781 -0.2634  1.1228 -1.5931
   34POPC  C218 4590   7.623   3.154   8.713 -0.4051  0.8391 -0.0157
   34POPC  H18R 4591   7.715   3.105   8.752  0.2373  0.4841 -1.8459
   34POPC  H18S 4592   7.651   3.256   8.679 -4.2312  0.8831 -3.9140
   34POPC  H18T 4593   7.597   3.101   8.619  1.8025 -1.6392  0.6507
   34POPC   C33 4594   6.802   3.253   9.883 -0.2888  0.1788 -0.3604
   34POPC   H3X 4595   6.722   3.326   9.856  0.2639  0.3746 -1.4952
   34POPC   H3Y 4596   6.767   3.148   9.887 -2.4392  0.8472 -0.2076
   34POPC   C34 4597   6.877   3.260   9.749  0.2699  0.2455 -0.3223
   34POPC   H4X 4598   6.975   3.219   9.779  0.4600  1.9152  1.5348
   34POPC   H4Y 4599   6.903   3.355   9.698 -0.0717  0.1412 -0.6974
   34POPC   C35 4600   6.808   3.190   9.632 -0.2130 -0.7511 -0.0220
   34POPC   H5X 4601   6.715   3.242   9.602 -0.7588 -2.1404 -0.8712
   34POPC   H5Y 4602   6.785   3.086   9.662 -0.6300 -0.9171 -0.8803
   34POPC   C36 4603   6.908   3.193   9.511  0.7816 -1.1291 -0.3746
   34POPC   H6X 4604   7.013   3.167   9.538  1.7240 -1.5036 -3.9544
   34POPC   H6Y 4605   6.905   3.301   9.484 -1.5193 -0.7069  1.2753
   34POPC   C37 4606   6.848   3.122   9.394  0.4882 -0.0287 -0.4958
   34POPC   H7X 4607   6.742   3.144   9.371  1.0347 -0.0973 -3.4023
   34POPC   H7Y 4608   6.846   3.013   9.416  2.3893  0.2631  1.5649
   34POPC   C38 4609   6.913   3.140   9.255  0.4756  0.0949 -0.5225
   34POPC   H8X 4610   7.023   3.121   9.253  0.8703  2.0444  0.4365
   34POPC   H8Y 4611   6.895   3.242   9.217 -1.4767 -0.0631 -0.0846
   34POPC   C39 4612   6.849   3.043   9.143  0.1019 -0.4347 -0.3856
   34POPC   H9X 4613   6.743   3.073   9.142  0.5761  1.4884  1.1862
   34POPC   H9Y 4614   6.867   2.943   9.189  2.5001 -0.2015 -0.6877
   34POPC  C310 4615   6.918   3.041   9.010 -1.1706  0.6737 -0.0986
   34POPC  H10X 4616   6.891   2.949   8.952 -0.9864  0.4060  0.2422
   34POPC  H10Y 4617   7.027   3.031   9.025 -1.3527 -3.6318 -0.3727
   34POPC  C311 4618   6.902   3.157   8.915 -0.7668  0.6808 -0.1461
   34POPC  H11X 4619   7.001   3.169   8.866 -0.1776 -0.1955  0.7804
   34POPC  H11Y 4620   6.881   3.248   8.974  1.1203 -0.3001  2.2078
   34POPC  C312 4621   6.775   3.136   8.831 -0.2718  0.6525  0.0305
   34POPC  H12X 4622   6.679   3.144   8.886 -0.2228 -0.3921  0.3014
   34POPC  H12Y 4623   6.786   3.032   8.794  1.0098  0.9088 -0.3414
   34POPC  C313 4624   6.786   3.225   8.712  0.2879  1.3644 -0.2053
   34POPC  H13X 4625   6.881   3.206   8.658 -0.3640 -2.6245 -0.2583
   34POPC  H13Y 4626   6.787   3.334   8.735  2.2658  1.7226 -1.6856
   34POPC  C314 4627   6.678   3.197   8.601  0.0966 -0.1931  0.3106
   34POPC  H14X 4628   6.577   3.227   8.638 -0.0325 -0.3995  0.1274
   34POPC  H14Y 4629   6.683   3.089   8.576 -0.6012  0.1895 -1.7233
   34POPC  C315 4630   6.706   3.275   8.470 -0.0658 -0.6079 -0.1058
   34POPC  H15X 4631   6.814   3.273   8.444 -0.3577 -0.6328 -1.3382
   34POPC  H15Y 4632   6.676   3.381   8.488 -0.3853 -0.7969  0.5368
   34POPC  C316 4633   6.621   3.224   8.354  0.3428  0.7907  0.1542
   34POPC  H16X 4634   6.513   3.220   8.379 -0.2210  1.0998 -2.0894
   34POPC  H16Y 4635   6.648   3.119   8.326 -3.7604 -0.6680  1.0234
   34POPC  H16Z 4636   6.617   3.291   8.266 -3.9884  0.7873  0.1223
   35POPC     N 4637   5.657   5.216  10.925  0.0989  0.2708 -0.9930
   35POPC   C12 4638   5.618   5.276  11.055 -0.3028  0.1684  0.1140
   35POPC  H12A 4639   5.704   5.333  11.088 -0.9046 -0.3451  2.8130
   35POPC  H12B 4640   5.605   5.199  11.130  1.4785 -0.1249  0.1726
   35POPC   C13 4641   5.677   5.324  10.822  0.8878  0.1358 -0.6568
   35POPC  H13A 4642   5.694   5.282  10.724  0.6257  0.4970 -0.8591
   35POPC  H13B 4643   5.591   5.389  10.814  0.8978  0.4970  1.5422
   35POPC  H13C 4644   5.761   5.386  10.846  1.9297 -1.6437  0.5166
   35POPC   C14 4645   5.791   5.153  10.931  0.7190  0.3092 -0.6869
   35POPC  H14A 4646   5.866   5.228  10.952  0.0716  0.8046 -0.1078
   35POPC  H14B 4647   5.806   5.072  11.001  1.1704 -2.6997 -3.9273
   35POPC  H14C 4648   5.812   5.105  10.836  0.4081 -0.5115 -0.3512
   35POPC   C15 4649   5.550   5.126  10.870  0.5377 -0.4113  0.6074
   35POPC  H15A 4650   5.585   5.091  10.774  1.6994  0.2989  0.7581
   35POPC  H15B 4651   5.467   5.196  10.866  1.6961  0.9495 -0.7344
   35POPC  H15C 4652   5.533   5.045  10.939  1.0145 -0.2582  0.9108
   35POPC   C11 4653   5.485   5.370  11.064 -0.1848 -0.0038 -0.2040
   35POPC  H11A 4654   5.492   5.446  10.984 -1.1258  0.0391 -0.2526
   35POPC  H11B 4655   5.502   5.425  11.159 -1.9085 -1.3687  0.9424
   35POPC     P 4656   5.251   5.336  10.995 -0.0551  0.1804 -0.2899
   35POPC   O13 4657   5.223   5.479  11.035  0.4253 -1.0615  0.3521
   35POPC   O14 4658   5.131   5.245  11.007 -0.2206 -0.2727 -0.5543
   35POPC   O12 4659   5.365   5.288  11.079 -0.0171 -0.6581 -0.3598
   35POPC   O11 4660   5.314   5.324  10.852  0.5339  0.1478 -0.3325
   35POPC    C1 4661   5.217   5.295  10.746 -0.5114  0.3482 -0.0184
   35POPC    HA 4662   5.126   5.357  10.759 -1.1081 -1.2087  6.6354
   35POPC    HB 4663   5.174   5.192  10.751 -1.7207  0.8703  0.9922
   35POPC    C2 4664   5.278   5.301  10.601 -0.1130  0.4915  0.0466
   35POPC    HS 4665   5.373   5.242  10.603  0.0105  0.2148 -4.3012
   35POPC   O21 4666   5.320   5.434  10.580 -0.3926  0.1083  0.6669
   35POPC   C21 4667   5.437   5.457  10.516  0.2456 -0.4516  0.1734
   35POPC   O22 4668   5.525   5.375  10.488 -0.7641 -0.0779 -0.8325
   35POPC   C22 4669   5.446   5.597  10.495  0.4366 -0.1369  0.3579
   35POPC   H2R 4670   5.416   5.647  10.590 -0.3617 -0.4508  0.2767
   35POPC   H2S 4671   5.389   5.632  10.407  1.0306  0.5263  0.2316
   35POPC    C3 4672   5.186   5.234  10.493 -0.2924  0.0502 -0.3459
   35POPC    HX 4673   5.097   5.299  10.482  0.4545  1.2583  0.4652
   35POPC    HY 4674   5.169   5.135  10.541  1.0147 -0.2184 -0.3999
   35POPC   O31 4675   5.258   5.217  10.364 -0.1839  0.0925 -0.3143
   35POPC   C31 4676   5.335   5.117  10.362 -0.1961 -0.0296  0.2375
   35POPC   O32 4677   5.357   5.037  10.455 -0.3879 -0.4884 -0.6232
   35POPC   C32 4678   5.402   5.109  10.213 -0.3998  0.5270  0.3107
   35POPC   H2X 4679   5.460   5.203  10.203  2.2737 -1.1060 -0.6406
   35POPC   H2Y 4680   5.310   5.113  10.150  0.0642 -0.2652 -0.4438
   35POPC   C23 4681   5.595   5.641  10.474  0.2832 -0.5801 -0.3436
   35POPC   H3R 4682   5.631   5.578  10.390  0.9315 -0.8365  0.1178
   35POPC   H3S 4683   5.661   5.613  10.559  2.5367  0.3311 -1.6961
   35POPC   C24 4684   5.613   5.794  10.439 -0.0784 -0.1802 -0.9431
   35POPC   H4R 4685   5.691   5.836  10.505 -0.9583 -2.3859  1.6630
   35POPC   H4S 4686   5.514   5.840  10.462 -0.4503 -1.6177  0.4981
   35POPC   C25 4687   5.645   5.821  10.298 -0.7769 -0.3868  0.1212
   35POPC   H5R 4688   5.739   5.767  10.270  0.0912  0.1980  1.7881
   35POPC   H5S 4689   5.659   5.930  10.288  1.8867 -0.7578 -1.1660
   35POPC   C26 4690   5.540   5.777  10.202  0.0649 -0.7390 -0.0553
   35POPC   H6R 4691   5.450   5.833  10.237  1.4162  0.8599  0.9822
   35POPC   H6S 4692   5.527   5.666  10.204  0.4743 -0.8787 -2.2649
   35POPC   C27 4693   5.572   5.812  10.057  0.4793 -0.2711  0.0113
   35POPC   H7R 4694   5.674   5.779  10.028 -0.2627 -2.3486 -0.3690
   35POPC   H7S 4695   5.559   5.922  10.050 -1.2698 -0.5149 -1.2957
   35POPC   C28 4696   5.471   5.742   9.959 -0.4004 -0.6106  0.6922
   35POPC   H8R 4697   5.447   5.636   9.985 -0.1943 -0.5977  0.9411
   35POPC   H8S 4698   5.522   5.720   9.863 -1.3115 -0.9132  0.2635
   35POPC   C29 4699   5.344   5.829   9.942  0.0528 -0.0378  0.0393
   35POPC   H91 4700   5.280   5.831  10.032  1.4172  1.0445  1.0183
   35POPC  C210 4701   5.299   5.890   9.831  0.4329 -0.0091 -0.2782
   35POPC  H101 4702   5.209   5.954   9.832 -0.2471 -0.8789  2.1604
   35POPC  C211 4703   5.367   5.896   9.699  0.5249  0.8219 -0.2621
   35POPC  H11R 4704   5.470   5.855   9.711  0.1566  0.0906  0.4835
   35POPC  H11S 4705   5.368   6.006   9.679  0.5801  1.0080  0.7063
   35POPC  C212 4706   5.281   5.832   9.587 -0.2903 -0.2657 -0.5601
   35POPC  H12R 4707   5.181   5.876   9.571  0.0389  0.1915 -1.4101
   35POPC  H12S 4708   5.250   5.728   9.613  3.0532 -1.1025  0.6314
   35POPC  C213 4709   5.355   5.830   9.459 -0.6252 -0.0597  0.0298
   35POPC  H13R 4710   5.446   5.771   9.481  0.6568  0.8842 -2.3497
   35POPC  H13S 4711   5.392   5.932   9.433  0.7265 -1.0114 -2.0526
   35POPC  C214 4712   5.287   5.776   9.326 -0.2022 -0.0543 -0.0653
   35POPC  H14R 4713   5.258   5.669   9.330 -1.0894  0.2232  1.4598
   35POPC  H14S 4714   5.368   5.777   9.249 -0.5848  0.0213 -0.4672
   35POPC  C215 4715   5.176   5.865   9.277 -0.1699  0.0893 -0.1719
   35POPC  H15R 4716   5.179   5.972   9.307  1.0892  0.3242 -1.0826
   35POPC  H15S 4717   5.081   5.822   9.318 -1.2092 -0.6211 -3.0755
   35POPC  C216 4718   5.174   5.859   9.125  0.1306  0.1927  0.5872
   35POPC  H16R 4719   5.174   5.750   9.102 -0.6032  0.5905 -1.4470
   35POPC  H16S 4720   5.271   5.899   9.088  0.0266  0.9795  1.1411
   35POPC  C217 4721   5.044   5.914   9.063  0.1793 -0.3407  0.1355
   35POPC  H17R 4722   5.036   6.024   9.075 -0.6594 -0.0136 -2.6206
   35POPC  H17S 4723   4.958   5.864   9.113 -0.0071 -0.6467 -0.4803
   35POPC  C218 4724   5.049   5.873   8.912  0.8669 -0.5545  0.3384
   35POPC  H18R 4725   5.041   5.766   8.883 -1.4828  0.2188 -2.2929
   35POPC  H18S 4726   5.142   5.920   8.876  0.5448 -0.1048  0.0892
   35POPC  H18T 4727   4.966   5.925   8.861  1.4074  0.9597  0.9499
   35POPC   C33 4728   5.477   4.972  10.198  0.1363 -0.2746  0.0050
   35POPC   H3X 4729   5.399   4.897  10.225 -1.4664  1.4104  0.2220
   35POPC   H3Y 4730   5.559   4.972  10.273  1.9103  1.1657 -1.8125
   35POPC   C34 4731   5.523   4.949  10.057  0.0490  0.0763  0.4979
   35POPC   H4X 4732   5.587   4.859  10.052 -1.2754 -1.0632  2.4811
   35POPC   H4Y 4733   5.576   5.040  10.023  1.3944 -0.4710  1.0586
   35POPC   C35 4734   5.410   4.944   9.953  0.6324 -0.2443 -0.7054
   35POPC   H5X 4735   5.350   5.037   9.956  0.6772 -0.2101 -0.8790
   35POPC   H5Y 4736   5.342   4.858   9.971 -0.6567  0.9220  0.2314
   35POPC   C36 4737   5.462   4.922   9.809  0.7866 -0.5470  0.1057
   35POPC   H6X 4738   5.524   4.829   9.807  1.8981  0.1183  1.7008
   35POPC   H6Y 4739   5.536   5.004   9.796 -0.9149  1.5440  2.5947
   35POPC   C37 4740   5.366   4.921   9.697  0.4267 -0.4463  0.1572
   35POPC   H7X 4741   5.305   5.014   9.709 -1.7541 -1.6706 -0.8401
   35POPC   H7Y 4742   5.299   4.832   9.698  0.6428 -0.6179 -0.3193
   35POPC   C38 4743   5.424   4.924   9.556 -0.0768 -0.2845  0.2242
   35POPC   H8X 4744   5.485   4.832   9.551  0.5250  0.1403 -0.6856
   35POPC   H8Y 4745   5.494   5.009   9.539  1.3739 -1.4211  0.3655
   35POPC   C39 4746   5.315   4.922   9.451 -0.0468  0.3156  0.4626
   35POPC   H9X 4747   5.232   4.995   9.464  0.0334  0.9598 -2.0043
   35POPC   H9Y 4748   5.265   4.823   9.450  1.0133 -0.2694  2.0042
   35POPC  C310 4749   5.382   4.943   9.310 -1.4413  0.5622 -0.5733
   35POPC  H10X 4750   5.464   4.869   9.294 -1.6891  0.5719 -1.9652
   35POPC  H10Y 4751   5.427   5.044   9.316 -3.5825  1.5537 -0.2808
   35POPC  C311 4752   5.275   4.926   9.197  0.5283 -0.3431 -0.0658
   35POPC  H11X 4753   5.195   4.991   9.238  1.2563  0.1737  0.5596
   35POPC  H11Y 4754   5.238   4.823   9.181 -0.2536  0.3911 -4.2209
   35POPC  C312 4755   5.324   4.977   9.060  0.0210 -0.4743  0.6684
   35POPC  H12X 4756   5.341   5.086   9.046  2.0509 -0.8441 -0.2213
   35POPC  H12Y 4757   5.242   4.959   8.987  0.0013  3.1481 -0.3949
   35POPC  C313 4758   5.459   4.908   9.019 -0.6103  1.1153 -0.4754
   35POPC  H13X 4759   5.436   4.800   9.026  0.8695  0.8599  1.1632
   35POPC  H13Y 4760   5.538   4.943   9.089 -0.7291  0.1583  0.1522
   35POPC  C314 4761   5.503   4.954   8.877  0.1224  0.5560  0.4559
   35POPC  H14X 4762   5.564   5.046   8.882  0.4661  0.4332 -1.1451
   35POPC  H14Y 4763   5.413   4.981   8.817  0.2843 -1.6179 -0.8672
   35POPC  C315 4764   5.576   4.838   8.802 -0.2209 -0.3733 -0.3483
   35POPC  H15X 4765   5.512   4.747   8.802  1.1330 -1.4452  2.1331
   35POPC  H15Y 4766   5.667   4.814   8.862 -0.3335 -3.3256 -1.1754
   35POPC  C316 4767   5.606   4.874   8.655 -0.1800 -0.1009 -0.3165
   35POPC  H16X 4768   5.682   4.803   8.617 -0.1537  0.4268 -1.2842
   35POPC  H16Y 4769   5.653   4.975   8.660 -0.2852 -0.1147  2.0482
   35POPC  H16Z 4770   5.512   4.874   8.596 -1.0486  0.4275  1.0190
   36POPC     N 4771   4.805   4.444  10.907  0.1115  0.0743 -0.0296
   36POPC   C12 4772   4.792   4.568  10.826  0.0827  0.6531 -0.0856
   36POPC  H12A 4773   4.704   4.566  10.765  0.5734  1.4726 -0.8360
   36POPC  H12B 4774   4.876   4.577  10.759  0.8998 -2.9756  0.2238
   36POPC   C13 4775   4.935   4.430  10.976 -0.5096  0.5805 -0.0820
   36POPC  H13A 4776   4.953   4.504  11.053 -1.3049  1.2624 -0.5418
   36POPC  H13B 4777   4.935   4.337  11.031 -2.2583  0.9543  0.6117
   36POPC  H13C 4778   5.011   4.433  10.899 -1.5425  0.7513 -1.1098
   36POPC   C14 4779   4.701   4.437  11.015 -0.1070  0.6449  1.2756
   36POPC  H14A 4780   4.706   4.518  11.086 -0.0097  2.3322 -0.5925
   36POPC  H14B 4781   4.605   4.424  10.967  0.8618 -1.3021 -0.3263
   36POPC  H14C 4782   4.717   4.344  11.069  0.1574 -1.3353 -1.9184
   36POPC   C15 4783   4.788   4.325  10.824 -0.5244 -0.7528  0.7912
   36POPC  H15A 4784   4.841   4.329  10.731  1.7495 -0.1692  2.0237
   36POPC  H15B 4785   4.685   4.318  10.794 -0.1250  0.4260 -0.9825
   36POPC  H15C 4786   4.832   4.248  10.885  2.6456  3.6656  4.9430
   36POPC   C11 4787   4.773   4.691  10.916 -0.5335  1.0099 -0.7103
   36POPC  H11A 4788   4.851   4.697  10.995 -1.4489 -0.9151  0.4228
   36POPC  H11B 4789   4.677   4.692  10.972 -0.2250  0.3139 -0.1553
   36POPC     P 4790   4.912   4.875  10.788 -0.1296 -0.2248  0.2888
   36POPC   O13 4791   5.030   4.838  10.872  0.3244  0.9391  0.2853
   36POPC   O14 4792   4.894   5.021  10.787 -0.2256 -0.2778 -0.3604
   36POPC   O12 4793   4.773   4.807  10.833  0.2832  0.1923  0.0530
   36POPC   O11 4794   4.918   4.831  10.636 -0.0527 -0.7505  0.3065
   36POPC    C1 4795   5.049   4.784  10.597 -0.3066 -0.3321 -0.4250
   36POPC    HA 4796   5.069   4.693  10.658  1.9170  1.4814  1.7758
   36POPC    HB 4797   5.138   4.848  10.612  0.3073 -1.0651 -0.8912
   36POPC    C2 4798   5.052   4.727  10.456 -0.3567 -0.3027 -0.2999
   36POPC    HS 4799   4.952   4.682  10.440 -1.0627  1.1508 -0.1116
   36POPC   O21 4800   5.154   4.629  10.446  0.1920 -0.0204 -0.1334
   36POPC   C21 4801   5.138   4.532  10.353  0.2377 -0.0228  0.3936
   36POPC   O22 4802   5.038   4.507  10.285 -0.0237 -0.8530  0.2249
   36POPC   C22 4803   5.274   4.466  10.353 -0.1994  0.3191  0.0153
   36POPC   H2R 4804   5.271   4.396  10.440  2.2397  0.8178  0.5680
   36POPC   H2S 4805   5.364   4.530  10.365 -0.5461  0.6924  0.6696
   36POPC    C3 4806   5.064   4.842  10.360  0.0339 -0.2545 -0.3393
   36POPC    HX 4807   5.166   4.883  10.343 -0.1402  0.3689  0.0474
   36POPC    HY 4808   5.006   4.926  10.404 -1.0715  0.0145 -2.2388
   36POPC   O31 4809   4.994   4.816  10.244  0.3914 -0.2538  0.2270
   36POPC   C31 4810   5.067   4.768  10.146  0.3032 -0.3377  0.1577
   36POPC   O32 4811   5.186   4.747  10.153  0.2376 -0.0580 -0.5875
   36POPC   C32 4812   4.988   4.729  10.026 -0.9314 -0.0246  0.0124
   36POPC   H2X 4813   4.909   4.804  10.002  0.9995  1.7109 -1.3344
   36POPC   H2Y 4814   4.941   4.631  10.046  0.6426 -1.2171 -1.7321
   36POPC   C23 4815   5.290   4.367  10.232  0.3740 -1.1630  0.0597
   36POPC   H3R 4816   5.217   4.284  10.240  0.3993 -1.1465  0.4440
   36POPC   H3S 4817   5.396   4.332  10.233  0.4554 -0.9342 -0.1996
   36POPC   C24 4818   5.275   4.428  10.094  0.5012 -0.2850  0.7184
   36POPC   H4R 4819   5.331   4.524  10.102 -0.9002  0.4998  1.6453
   36POPC   H4S 4820   5.168   4.444  10.066  0.8248 -2.7102 -2.4751
   36POPC   C25 4821   5.335   4.329   9.984 -0.0761 -0.5039  0.0897
   36POPC   H5R 4822   5.281   4.232   9.989 -0.5354 -0.2076  1.2038
   36POPC   H5S 4823   5.442   4.323  10.012 -0.3722  2.4181  2.3390
   36POPC   C26 4824   5.310   4.381   9.841 -0.3956  0.1667 -0.2087
   36POPC   H6R 4825   5.350   4.485   9.841  1.9040 -0.6465  1.0191
   36POPC   H6S 4826   5.199   4.378   9.840 -0.4068 -0.2428  1.1069
   36POPC   C27 4827   5.361   4.305   9.716  0.2479  0.0099 -0.4227
   36POPC   H7R 4828   5.303   4.211   9.703  1.5711 -0.7158 -1.2410
   36POPC   H7S 4829   5.468   4.278   9.728 -0.2517 -2.5560 -1.1313
   36POPC   C28 4830   5.344   4.375   9.578 -0.2216 -0.0058 -0.4891
   36POPC   H8R 4831   5.250   4.433   9.574 -0.2066  0.2879  1.8492
   36POPC   H8S 4832   5.341   4.299   9.497  1.8546  1.2247 -1.8144
   36POPC   C29 4833   5.461   4.451   9.536 -0.1392 -0.2987  1.3130
   36POPC   H91 4834   5.524   4.502   9.610  3.0305  1.2832 -2.1132
   36POPC  C210 4835   5.511   4.466   9.410  0.9338 -0.4085 -0.3494
   36POPC  H101 4836   5.596   4.536   9.412 -0.0736  0.8382  0.8004
   36POPC  C211 4837   5.470   4.421   9.273 -0.9143  0.6860  0.4089
   36POPC  H11R 4838   5.400   4.335   9.276  1.6460 -1.7409 -2.4587
   36POPC  H11S 4839   5.568   4.386   9.234  0.2016  1.4845  2.2968
   36POPC  C212 4840   5.424   4.527   9.181 -0.5808 -0.2005 -0.3219
   36POPC  H12R 4841   5.500   4.606   9.158  0.3478 -1.1228 -0.4903
   36POPC  H12S 4842   5.336   4.573   9.232 -0.7928 -1.5897  0.6166
   36POPC  C213 4843   5.387   4.472   9.041  0.3338 -0.6022 -0.0391
   36POPC  H13R 4844   5.322   4.543   8.985 -2.0050 -3.2550 -0.9050
   36POPC  H13S 4845   5.326   4.383   9.067 -2.4017  1.2205  0.2594
   36POPC  C214 4846   5.501   4.424   8.950  0.3654 -0.3489  0.2328
   36POPC  H14R 4847   5.575   4.371   9.015  1.6616 -2.4215 -2.7110
   36POPC  H14S 4848   5.548   4.517   8.912  1.6797 -0.1933  2.0609
   36POPC  C215 4849   5.469   4.324   8.835  0.3147 -0.1781 -0.1645
   36POPC  H15R 4850   5.387   4.260   8.875 -1.4781  2.1721  0.1543
   36POPC  H15S 4851   5.562   4.264   8.826  0.4757 -0.1985  1.3512
   36POPC  C216 4852   5.438   4.397   8.704  0.3478  0.3037  0.3808
   36POPC  H16R 4853   5.353   4.468   8.709 -1.3400 -1.5472 -0.6090
   36POPC  H16S 4854   5.395   4.324   8.632 -2.8708  1.4797  0.9366
   36POPC  C217 4855   5.561   4.455   8.625 -0.1350  0.5748  0.3316
   36POPC  H17R 4856   5.641   4.380   8.608 -2.0079 -1.1288 -1.7022
   36POPC  H17S 4857   5.595   4.543   8.683 -1.6018  1.6648 -0.3985
   36POPC  C218 4858   5.515   4.510   8.488  0.7584  0.4488  0.1702
   36POPC  H18R 4859   5.483   4.421   8.429  0.6602  0.5190  0.1166
   36POPC  H18S 4860   5.600   4.556   8.433 -0.5789  2.1436 -0.6063
   36POPC  H18T 4861   5.427   4.578   8.492  1.4610  1.3248  2.0350
   36POPC   C33 4862   5.062   4.719   9.885  0.3718 -0.5692  0.4217
   36POPC   H3X 4863   5.148   4.649   9.892  2.6203  1.7497 -1.7926
   36POPC   H3Y 4864   5.109   4.819   9.874 -1.8759  0.7059  1.4573
   36POPC   C34 4865   4.957   4.703   9.776  0.4697  0.4530  0.3060
   36POPC   H4X 4866   4.895   4.795   9.781 -0.0608  0.1203 -0.0308
   36POPC   H4Y 4867   4.891   4.618   9.805  2.1526 -0.6819  0.9297
   36POPC   C35 4868   5.007   4.694   9.632 -0.4555  0.6521 -0.3736
   36POPC   H5X 4869   5.083   4.618   9.606  0.8739  1.3239  1.3607
   36POPC   H5Y 4870   5.056   4.792   9.611  3.4011 -0.6361  1.6570
   36POPC   C36 4871   4.882   4.651   9.543  0.2421 -0.8306  0.3218
   36POPC   H6X 4872   4.793   4.712   9.572 -0.8068 -1.6107 -1.1370
   36POPC   H6Y 4873   4.856   4.545   9.563  1.8629 -1.2899  0.1705
   36POPC   C37 4874   4.913   4.657   9.398 -0.5037  0.6449  0.3749
   36POPC   H7X 4875   5.004   4.599   9.370  0.9989  4.2309 -3.1699
   36POPC   H7Y 4876   4.944   4.758   9.364  4.8074 -0.1934  1.8156
   36POPC   C38 4877   4.798   4.619   9.300  0.2086 -0.2262  0.0462
   36POPC   H8X 4878   4.705   4.674   9.326 -0.8337 -1.8832 -0.0259
   36POPC   H8Y 4879   4.776   4.511   9.310  0.9052 -0.3621  0.1485
   36POPC   C39 4880   4.848   4.637   9.159 -0.2613 -0.5263 -0.1022
   36POPC   H9X 4881   4.939   4.578   9.133 -0.5396  0.1493 -2.9597
   36POPC   H9Y 4882   4.884   4.741   9.141  0.7026 -0.8908 -0.3246
   36POPC  C310 4883   4.736   4.614   9.060 -0.1748  0.6015  0.5511
   36POPC  H10X 4884   4.759   4.677   8.971  1.5390  2.6198  2.3266
   36POPC  H10Y 4885   4.648   4.668   9.102 -0.2187 -0.0351  1.2937
   36POPC  C311 4886   4.709   4.472   9.011 -0.1744 -0.0069  0.6630
   36POPC  H11X 4887   4.674   4.412   9.097  0.5427  2.5041  2.8530
   36POPC  H11Y 4888   4.796   4.420   8.965 -1.6375 -0.8789 -1.2717
   36POPC  C312 4889   4.602   4.471   8.903  0.5223  0.0776 -0.3569
   36POPC  H12X 4890   4.629   4.547   8.826  0.3589 -0.6527 -1.1483
   36POPC  H12Y 4891   4.503   4.504   8.942  0.0048 -0.8165 -0.8759
   36POPC  C313 4892   4.587   4.335   8.838  0.6865  0.3035 -0.3734
   36POPC  H13X 4893   4.545   4.275   8.922  0.4166  0.3976 -0.4380
   36POPC  H13Y 4894   4.684   4.296   8.801  0.1562 -1.6576  0.1936
   36POPC  C314 4895   4.483   4.330   8.724 -0.5191 -0.6884  0.3183
   36POPC  H14X 4896   4.387   4.379   8.750 -0.6346 -0.4115 -0.6003
   36POPC  H14Y 4897   4.460   4.224   8.700 -2.1867  0.1269 -2.0594
   36POPC  C315 4898   4.528   4.393   8.584  0.4202 -0.2534 -0.1319
   36POPC  H15X 4899   4.518   4.502   8.565  3.3529  0.1662  0.2885
   36POPC  H15Y 4900   4.469   4.343   8.504 -1.8977  0.1453  1.2314
   36POPC  C316 4901   4.675   4.362   8.553  0.1399  0.1160  0.3450
   36POPC  H16X 4902   4.743   4.417   8.621 -0.5811  1.2844  0.1413
   36POPC  H16Y 4903   4.706   4.402   8.454  2.1560 -1.0384  0.4683
   36POPC  H16Z 4904   4.700   4.254   8.541  3.6538  0.9185 -0.6020
   37POPC     N 4905   5.679   4.785   6.546  0.4711 -0.5052  0.4738
   37POPC   C12 4906   5.585   4.776   6.665  0.5739  0.0809  0.4298
   37POPC  H12A 4907   5.652   4.771   6.750  0.7144  1.1871  0.4072
   37POPC  H12B 4908   5.523   4.688   6.663  0.2065  0.3561 -0.7141
   37POPC   C13 4909   5.598   4.811   6.417  0.3015 -0.8157  0.0958
   37POPC  H13A 4910   5.650   4.835   6.325  1.6651 -0.0582  1.0239
   37POPC  H13B 4911   5.540   4.722   6.397  1.4245 -2.2385  2.6431
   37POPC  H13C 4912   5.520   4.882   6.437  1.7151  1.1125 -0.9056
   37POPC   C14 4913   5.790   4.892   6.545 -0.1247  0.4816 -0.5417
   37POPC  H14A 4914   5.866   4.882   6.469  1.0146 -0.8241  0.7093
   37POPC  H14B 4915   5.755   4.994   6.539  1.0823  0.8179 -3.7191
   37POPC  H14C 4916   5.848   4.882   6.636 -1.8695 -0.9753  0.4772
   37POPC   C15 4917   5.751   4.661   6.539  0.0002 -0.3452 -0.7763
   37POPC  H15A 4918   5.808   4.635   6.627 -0.2494  2.3775  0.3020
   37POPC  H15B 4919   5.817   4.651   6.454 -3.0606 -1.1418 -3.2264
   37POPC  H15C 4920   5.680   4.580   6.533 -1.4298  0.7425  0.6123
   37POPC   C11 4921   5.499   4.900   6.703  0.4538  0.3096  0.3561
   37POPC  H11A 4922   5.555   4.995   6.719 -0.3996  1.0562 -0.9501
   37POPC  H11B 4923   5.446   4.876   6.798  2.1890  0.6247  1.4644
   37POPC     P 4924   5.279   4.855   6.573 -0.0307  0.2840 -0.3793
   37POPC   O13 4925   5.323   4.724   6.527  0.1641 -0.2203  0.2943
   37POPC   O14 4926   5.183   4.926   6.489 -0.1862 -0.3598 -0.3333
   37POPC   O12 4927   5.405   4.941   6.604 -0.1264 -0.1868 -0.5696
   37POPC   O11 4928   5.204   4.846   6.716  0.3876 -0.2774  0.1605
   37POPC    C1 4929   5.162   4.973   6.773 -0.1443 -0.0370 -0.1187
   37POPC    HA 4930   5.107   5.041   6.705 -0.0487  0.4979  0.3316
   37POPC    HB 4931   5.252   5.028   6.810 -1.2576  0.2491  2.3288
   37POPC    C2 4932   5.077   4.928   6.895  0.0949 -1.5142 -0.1864
   37POPC    HS 4933   5.044   5.005   6.969 -1.0353 -0.4221 -1.7699
   37POPC   O21 4934   5.138   4.820   6.969 -0.3507 -0.4410 -0.8349
   37POPC   C21 4935   5.245   4.870   7.029  0.5062  0.4357 -0.8706
   37POPC   O22 4936   5.275   4.987   7.044 -0.4763 -0.3773 -0.4471
   37POPC   C22 4937   5.336   4.754   7.093 -0.2359 -0.2624 -0.4188
   37POPC   H2R 4938   5.343   4.682   7.008 -3.9943 -0.5786 -0.6135
   37POPC   H2S 4939   5.267   4.705   7.164 -0.6378  1.4519  0.4035
   37POPC    C3 4940   4.944   4.877   6.842  0.5715 -0.5160 -1.0175
   37POPC    HX 4941   4.965   4.808   6.757 -1.1718 -1.1727 -0.9500
   37POPC    HY 4942   4.893   4.964   6.795  1.0198  1.1381  1.4212
   37POPC   O31 4943   4.865   4.814   6.952  0.0092  0.2882  0.1330
   37POPC   C31 4944   4.793   4.897   7.033 -0.3742  0.3177  0.3008
   37POPC   O32 4945   4.766   5.012   7.003 -0.1390  0.5408  0.6326
   37POPC   C32 4946   4.755   4.819   7.158 -0.3151  0.0389  0.0101
   37POPC   H2X 4947   4.843   4.769   7.204  0.7087  1.6619 -0.0746
   37POPC   H2Y 4948   4.688   4.737   7.126 -0.2332  0.7336 -2.0875
   37POPC   C23 4949   5.469   4.816   7.137 -0.7773 -0.6270 -0.0775
   37POPC   H3R 4950   5.467   4.888   7.221 -0.5193  1.1132 -1.4912
   37POPC   H3S 4951   5.496   4.884   7.053  0.4676 -1.1837 -0.1517
   37POPC   C24 4952   5.583   4.719   7.138 -0.0528 -1.0852 -0.0216
   37POPC   H4R 4953   5.682   4.770   7.146 -0.8028  0.3117  0.8509
   37POPC   H4S 4954   5.571   4.663   7.043  1.6881 -1.0344 -0.3021
   37POPC   C25 4955   5.573   4.625   7.256 -0.0965 -0.4675  0.2478
   37POPC   H5R 4956   5.634   4.532   7.250  0.5813  0.0796 -2.4853
   37POPC   H5S 4957   5.468   4.590   7.266 -0.8746  2.3411  3.5742
   37POPC   C26 4958   5.604   4.683   7.403 -0.8838 -0.5043  0.7518
   37POPC   H6R 4959   5.563   4.784   7.427  2.3299  0.4722  2.6307
   37POPC   H6S 4960   5.714   4.691   7.396 -0.9705  1.5969  1.1130
   37POPC   C27 4961   5.568   4.587   7.511  0.3162  0.0762  0.0813
   37POPC   H7R 4962   5.610   4.488   7.482 -0.2362  0.2457 -1.3572
   37POPC   H7S 4963   5.457   4.581   7.505  0.0871  2.0299  1.4409
   37POPC   C28 4964   5.608   4.636   7.652 -0.2613  0.0429 -0.1772
   37POPC   H8R 4965   5.565   4.737   7.671  0.5488  0.7938 -1.9959
   37POPC   H8S 4966   5.714   4.661   7.635 -0.5125  0.3099 -1.4618
   37POPC   C29 4967   5.575   4.526   7.749 -0.0203  0.2601  0.6917
   37POPC   H91 4968   5.511   4.443   7.715 -1.8433  1.5397  0.8297
   37POPC  C210 4969   5.621   4.522   7.877 -0.0925  0.3476 -0.5532
   37POPC  H101 4970   5.586   4.449   7.952 -0.5958  2.2408  1.1547
   37POPC  C211 4971   5.706   4.635   7.937 -0.4980 -0.3785  0.5323
   37POPC  H11R 4972   5.755   4.687   7.853  1.5245 -1.0991  1.2014
   37POPC  H11S 4973   5.798   4.595   7.985  0.7598  0.5714 -1.0167
   37POPC  C212 4974   5.625   4.729   8.025  0.0576  0.3130 -0.1000
   37POPC  H12R 4975   5.527   4.754   7.977  0.0163  2.1378  0.8202
   37POPC  H12S 4976   5.680   4.826   8.027 -0.8856  0.8909 -0.7898
   37POPC  C213 4977   5.599   4.667   8.162 -0.6175  0.1980  0.1378
   37POPC  H13R 4978   5.696   4.657   8.215 -0.1719  1.0128 -0.5010
   37POPC  H13S 4979   5.563   4.562   8.153  2.9963 -1.1927  0.2265
   37POPC  C214 4980   5.501   4.750   8.229  0.0158  0.2591  0.2927
   37POPC  H14R 4981   5.433   4.697   8.298 -1.2708 -1.0142 -1.8601
   37POPC  H14S 4982   5.429   4.795   8.157 -1.5895  0.6511  2.0746
   37POPC  C215 4983   5.561   4.865   8.312  0.4965  0.9586  0.2069
   37POPC  H15R 4984   5.624   4.816   8.389  0.4958  1.4450  0.5247
   37POPC  H15S 4985   5.486   4.924   8.369  1.1618  2.2327 -0.2003
   37POPC  C216 4986   5.635   4.968   8.233 -0.1180 -0.7382 -0.0868
   37POPC  H16R 4987   5.566   4.984   8.147 -1.3825 -1.9325  0.6728
   37POPC  H16S 4988   5.726   4.927   8.185  1.4746  1.3673  0.9760
   37POPC  C217 4989   5.666   5.093   8.314 -0.4158 -0.0112 -0.0131
   37POPC  H17R 4990   5.713   5.069   8.412  1.1947  0.1624 -0.7167
   37POPC  H17S 4991   5.566   5.136   8.334 -1.0976 -0.4443 -2.2175
   37POPC  C218 4992   5.758   5.203   8.244  0.9249  0.2869 -0.4003
   37POPC  H18R 4993   5.690   5.257   8.175 -0.2241  0.9138  1.1602
   37POPC  H18S 4994   5.843   5.153   8.193  1.4720  1.0092 -0.2121
   37POPC  H18T 4995   5.798   5.279   8.315  3.1958 -0.1590 -1.1227
   37POPC   C33 4996   4.692   4.908   7.267 -1.1514  0.3753  0.2654
   37POPC   H3X 4997   4.624   4.846   7.329 -1.1746  1.3015  1.1880
   37POPC   H3Y 4998   4.624   4.984   7.221 -0.4471  1.3900  0.8502
   37POPC   C34 4999   4.799   4.957   7.366 -0.4231  0.6167  0.0296
   37POPC   H4X 5000   4.844   5.043   7.313  3.8025 -1.4150 -0.0466
   37POPC   H4Y 5001   4.883   4.885   7.357  2.1530  3.5692 -1.4898
   37POPC   C35 5002   4.748   5.004   7.505 -0.1439  0.3578  0.5367
   37POPC   H5X 5003   4.667   5.080   7.504  0.6574  1.2285 -0.1540
   37POPC   H5Y 5004   4.837   5.052   7.553  0.0013  0.1735  0.4550
   37POPC   C36 5005   4.715   4.884   7.596 -0.7581 -0.6374  0.1643
   37POPC   H6X 5006   4.805   4.820   7.598 -0.2215  0.0507 -0.9024
   37POPC   H6Y 5007   4.630   4.827   7.551 -0.4124 -0.3897 -0.8405
   37POPC   C37 5008   4.678   4.924   7.740 -0.2673 -0.3191  0.7689
   37POPC   H7X 5009   4.615   4.856   7.801 -2.3389  0.9797  0.1667
   37POPC   H7Y 5010   4.598   4.999   7.720 -1.3184 -1.1168  1.8177
   37POPC   C38 5011   4.785   4.990   7.826  0.3236  0.3513  0.0595
   37POPC   H8X 5012   4.741   5.071   7.888  0.6840  0.6182 -0.0307
   37POPC   H8Y 5013   4.870   5.023   7.763  0.3127 -2.3480 -1.4889
   37POPC   C39 5014   4.836   4.884   7.921 -0.2945  0.1742 -0.3131
   37POPC   H9X 5015   4.880   4.805   7.856 -0.1504 -0.5148  0.5967
   37POPC   H9Y 5016   4.759   4.824   7.975  1.5482 -2.3930 -0.3461
   37POPC  C310 5017   4.955   4.924   8.014 -0.7238 -0.1942  0.4002
   37POPC  H10X 5018   4.978   4.853   8.097  0.4926  1.4421  1.5367
   37POPC  H10Y 5019   4.925   5.015   8.070  0.3604  0.8852 -0.7172
   37POPC  C311 5020   5.094   4.950   7.951  0.1819  0.3681 -0.2294
   37POPC  H11X 5021   5.103   5.027   7.871 -0.0007  1.2481  0.5754
   37POPC  H11Y 5022   5.118   4.852   7.905 -2.9893 -2.1421  2.9064
   37POPC  C312 5023   5.203   4.995   8.051  0.3202  0.5036  0.5370
   37POPC  H12X 5024   5.304   4.973   8.011  1.2068  2.3697  1.5881
   37POPC  H12Y 5025   5.193   4.936   8.144  0.9368  0.5195  0.6175
   37POPC  C313 5026   5.190   5.145   8.078 -0.5821 -0.2844 -0.2456
   37POPC  H13X 5027   5.086   5.157   8.113 -1.4292  0.3583 -2.7750
   37POPC  H13Y 5028   5.206   5.200   7.982 -1.5762  0.1943 -0.1456
   37POPC  C314 5029   5.286   5.191   8.191  0.2684  0.2179 -0.4916
   37POPC  H14X 5030   5.395   5.188   8.170  0.6034 -0.4455  1.1474
   37POPC  H14Y 5031   5.268   5.133   8.284 -1.3068  0.1377 -0.8101
   37POPC  C315 5032   5.269   5.345   8.216 -0.0673 -0.0892 -0.0676
   37POPC  H15X 5033   5.171   5.352   8.267  0.1304 -0.8781  0.4302
   37POPC  H15Y 5034   5.264   5.379   8.110  1.5535 -1.3296 -0.5798
   37POPC  C316 5035   5.368   5.405   8.303 -0.8547 -0.2206  0.6934
   37POPC  H16X 5036   5.345   5.513   8.318  1.1477  0.4957 -0.8879
   37POPC  H16Y 5037   5.474   5.404   8.270 -0.4561 -2.5748  1.8021
   37POPC  H16Z 5038   5.359   5.355   8.402 -1.9977  0.5790  1.0036
   38POPC     N 5039   5.238   1.503   5.875  0.7001 -0.4097  0.1133
   38POPC   C12 5040   5.375   1.440   5.852  0.2422 -0.5211  0.5200
   38POPC  H12A 5041   5.450   1.514   5.874  1.0733 -1.6289  1.5597
   38POPC  H12B 5042   5.385   1.422   5.746 -2.3665  0.5494  0.0199
   38POPC   C13 5043   5.224   1.540   6.015 -0.2261  0.1928  0.7043
   38POPC  H13A 5044   5.129   1.588   6.033  0.5034  1.7480  0.5471
   38POPC  H13B 5045   5.218   1.450   6.074  0.5849 -0.2222  0.1693
   38POPC  H13C 5046   5.302   1.609   6.044  0.7290  0.3935 -2.0066
   38POPC   C14 5047   5.221   1.624   5.782  0.5583 -0.9104 -0.1897
   38POPC  H14A 5048   5.117   1.652   5.774 -0.2962 -3.6987  0.0339
   38POPC  H14B 5049   5.279   1.711   5.811 -1.5992  1.1147 -1.5811
   38POPC  H14C 5050   5.242   1.598   5.679 -0.4003 -1.9703 -0.1360
   38POPC   C15 5051   5.128   1.404   5.846  0.0555 -0.5005  0.9118
   38POPC  H15A 5052   5.034   1.452   5.866  0.3164  0.2212  0.4380
   38POPC  H15B 5053   5.153   1.325   5.916  3.6005  1.3934  2.0552
   38POPC  H15C 5054   5.110   1.370   5.745  0.1748 -0.3575  0.8425
   38POPC   C11 5055   5.403   1.317   5.933  0.3077 -0.4266 -0.0881
   38POPC  H11A 5056   5.493   1.271   5.888  1.3392  0.9567  0.4691
   38POPC  H11B 5057   5.317   1.246   5.936  1.6961 -2.1619  0.1631
   38POPC     P 5058   5.574   1.410   6.108  0.0909 -0.1777 -0.1480
   38POPC   O13 5059   5.589   1.551   6.073 -0.2832  0.0304  0.4232
   38POPC   O14 5060   5.670   1.318   6.047  0.2455  0.1434  0.1087
   38POPC   O12 5061   5.432   1.348   6.067 -0.3823 -0.4264  0.1219
   38POPC   O11 5062   5.580   1.387   6.260 -0.2457 -0.0846  0.2698
   38POPC    C1 5063   5.506   1.464   6.353 -0.5603  0.1426  0.0152
   38POPC    HA 5064   5.400   1.470   6.322 -0.7982  2.2061  1.0212
   38POPC    HB 5065   5.546   1.567   6.368 -2.6246  0.8740  0.7995
   38POPC    C2 5066   5.505   1.398   6.494 -0.2838  0.2223 -0.0714
   38POPC    HS 5067   5.463   1.479   6.558 -0.6884 -0.9078  1.1567
   38POPC   O21 5068   5.636   1.354   6.541  0.5933 -0.3353 -0.4392
   38POPC   C21 5069   5.724   1.448   6.556 -0.4256  0.2929 -0.5283
   38POPC   O22 5070   5.707   1.570   6.551  0.1513  0.5104 -0.2426
   38POPC   C22 5071   5.855   1.383   6.601  0.3099 -0.1485  0.0202
   38POPC   H2R 5072   5.898   1.333   6.512  0.2641 -0.8311  0.3720
   38POPC   H2S 5073   5.835   1.303   6.676 -0.8912  2.5220  2.7388
   38POPC    C3 5074   5.407   1.282   6.499 -0.7034 -0.3087 -0.6220
   38POPC    HX 5075   5.426   1.228   6.404 -1.1487 -1.4837 -0.0636
   38POPC    HY 5076   5.307   1.326   6.482  0.1264  0.9468 -2.5631
   38POPC   O31 5077   5.415   1.201   6.614 -0.4278  0.6978  0.6959
   38POPC   C31 5078   5.454   1.080   6.595  0.1300 -0.0881 -0.3691
   38POPC   O32 5079   5.487   1.027   6.492  0.0704  0.3860 -0.0343
   38POPC   C32 5080   5.444   1.018   6.733 -0.3407  0.6241 -0.4480
   38POPC   H2X 5081   5.368   0.937   6.732 -0.1531  0.3971  1.0878
   38POPC   H2Y 5082   5.406   1.083   6.815 -0.9135 -0.6518  0.3242
   38POPC   C23 5083   5.962   1.478   6.660 -0.1671  0.8964  0.2670
   38POPC   H3R 5084   5.973   1.569   6.597 -5.2391  2.2577  0.8926
   38POPC   H3S 5085   6.059   1.425   6.658 -0.0254  1.1660 -0.1972
   38POPC   C24 5086   5.934   1.508   6.806  0.6083 -0.1599  0.1751
   38POPC   H4R 5087   5.899   1.414   6.853 -0.3389  1.1188  2.1461
   38POPC   H4S 5088   5.851   1.582   6.816  0.0084 -0.7415 -0.4142
   38POPC   C25 5089   6.048   1.555   6.893  0.2148 -0.4184 -0.2399
   38POPC   H5R 5090   6.091   1.644   6.842  0.0250  0.1424  0.5504
   38POPC   H5S 5091   6.118   1.469   6.897  0.5948 -0.0839  0.8684
   38POPC   C26 5092   6.012   1.605   7.035  0.1959 -0.0741 -0.6419
   38POPC   H6R 5093   5.906   1.640   7.036  0.4514  0.7520 -1.2460
   38POPC   H6S 5094   6.082   1.687   7.062  0.1425 -0.2241 -0.0456
   38POPC   C27 5095   6.030   1.490   7.136  0.4004  0.2879 -0.2194
   38POPC   H7R 5096   6.136   1.465   7.157  0.8815  2.6402  0.4165
   38POPC   H7S 5097   5.984   1.400   7.091 -0.4318  0.0888  0.9671
   38POPC   C28 5098   5.976   1.511   7.278  0.4885  0.2466  0.1310
   38POPC   H8R 5099   5.981   1.418   7.339  3.3261 -1.4385 -2.4251
   38POPC   H8S 5100   5.869   1.537   7.268  0.4199  0.3972  1.1166
   38POPC   C29 5101   6.046   1.622   7.347 -0.5244  0.2875 -0.2394
   38POPC   H91 5102   6.038   1.728   7.317  2.1024  0.7011  0.2345
   38POPC  C210 5103   6.113   1.611   7.466  0.0966  0.2743  0.2132
   38POPC  H101 5104   6.151   1.702   7.514 -1.3805  0.5475  0.9201
   38POPC  C211 5105   6.137   1.485   7.546 -0.2848  0.4521 -0.1194
   38POPC  H11R 5106   6.247   1.469   7.556 -0.5142 -1.0566  0.3419
   38POPC  H11S 5107   6.086   1.398   7.500 -1.3613  1.5909 -1.1285
   38POPC  C212 5108   6.073   1.496   7.691  0.7498  0.2376 -0.0541
   38POPC  H12R 5109   5.965   1.507   7.664  1.1655  2.1217 -1.0585
   38POPC  H12S 5110   6.117   1.580   7.747  0.8778 -0.6680  1.2536
   38POPC  C213 5111   6.091   1.364   7.765 -0.9235  0.4425  0.3357
   38POPC  H13R 5112   6.175   1.306   7.718  2.0444  3.3085  1.7142
   38POPC  H13S 5113   6.001   1.299   7.765  0.8996 -2.4083 -1.9417
   38POPC  C214 5114   6.134   1.390   7.908 -0.1836 -0.4116 -0.2136
   38POPC  H14R 5115   6.087   1.318   7.979 -2.6405 -0.4178 -1.7398
   38POPC  H14S 5116   6.089   1.485   7.943  0.8283  0.4849 -1.2877
   38POPC  C215 5117   6.285   1.397   7.923  0.6110  0.3050 -0.4448
   38POPC  H15R 5118   6.312   1.443   8.021  0.3537  0.6008 -0.5130
   38POPC  H15S 5119   6.330   1.468   7.852 -2.1607  0.4501 -2.1961
   38POPC  C216 5120   6.359   1.258   7.926  0.2360 -0.3819 -0.1701
   38POPC  H16R 5121   6.319   1.195   7.844  0.9799 -1.7366  0.4790
   38POPC  H16S 5122   6.331   1.210   8.023 -0.0174 -1.5568 -0.7994
   38POPC  C217 5123   6.514   1.269   7.912  0.5330 -0.2209  0.1070
   38POPC  H17R 5124   6.556   1.325   7.999  1.3945 -1.3547  0.4662
   38POPC  H17S 5125   6.537   1.330   7.823  2.4745 -1.4127 -0.2848
   38POPC  C218 5126   6.582   1.130   7.889  0.8272 -0.1893 -0.3741
   38POPC  H18R 5127   6.609   1.125   7.782  0.7198 -1.2318 -0.3631
   38POPC  H18S 5128   6.501   1.057   7.912 -1.0819  1.9294 -0.0263
   38POPC  H18T 5129   6.667   1.109   7.958  0.7036  1.8339  0.4598
   38POPC   C33 5130   5.568   0.944   6.773 -0.0391  0.1416  0.0961
   38POPC   H3X 5131   5.612   0.900   6.681  1.5110 -0.0111  0.8760
   38POPC   H3Y 5132   5.545   0.864   6.847 -1.1069  0.8184  0.5035
   38POPC   C34 5133   5.678   1.024   6.836 -0.8849 -1.0159  0.0768
   38POPC   H4X 5134   5.703   1.110   6.771  3.1411 -3.0566 -1.4240
   38POPC   H4Y 5135   5.777   0.975   6.827 -1.2394 -1.3321 -4.8088
   38POPC   C35 5136   5.658   1.061   6.985  0.5183  0.1734 -1.1133
   38POPC   H5X 5137   5.662   0.979   7.059  0.9979  0.5954 -0.6643
   38POPC   H5Y 5138   5.573   1.129   7.009  1.0344  0.4371 -0.0017
   38POPC   C36 5139   5.775   1.149   7.043  0.4478  0.1212 -0.1829
   38POPC   H6X 5140   5.799   1.232   6.973  2.2862  0.6373  0.9675
   38POPC   H6Y 5141   5.871   1.092   7.050 -0.1852 -0.9040  0.3562
   38POPC   C37 5142   5.755   1.207   7.183  0.7074 -0.5338  0.9162
   38POPC   H7X 5143   5.671   1.278   7.175  0.8943 -0.4662 -0.6061
   38POPC   H7Y 5144   5.845   1.263   7.217 -1.1069  2.9509  0.3352
   38POPC   C38 5145   5.726   1.094   7.280  0.8474 -0.5590 -0.7033
   38POPC   H8X 5146   5.808   1.021   7.264  1.1871  0.1770 -2.4718
   38POPC   H8Y 5147   5.631   1.038   7.264  2.3645 -3.3948 -0.3378
   38POPC   C39 5148   5.713   1.144   7.430 -0.3511  0.3160  0.0858
   38POPC   H9X 5149   5.608   1.160   7.464 -0.8544 -0.9054 -0.7815
   38POPC   H9Y 5150   5.769   1.239   7.441  1.1767 -0.3277 -1.6749
   38POPC  C310 5151   5.778   1.042   7.528  0.5422 -0.2929  0.1552
   38POPC  H10X 5152   5.887   1.034   7.505  0.6700 -0.1770  0.7028
   38POPC  H10Y 5153   5.735   0.940   7.516 -1.7239  0.6069  0.2380
   38POPC  C311 5154   5.763   1.094   7.670 -0.3486 -0.4868  0.4371
   38POPC  H11X 5155   5.656   1.112   7.693 -0.6852 -0.6309 -0.9492
   38POPC  H11Y 5156   5.813   1.193   7.672 -1.5844  0.3407 -2.8679
   38POPC  C312 5157   5.836   0.992   7.753 -0.2985 -0.3150 -0.3678
   38POPC  H12X 5158   5.937   0.980   7.710  0.0342  1.0662 -0.0338
   38POPC  H12Y 5159   5.791   0.891   7.744 -2.1023  0.3932  0.0975
   38POPC  C313 5160   5.852   1.045   7.896  0.5927  0.5235  0.1984
   38POPC  H13X 5161   5.752   1.065   7.939 -0.7737 -0.2133 -2.4442
   38POPC  H13Y 5162   5.904   1.143   7.901 -0.2760  0.9913  0.3186
   38POPC  C314 5163   5.919   0.939   7.989  0.1567 -0.0949 -0.5279
   38POPC  H14X 5164   6.012   0.904   7.940  0.2992 -0.2423 -0.1586
   38POPC  H14Y 5165   5.851   0.852   8.003  0.3349 -0.3089 -0.9961
   38POPC  C315 5166   5.947   0.992   8.134 -0.2626 -0.1347 -0.6574
   38POPC  H15X 5167   5.857   1.037   8.182 -0.6178 -0.6072 -0.8735
   38POPC  H15Y 5168   6.014   1.078   8.112  0.2439 -0.6023 -0.9742
   38POPC  C316 5169   6.006   0.893   8.230 -0.2420 -0.0238  0.4482
   38POPC  H16X 5170   5.994   0.930   8.333 -0.5389 -1.2227  0.8685
   38POPC  H16Y 5171   6.115   0.879   8.211 -0.0231 -1.1427  2.3439
   38POPC  H16Z 5172   5.951   0.796   8.235 -1.5981  0.6656 -0.5642
   39POPC     N 5173   2.985   0.288   5.618 -0.6749 -0.6933 -0.4833
   39POPC   C12 5174   3.058   0.175   5.560  0.0412 -0.6364  0.2082
   39POPC  H12A 5175   3.056   0.197   5.454 -1.6055 -0.0841  0.3278
   39POPC  H12B 5176   3.002   0.083   5.574 -0.1469 -0.6648 -0.6597
   39POPC   C13 5177   2.938   0.258   5.758  0.2661  0.3444  0.2533
   39POPC  H13A 5178   2.844   0.204   5.756 -1.4903  3.1876  0.3958
   39POPC  H13B 5179   3.014   0.196   5.804 -0.9062 -1.5908 -0.3024
   39POPC  H13C 5180   2.917   0.345   5.819 -0.5815 -0.9980  1.9736
   39POPC   C14 5181   3.080   0.401   5.621  0.2108 -0.1993 -0.1408
   39POPC  H14A 5182   3.024   0.490   5.642  0.1236  0.1908 -1.8825
   39POPC  H14B 5183   3.160   0.378   5.690  0.2632  0.6343  0.0876
   39POPC  H14C 5184   3.145   0.416   5.536 -0.2608 -0.8138 -0.6158
   39POPC   C15 5185   2.868   0.338   5.536  0.1534  0.1784  0.3305
   39POPC  H15A 5186   2.900   0.371   5.438 -0.4503 -1.8312 -0.5938
   39POPC  H15B 5187   2.805   0.407   5.590 -0.7261 -0.5968  0.3038
   39POPC  H15C 5188   2.807   0.251   5.518  0.4476 -0.1356  0.8224
   39POPC   C11 5189   3.194   0.147   5.622  0.0573 -0.3149  0.1995
   39POPC  H11A 5190   3.271   0.222   5.592 -1.0272 -0.3595 -3.0696
   39POPC  H11B 5191   3.236   0.052   5.583  0.7904  0.0585  0.0598
   39POPC     P 5192   3.283   0.157   5.867  0.0426  0.0389 -0.0249
   39POPC   O13 5193   3.319   0.298   5.851  0.2664  0.2654  0.0269
   39POPC   O14 5194   3.390   0.057   5.867 -0.2497  0.6497 -0.9768
   39POPC   O12 5195   3.178   0.120   5.758 -0.2418 -0.2042 -0.2102
   39POPC   O11 5196   3.200   0.151   6.001  0.6511  0.8388 -0.0472
   39POPC    C1 5197   3.177   0.022   6.060 -0.0216  0.3993 -0.7227
   39POPC    HA 5198   3.190  -0.065   5.992 -0.2584 -0.0045 -0.2494
   39POPC    HB 5199   3.070   0.025   6.088 -0.1336  0.7107 -1.1658
   39POPC    C2 5200   3.237  -0.005   6.205 -0.8502 -0.2607 -0.4318
   39POPC    HS 5201   3.196  -0.101   6.243 -1.5255  0.5217  0.8827
   39POPC   O21 5202   3.200   0.101   6.294  0.2870 -0.0112 -0.3127
   39POPC   C21 5203   3.100   0.073   6.371  0.1342 -0.0424 -0.8015
   39POPC   O22 5204   3.043  -0.035   6.378  0.0907  0.1808 -0.0998
   39POPC   C22 5205   3.093   0.193   6.461  0.4837  0.1139  0.1196
   39POPC   H2R 5206   3.073   0.284   6.400 -1.4932  0.6772  1.4862
   39POPC   H2S 5207   3.187   0.208   6.518  0.3856  0.1495  0.2741
   39POPC    C3 5208   3.395  -0.019   6.192 -0.0870  0.0229  0.4124
   39POPC    HX 5209   3.431   0.070   6.136  0.2627  0.4829  1.3518
   39POPC    HY 5210   3.409  -0.104   6.122 -0.0674 -1.2753  1.9514
   39POPC   O31 5211   3.465  -0.051   6.316  0.0722 -0.6710 -0.1054
   39POPC   C31 5212   3.489   0.047   6.399  0.3665  0.0074  0.4467
   39POPC   O32 5213   3.455   0.167   6.394 -0.6308  0.6148  0.2712
   39POPC   C32 5214   3.580  -0.001   6.514 -0.6329  0.4278 -0.6265
   39POPC   H2X 5215   3.551  -0.107   6.530 -1.0354  0.6542  0.1913
   39POPC   H2Y 5216   3.681  -0.007   6.467 -0.9733 -0.0129 -1.3138
   39POPC   C23 5217   2.983   0.179   6.567  0.3594  0.2199 -0.0896
   39POPC   H3R 5218   3.001   0.087   6.628  2.7830 -0.0858 -1.1392
   39POPC   H3S 5219   2.889   0.161   6.512 -0.1347 -0.4484  0.9335
   39POPC   C24 5220   2.981   0.306   6.659 -0.0857  0.5466 -0.0270
   39POPC   H4R 5221   2.986   0.391   6.588  0.0115 -0.0745 -0.7758
   39POPC   H4S 5222   3.067   0.307   6.729 -1.8667 -1.2993  2.3275
   39POPC   C25 5223   2.856   0.309   6.752 -0.2429 -0.3758 -0.4954
   39POPC   H5R 5224   2.768   0.271   6.695 -2.8592  2.8260  1.0815
   39POPC   H5S 5225   2.835   0.413   6.784 -2.1687 -0.1877 -2.2134
   39POPC   C26 5226   2.869   0.218   6.879  0.5188  0.7783 -0.3025
   39POPC   H6R 5227   2.970   0.236   6.921  0.1664  1.1613  0.4149
   39POPC   H6S 5228   2.860   0.112   6.849  0.2494  1.3223 -2.2869
   39POPC   C27 5229   2.777   0.252   6.998 -0.0482  0.2188  0.1744
   39POPC   H7R 5230   2.676   0.218   6.966  1.5433 -1.9484 -3.2714
   39POPC   H7S 5231   2.782   0.360   7.023  1.1658  0.2719 -0.2317
   39POPC   C28 5232   2.818   0.174   7.120 -0.2279  0.2958 -0.1805
   39POPC   H8R 5233   2.910   0.213   7.168  1.3240 -0.5759 -2.3081
   39POPC   H8S 5234   2.844   0.072   7.085  0.1297  0.5408 -0.6385
   39POPC   C29 5235   2.714   0.168   7.223  0.7244  0.8001 -0.3326
   39POPC   H91 5236   2.608   0.179   7.196  0.0832  0.9065  2.0087
   39POPC  C210 5237   2.736   0.156   7.358  0.3688 -0.1569  0.7382
   39POPC  H101 5238   2.650   0.169   7.424 -1.0827 -1.9239 -0.6876
   39POPC  C211 5239   2.875   0.135   7.425 -0.0406  0.1844  0.0237
   39POPC  H11R 5240   2.958   0.161   7.356  1.4472  1.9968  2.3479
   39POPC  H11S 5241   2.891   0.032   7.463 -2.9081  0.2468  1.7375
   39POPC  C212 5242   2.894   0.230   7.553 -0.4873  0.5280 -0.3440
   39POPC  H12R 5243   2.873   0.337   7.532 -0.5360  0.1738 -2.3429
   39POPC  H12S 5244   2.999   0.227   7.588  0.6745  2.9675 -3.2023
   39POPC  C213 5245   2.811   0.192   7.673 -0.4543  0.3941  0.9438
   39POPC  H13R 5246   2.799   0.082   7.685 -2.4125  0.3471 -0.9738
   39POPC  H13S 5247   2.706   0.219   7.650 -0.2385  1.7530  1.4452
   39POPC  C214 5248   2.847   0.258   7.803  0.4988 -0.1310  0.8485
   39POPC  H14R 5249   2.830   0.367   7.794  0.3833 -0.1428  0.9144
   39POPC  H14S 5250   2.949   0.238   7.844  0.9600 -0.8807 -0.6300
   39POPC  C215 5251   2.746   0.221   7.909 -0.2948 -0.7805 -1.2184
   39POPC  H15R 5252   2.733   0.114   7.933 -2.9079 -0.2032  0.4407
   39POPC  H15S 5253   2.651   0.256   7.864  0.3675  0.6820 -1.5392
   39POPC  C216 5254   2.768   0.296   8.045 -0.0999 -0.3657 -0.2680
   39POPC  H16R 5255   2.785   0.399   8.006 -1.0874 -0.1954 -0.2764
   39POPC  H16S 5256   2.864   0.257   8.084 -1.2655 -0.7748  2.3618
   39POPC  C217 5257   2.655   0.280   8.148  0.1227 -0.7598 -0.1657
   39POPC  H17R 5258   2.653   0.173   8.178 -2.0022 -0.4951  0.8112
   39POPC  H17S 5259   2.553   0.294   8.107  0.2932 -1.6787 -0.9314
   39POPC  C218 5260   2.663   0.362   8.280 -0.3224 -0.1182  0.8593
   39POPC  H18R 5261   2.578   0.341   8.350  0.3128 -0.5549  1.5167
   39POPC  H18S 5262   2.669   0.472   8.268 -1.0121  0.1055  2.2719
   39POPC  H18T 5263   2.759   0.334   8.328  0.3233  0.6610  0.0482
   39POPC   C33 5264   3.579   0.084   6.642  0.0963 -0.2104  0.1518
   39POPC   H3X 5265   3.481   0.131   6.664  1.9311  2.7188  2.8626
   39POPC   H3Y 5266   3.649   0.169   6.638 -2.2909  1.8485 -0.3440
   39POPC   C34 5267   3.607   0.006   6.768  0.4336  1.2694 -0.3313
   39POPC   H4X 5268   3.700  -0.054   6.772 -0.6833 -0.4654  1.3160
   39POPC   H4Y 5269   3.527  -0.067   6.791  0.3169  1.8863  1.4073
   39POPC   C35 5270   3.613   0.084   6.903  0.3740  0.6285 -0.0653
   39POPC   H5X 5271   3.513   0.123   6.933  1.4394  3.1344  0.4545
   39POPC   H5Y 5272   3.677   0.174   6.892  1.0612  0.2349  0.6104
   39POPC   C36 5273   3.669   0.002   7.021 -0.2594 -0.5625  0.0667
   39POPC   H6X 5274   3.772  -0.037   7.008 -0.8064 -2.1401  0.2061
   39POPC   H6Y 5275   3.602  -0.087   7.029  0.7683 -1.4479 -0.8069
   39POPC   C37 5276   3.659   0.085   7.148  0.0422  0.3646 -0.6905
   39POPC   H7X 5277   3.555   0.123   7.160  0.9920  2.7329  0.7790
   39POPC   H7Y 5278   3.723   0.176   7.144 -0.7047  1.0645  1.7853
   39POPC   C38 5279   3.689  -0.008   7.271 -0.0928  1.0946 -0.0234
   39POPC   H8X 5280   3.796   0.010   7.297 -0.4009  2.3959  0.3972
   39POPC   H8Y 5281   3.669  -0.115   7.249  0.4202  0.8533  0.6490
   39POPC   C39 5282   3.604   0.025   7.389  0.1455 -0.0137 -0.2566
   39POPC   H9X 5283   3.512  -0.037   7.391  1.2058 -1.6660  2.1886
   39POPC   H9Y 5284   3.573   0.131   7.378 -0.4230 -0.0784  0.6301
   39POPC  C310 5285   3.679   0.027   7.520  0.4280  0.3336 -0.0084
   39POPC  H10X 5286   3.757   0.105   7.510  0.1841  0.2739 -3.3981
   39POPC  H10Y 5287   3.736  -0.067   7.534  0.4883  0.4973  0.9387
   39POPC  C311 5288   3.599   0.056   7.644  0.8278  0.3299 -0.4166
   39POPC  H11X 5289   3.537  -0.032   7.669  0.4339  0.7836  0.2235
   39POPC  H11Y 5290   3.538   0.147   7.625  2.3266  1.7087  1.0260
   39POPC  C312 5291   3.691   0.080   7.764 -0.0957 -0.8395  0.0829
   39POPC  H12X 5292   3.757   0.168   7.748  0.1910 -0.8383  1.1879
   39POPC  H12Y 5293   3.755  -0.010   7.770 -1.9047 -2.2267 -0.3438
   39POPC  C313 5294   3.620   0.119   7.895 -1.3989  0.0003  0.4951
   39POPC  H13X 5295   3.528   0.057   7.910 -0.6520 -1.5738 -1.0582
   39POPC  H13Y 5296   3.589   0.225   7.881  1.7536  1.3266  2.5501
   39POPC  C314 5297   3.706   0.114   8.022 -0.3228 -0.2564 -0.4530
   39POPC  H14X 5298   3.780   0.195   8.005 -1.7876  1.2971  0.2967
   39POPC  H14Y 5299   3.770   0.024   8.026 -0.8875 -0.6686 -0.6634
   39POPC  C315 5300   3.633   0.114   8.153  0.0308 -0.5022  0.0947
   39POPC  H15X 5301   3.581   0.017   8.173  0.6744 -1.0460 -0.8328
   39POPC  H15Y 5302   3.556   0.194   8.157  0.4880 -0.0958  1.0216
   39POPC  C316 5303   3.727   0.116   8.275  0.7874 -0.1072 -0.1684
   39POPC  H16X 5304   3.797   0.030   8.285  1.6846  0.7690  1.4045
   39POPC  H16Y 5305   3.671   0.101   8.370 -1.3085  1.9905 -0.9682
   39POPC  H16Z 5306   3.777   0.215   8.278  0.0962  0.3303 -1.7222
   40POPC     N 5307   0.110   6.226   6.263 -0.3177 -0.2003 -0.2164
   40POPC   C12 5308   0.003   6.217   6.372 -0.3444  0.0281 -0.2261
   40POPC  H12A 5309  -0.081   6.279   6.344 -0.1516 -0.2014 -1.3617
   40POPC  H12B 5310   0.039   6.275   6.456 -0.6475  0.1001 -0.1440
   40POPC   C13 5311   0.149   6.366   6.250 -0.4435  0.3691  0.5106
   40POPC  H13A 5312   0.194   6.401   6.342  0.3243  3.2839 -0.8762
   40POPC  H13B 5313   0.217   6.382   6.168 -0.0663 -2.6232  0.1200
   40POPC  H13C 5314   0.062   6.428   6.236 -2.2685 -2.3854 -1.2978
   40POPC   C14 5315   0.230   6.152   6.287  0.3060 -0.0830  1.1878
   40POPC  H14A 5316   0.278   6.176   6.380  1.5281  0.5611  0.4122
   40POPC  H14B 5317   0.215   6.045   6.277  1.0264  0.0006 -2.1811
   40POPC  H14C 5318   0.307   6.188   6.221  0.5944 -0.7449  1.1566
   40POPC   C15 5319   0.045   6.182   6.132 -0.2780  0.2808  0.4568
   40POPC  H15A 5320   0.021   6.077   6.137 -0.4536  0.2807 -0.2437
   40POPC  H15B 5321   0.119   6.196   6.055 -1.0228  1.0321 -0.1401
   40POPC  H15C 5322  -0.045   6.238   6.111 -0.2862  0.2984  0.5385
   40POPC   C11 5323  -0.043   6.081   6.427  0.8070  0.4941 -0.4897
   40POPC  H11A 5324  -0.136   6.102   6.484  1.3738  1.0666  0.2453
   40POPC  H11B 5325   0.023   6.044   6.509 -0.2267 -2.7328 -0.9924
   40POPC     P 5326   0.020   5.839   6.322  0.2271  0.0018  0.1183
   40POPC   O13 5327   0.088   5.828   6.192 -0.4412  0.0426 -0.2952
   40POPC   O14 5328  -0.053   5.713   6.361 -0.1962  0.1172 -0.1093
   40POPC   O12 5329  -0.067   5.975   6.327  0.1131  0.0922 -0.3514
   40POPC   O11 5330   0.130   5.865   6.434  0.0690  0.0804 -0.1244
   40POPC    C1 5331   0.168   5.763   6.523 -0.1964 -0.7902 -0.3471
   40POPC    HA 5332   0.180   5.666   6.471 -0.8398 -1.9019  1.5081
   40POPC    HB 5333   0.085   5.737   6.592  1.5877 -2.6023  1.2307
   40POPC    C2 5334   0.291   5.818   6.608 -0.2162  0.3782  0.1286
   40POPC    HS 5335   0.380   5.776   6.555 -0.4102 -0.2702  0.3049
   40POPC   O21 5336   0.291   5.771   6.744  0.9166 -0.5836  0.1588
   40POPC   C21 5337   0.288   5.639   6.766  0.6405 -0.1901  0.4353
   40POPC   O22 5338   0.273   5.547   6.683 -0.3306 -0.1820  0.1350
   40POPC   C22 5339   0.326   5.616   6.910 -0.1169  0.5018 -0.7875
   40POPC   H2R 5340   0.226   5.598   6.956  0.1683  0.4259 -0.1801
   40POPC   H2S 5341   0.378   5.706   6.950  1.0480 -0.5119  0.0539
   40POPC    C3 5342   0.307   5.973   6.609  0.6036  0.5177 -0.2191
   40POPC    HX 5343   0.224   6.011   6.672  1.7144  0.3262  1.4278
   40POPC    HY 5344   0.299   6.005   6.503  0.6767  2.0375  0.2132
   40POPC   O31 5345   0.431   6.010   6.655 -0.7485 -0.3489 -0.3277
   40POPC   C31 5346   0.534   6.026   6.571  0.4265 -0.5976 -0.2097
   40POPC   O32 5347   0.525   6.004   6.453 -0.3098  0.5523 -0.3191
   40POPC   C32 5348   0.662   6.074   6.655 -0.1983 -0.5003  0.7511
   40POPC   H2X 5349   0.708   6.160   6.602  0.4487  0.2214  2.4033
   40POPC   H2Y 5350   0.726   5.983   6.655 -0.1263 -0.4987 -1.3337
   40POPC   C23 5351   0.416   5.496   6.942 -1.3384  0.3470  0.5323
   40POPC   H3R 5352   0.518   5.539   6.947 -0.7255 -0.5957 -2.2487
   40POPC   H3S 5353   0.413   5.435   6.849 -0.9510  1.6015 -0.3333
   40POPC   C24 5354   0.383   5.416   7.067  0.2458 -0.3243  0.3442
   40POPC   H4R 5355   0.431   5.316   7.059  1.9432  0.5103 -0.4247
   40POPC   H4S 5356   0.275   5.405   7.091  0.1958  0.7627  0.6796
   40POPC   C25 5357   0.430   5.493   7.192 -0.4696 -0.1009 -0.1886
   40POPC   H5R 5358   0.389   5.595   7.185  0.6135  0.5036  1.6040
   40POPC   H5S 5359   0.541   5.501   7.181 -0.5226 -0.7776 -1.4359
   40POPC   C26 5360   0.389   5.429   7.330 -0.7606 -0.4146 -0.0618
   40POPC   H6R 5361   0.443   5.332   7.325  1.2353  0.6726 -0.6435
   40POPC   H6S 5362   0.279   5.422   7.344 -0.7949  1.6211  0.9674
   40POPC   C27 5363   0.440   5.521   7.443 -0.0920  0.5444 -0.7545
   40POPC   H7R 5364   0.399   5.624   7.436  0.8946  1.0102  0.0362
   40POPC   H7S 5365   0.547   5.519   7.415 -0.0037 -3.1562 -0.6786
   40POPC   C28 5366   0.438   5.459   7.582  0.9775 -0.4322  0.2065
   40POPC   H8R 5367   0.497   5.522   7.652  0.4923  1.9328 -1.4199
   40POPC   H8S 5368   0.484   5.358   7.590  0.3030 -0.7148  0.6402
   40POPC   C29 5369   0.302   5.476   7.642  0.1977 -0.0290  0.9272
   40POPC   H91 5370   0.235   5.395   7.611 -1.0089  0.1709  2.8444
   40POPC  C210 5371   0.252   5.578   7.710  0.8966  0.0789  0.1180
   40POPC  H101 5372   0.148   5.562   7.742  0.1658  3.5058 -0.2056
   40POPC  C211 5373   0.323   5.706   7.754  0.0936  0.5348  0.3678
   40POPC  H11R 5374   0.271   5.801   7.728  0.3689  0.5899  0.0116
   40POPC  H11S 5375   0.427   5.721   7.719  0.0078  1.1306  0.3646
   40POPC  C212 5376   0.340   5.713   7.906  0.2359  0.6265 -0.8365
   40POPC  H12R 5377   0.427   5.778   7.927 -0.7783  1.7234  0.1143
   40POPC  H12S 5378   0.384   5.615   7.935  4.2861  1.6942 -2.6193
   40POPC  C213 5379   0.215   5.749   7.981 -0.1014  0.1259 -0.0220
   40POPC  H13R 5380   0.124   5.703   7.938  0.5484 -2.2406  0.9932
   40POPC  H13S 5381   0.199   5.859   7.988 -2.6598 -0.1270 -0.9583
   40POPC  C214 5382   0.218   5.692   8.125 -0.4266  0.5836  0.0301
   40POPC  H14R 5383   0.264   5.592   8.115 -2.3498 -0.3091 -0.3880
   40POPC  H14S 5384   0.113   5.683   8.160 -0.7560  0.2990 -0.9792
   40POPC  C215 5385   0.294   5.776   8.223 -0.3271  0.3996  0.9881
   40POPC  H15R 5386   0.275   5.884   8.201  0.0827  0.0944 -1.1079
   40POPC  H15S 5387   0.402   5.760   8.200 -0.3054  2.0505 -0.2904
   40POPC  C216 5388   0.276   5.728   8.363  0.1271  0.0036 -0.6479
   40POPC  H16R 5389   0.276   5.619   8.385 -2.4621  0.0198 -0.3308
   40POPC  H16S 5390   0.175   5.769   8.383  0.1573 -0.1365 -0.1961
   40POPC  C217 5391   0.378   5.786   8.464  0.3566  0.4584 -0.5079
   40POPC  H17R 5392   0.374   5.896   8.451  0.5338  0.6293  0.7875
   40POPC  H17S 5393   0.478   5.744   8.440 -0.5161 -0.8711 -2.0114
   40POPC  C218 5394   0.346   5.759   8.611  0.3905 -0.6059  0.1383
   40POPC  H18R 5395   0.373   5.843   8.679  2.7756 -0.9804 -0.2742
   40POPC  H18S 5396   0.390   5.674   8.667  0.4840  0.7226  2.2182
   40POPC  H18T 5397   0.236   5.748   8.624  0.1864  1.1244  0.1317
   40POPC   C33 5398   0.631   6.101   6.802  0.7090  0.1745  0.1231
   40POPC   H3X 5399   0.531   6.148   6.815  0.6657  0.3185 -0.6787
   40POPC   H3Y 5400   0.709   6.170   6.839  0.4483  1.2089 -1.1818
   40POPC   C34 5401   0.624   5.968   6.880 -0.0469 -0.4684  0.1258
   40POPC   H4X 5402   0.725   5.924   6.863  0.5963  1.1737 -0.4380
   40POPC   H4Y 5403   0.544   5.900   6.842 -1.3582  0.6560  0.7815
   40POPC   C35 5404   0.590   5.993   7.028 -0.2029  0.9004 -0.6613
   40POPC   H5X 5405   0.482   6.019   7.038  0.0597  2.2670 -1.0667
   40POPC   H5Y 5406   0.656   6.074   7.066  0.1569 -0.0117  0.7443
   40POPC   C36 5407   0.605   5.866   7.115 -0.0488 -0.2949 -0.0260
   40POPC   H6X 5408   0.698   5.822   7.075  0.2429 -0.3006  0.6451
   40POPC   H6Y 5409   0.522   5.797   7.088 -0.3592  0.6871 -1.7652
   40POPC   C37 5410   0.611   5.889   7.263 -0.0922 -0.0367 -0.0190
   40POPC   H7X 5411   0.509   5.906   7.303 -1.2151 -0.6692 -2.4203
   40POPC   H7Y 5412   0.672   5.982   7.269 -0.4033  0.1134  1.0649
   40POPC   C38 5413   0.688   5.789   7.350 -0.2927 -0.1064  0.0114
   40POPC   H8X 5414   0.797   5.796   7.327 -0.4025 -1.4003 -1.0012
   40POPC   H8Y 5415   0.654   5.684   7.341 -1.5044  0.2630  0.1107
   40POPC   C39 5416   0.673   5.814   7.504 -0.0995  0.6621 -0.1886
   40POPC   H9X 5417   0.567   5.810   7.538  0.2804 -0.0042  0.9739
   40POPC   H9Y 5418   0.701   5.920   7.522  1.0761 -0.1726  3.7771
   40POPC  C310 5419   0.773   5.722   7.582 -0.4032  0.3628 -1.0462
   40POPC  H10X 5420   0.872   5.749   7.538 -1.2936 -0.6185 -3.8240
   40POPC  H10Y 5421   0.748   5.619   7.551  1.7124 -0.6472  0.3261
   40POPC  C311 5422   0.778   5.734   7.733 -0.1472  0.6021 -0.4580
   40POPC  H11X 5423   0.844   5.658   7.779 -0.4526  1.0979  0.8583
   40POPC  H11Y 5424   0.674   5.721   7.768  0.3642  0.7267  1.1856
   40POPC  C312 5425   0.828   5.875   7.780  0.3655 -0.8095 -0.0819
   40POPC  H12X 5426   0.752   5.945   7.738  0.5699 -1.8823 -2.3932
   40POPC  H12Y 5427   0.916   5.900   7.717  1.3105  2.4835  2.2726
   40POPC  C313 5428   0.851   5.897   7.925  0.3298  0.0627 -0.4155
   40POPC  H13X 5429   0.848   6.003   7.956  1.3273 -0.1429  0.4502
   40POPC  H13Y 5430   0.949   5.854   7.956  0.2024  0.8871  1.2165
   40POPC  C314 5431   0.755   5.808   8.013 -0.3013 -0.6452 -0.0629
   40POPC  H14X 5432   0.777   5.701   7.991  2.4042 -0.2279  0.2900
   40POPC  H14Y 5433   0.656   5.832   7.970  0.0180  1.7065  0.4030
   40POPC  C315 5434   0.752   5.824   8.168  0.1762  0.3185 -0.3314
   40POPC  H15X 5435   0.647   5.809   8.200 -0.0478  2.4793  0.1165
   40POPC  H15Y 5436   0.773   5.931   8.193 -1.8758  0.6137  0.2997
   40POPC  C316 5437   0.849   5.722   8.231  0.3205 -0.1334  0.4529
   40POPC  H16X 5438   0.846   5.724   8.342  1.6731  0.1451  0.5046
   40POPC  H16Y 5439   0.950   5.747   8.190  0.1721  0.7079  0.5713
   40POPC  H16Z 5440   0.824   5.620   8.197  0.6749  0.1702 -0.7851
   41CHL1    C3 5441   0.627   1.892   9.985 -0.5394  0.2062 -0.7726
   41CHL1    H3 5442   0.721   1.833   9.976 -0.5816 -0.7171  2.9683
   41CHL1    O3 5443   0.618   1.900  10.126 -0.0047 -0.3197 -0.4069
   41CHL1   H3' 5444   0.538   1.949  10.145  1.7007  2.4967  0.1232
   41CHL1    C4 5445   0.630   2.032   9.922  0.0295 -0.3237 -0.5572
   41CHL1   H4A 5446   0.541   2.091   9.953  0.0947 -0.9586  0.8922
   41CHL1   H4B 5447   0.723   2.082   9.958  0.5642 -0.8137 -1.2359
   41CHL1    C5 5448   0.630   2.037   9.771 -1.2097  0.4607 -0.2093
   41CHL1    C6 5449   0.729   2.088   9.698 -0.2920  0.0397  0.1465
   41CHL1    H6 5450   0.808   2.142   9.752 -1.9702  2.2032  0.6151
   41CHL1    C7 5451   0.740   2.097   9.552 -0.0186  0.7343  0.4652
   41CHL1   H7A 5452   0.757   2.202   9.517  0.6070  0.3162 -0.5203
   41CHL1   H7B 5453   0.821   2.031   9.514  0.5074  1.1107  0.9188
   41CHL1    C8 5454   0.609   2.047   9.485  0.5000  0.9848  0.1890
   41CHL1    H8 5455   0.538   2.132   9.494  0.3570  0.8863 -0.0107
   41CHL1   C14 5456   0.638   1.994   9.344  0.1355 -0.2444  0.5257
   41CHL1   H14 5457   0.708   1.909   9.359  0.3434 -0.4546 -1.4324
   41CHL1   C15 5458   0.712   2.089   9.244  0.1408 -0.0641 -0.0903
   41CHL1  H15A 5459   0.659   2.186   9.246  1.9682  1.0174 -1.1894
   41CHL1  H15B 5460   0.815   2.123   9.267  0.3876 -0.5781 -0.4190
   41CHL1   C16 5461   0.674   2.033   9.109  0.1860  0.5049  0.3516
   41CHL1  H16A 5462   0.655   2.099   9.022  1.1219  1.3531  0.7697
   41CHL1  H16B 5463   0.770   1.985   9.079 -0.9560 -1.4643 -0.3617
   41CHL1   C17 5464   0.579   1.908   9.133 -0.4968 -0.9026  0.1273
   41CHL1   H17 5465   0.642   1.821   9.162 -1.1701 -1.1658  0.8288
   41CHL1   C13 5466   0.512   1.941   9.267  0.3390 -0.2370 -0.4173
   41CHL1   C18 5467   0.403   2.043   9.243  0.1268  0.0394  0.0660
   41CHL1  H18A 5468   0.447   2.126   9.184  1.9251 -1.1545 -0.3720
   41CHL1  H18B 5469   0.319   1.997   9.186  0.3647 -1.5262  0.9066
   41CHL1  H18C 5470   0.366   2.095   9.334  0.9490 -0.0250  0.4496
   41CHL1   C12 5471   0.455   1.832   9.340 -0.0663 -0.1941  0.2126
   41CHL1  H12A 5472   0.359   1.805   9.293  0.2644  0.8671 -1.1122
   41CHL1  H12B 5473   0.531   1.751   9.335 -0.4584 -0.5073 -0.7922
   41CHL1   C11 5474   0.428   1.868   9.483 -0.0795  0.4269 -0.5443
   41CHL1  H11A 5475   0.341   1.932   9.508 -1.6252 -1.6924 -0.2466
   41CHL1  H11B 5476   0.415   1.771   9.535 -0.2408  1.2002  0.9233
   41CHL1    C9 5477   0.547   1.930   9.558 -0.3218 -0.6426  0.2825
   41CHL1    H9 5478   0.623   1.850   9.544 -0.6945 -1.1433  1.0685
   41CHL1   C10 5479   0.519   1.960   9.706  0.5870  0.1629  1.0314
   41CHL1   C19 5480   0.387   2.032   9.727 -0.5903 -0.5056  0.2182
   41CHL1  H19A 5481   0.309   1.955   9.708  0.2198 -1.3828  0.3415
   41CHL1  H19B 5482   0.362   2.042   9.835  0.0593  0.2337  0.3079
   41CHL1  H19C 5483   0.387   2.132   9.679 -1.4371 -1.7065 -2.4626
   41CHL1    C1 5484   0.503   1.817   9.770  0.7087  0.6359  0.0561
   41CHL1   H1A 5485   0.408   1.769   9.737  1.7413 -1.0556 -0.6041
   41CHL1   H1B 5486   0.585   1.755   9.727  0.3339  2.2053 -3.1704
   41CHL1    C2 5487   0.506   1.823   9.927  0.5335 -0.0271 -0.5210
   41CHL1   H2A 5488   0.495   1.716   9.957 -0.8338  0.0312 -0.7392
   41CHL1   H2B 5489   0.415   1.880   9.957  0.2931  0.3769 -1.9370
   41CHL1   C20 5490   0.493   1.871   9.011 -0.5724  0.3153 -0.1033
   41CHL1   H20 5491   0.422   1.953   8.987  0.1327  0.8562 -0.3920
   41CHL1   C21 5492   0.408   1.746   9.035 -0.5639 -0.5330  0.1077
   41CHL1  H21A 5493   0.375   1.695   8.942  0.3867 -0.7677 -0.1114
   41CHL1  H21B 5494   0.312   1.775   9.083 -2.1069 -0.5391 -2.7226
   41CHL1  H21C 5495   0.469   1.676   9.096  2.6898  2.8086  0.9941
   41CHL1   C22 5496   0.594   1.847   8.889  0.8592  0.3310 -0.0822
   41CHL1  H22A 5497   0.530   1.857   8.799 -1.6163 -1.6145  1.3190
   41CHL1  H22B 5498   0.674   1.923   8.875 -0.1031  2.0978  3.0108
   41CHL1   C23 5499   0.664   1.710   8.881 -0.1768 -0.4014  0.6964
   41CHL1  H23A 5500   0.716   1.683   8.976  1.5796 -2.6155 -0.7925
   41CHL1  H23B 5501   0.586   1.633   8.869 -0.8295  0.6698 -3.1011
   41CHL1   C24 5502   0.757   1.689   8.760  0.3803 -0.4995  0.7163
   41CHL1  H24A 5503   0.778   1.581   8.744  0.0431 -0.2668 -1.6291
   41CHL1  H24B 5504   0.712   1.716   8.662  1.5102 -0.1900  0.2634
   41CHL1   C25 5505   0.899   1.756   8.773 -0.1497  0.0406 -0.0323
   41CHL1   H25 5506   0.900   1.866   8.759  0.6873 -0.0920 -1.1558
   41CHL1   C26 5507   0.954   1.731   8.913 -0.3455 -0.2999 -0.8442
   41CHL1  H26A 5508   0.899   1.788   8.991  1.2458 -1.5398  1.2699
   41CHL1  H26B 5509   0.963   1.626   8.946 -1.7162  0.2770  1.5203
   41CHL1  H26C 5510   1.062   1.756   8.923  0.3018 -2.9067 -0.8412
   41CHL1   C27 5511   1.000   1.688   8.673  0.2583 -0.6286 -0.4853
   41CHL1  H27A 5512   0.964   1.713   8.571 -0.4335  2.5115  0.4097
   41CHL1  H27B 5513   1.105   1.721   8.688  0.2241 -0.5893 -0.3379
   41CHL1  H27C 5514   0.997   1.578   8.688  1.3354 -0.4132  1.6632
   42CHL1    C3 5515   5.330   0.635   9.949  0.2500 -0.2254  0.4356
   42CHL1    H3 5516   5.388   0.729   9.949 -0.1184  0.0744 -1.9742
   42CHL1    O3 5517   5.307   0.576  10.070 -0.1240  0.7671 -0.5321
   42CHL1   H3' 5518   5.227   0.523  10.063  0.9563 -0.9843  0.0235
   42CHL1    C4 5519   5.190   0.670   9.903  0.3286  0.3218 -0.0669
   42CHL1   H4A 5520   5.127   0.580   9.918  0.1600  0.5531  0.6610
   42CHL1   H4B 5521   5.144   0.740   9.976 -1.0767  0.4397 -1.0218
   42CHL1    C5 5522   5.199   0.736   9.764  0.1903  0.1467  0.0113
   42CHL1    C6 5523   5.152   0.863   9.745  0.9274  0.0458 -0.2313
   42CHL1    H6 5524   5.102   0.916   9.827 -1.8361 -0.0969 -1.7054
   42CHL1    C7 5525   5.155   0.928   9.611  0.4117 -0.8353 -0.0155
   42CHL1   H7A 5526   5.053   0.967   9.589  0.3756 -0.3426  0.9825
   42CHL1   H7B 5527   5.231   1.008   9.618  0.1469 -0.5698 -0.1292
   42CHL1    C8 5528   5.192   0.828   9.494  1.0240  0.0886 -0.1651
   42CHL1    H8 5529   5.102   0.767   9.471  2.2866 -2.8021  1.9194
   42CHL1   C14 5530   5.222   0.910   9.374  0.9108 -0.0975  0.5356
   42CHL1   H14 5531   5.322   0.958   9.384 -0.2059  2.4473  0.1698
   42CHL1   C15 5532   5.137   1.031   9.346 -0.4496 -0.6889 -0.0309
   42CHL1  H15A 5533   5.028   1.011   9.360 -0.7017 -0.7365 -1.8621
   42CHL1  H15B 5534   5.176   1.120   9.400  1.0511 -2.2993  1.6881
   42CHL1   C16 5535   5.147   1.053   9.194  0.1227 -0.1630 -0.0085
   42CHL1  H16A 5536   5.051   1.033   9.142  0.4661 -0.6078 -0.4720
   42CHL1  H16B 5537   5.175   1.158   9.171 -1.9389  0.5803  0.6208
   42CHL1   C17 5538   5.253   0.953   9.140 -0.3361 -0.1615 -0.1255
   42CHL1   H17 5539   5.356   0.988   9.162 -0.0487 -1.8986  1.6592
   42CHL1   C13 5540   5.243   0.832   9.241 -0.1309  0.1573 -0.0996
   42CHL1   C18 5541   5.116   0.751   9.214 -0.5679 -0.6495  0.3257
   42CHL1  H18A 5542   5.031   0.822   9.220 -0.4213 -0.5405  1.5870
   42CHL1  H18B 5543   5.118   0.713   9.110 -0.3350  2.2513 -0.8126
   42CHL1  H18C 5544   5.093   0.674   9.292 -1.3684  0.3777  1.1289
   42CHL1   C12 5545   5.361   0.742   9.267 -1.0967  0.0817  0.0406
   42CHL1  H12A 5546   5.378   0.665   9.189  0.8534 -1.4555  1.8613
   42CHL1  H12B 5547   5.456   0.799   9.275 -0.1195 -1.7268  2.9706
   42CHL1   C11 5548   5.348   0.655   9.402 -0.3682 -0.2589  0.3490
   42CHL1  H11A 5549   5.292   0.562   9.382 -1.2965  0.7766 -2.3436
   42CHL1  H11B 5550   5.456   0.632   9.416  0.4407 -0.7893 -4.8751
   42CHL1    C9 5551   5.302   0.732   9.527  0.2063  0.5725 -0.3463
   42CHL1    H9 5552   5.394   0.788   9.555  0.7681  0.0455 -1.0967
   42CHL1   C10 5553   5.271   0.652   9.655 -0.6535 -0.0046 -0.3563
   42CHL1   C19 5554   5.178   0.533   9.618  0.7827 -0.4015 -0.4179
   42CHL1  H19A 5555   5.091   0.577   9.565  1.4177  0.6219 -0.6486
   42CHL1  H19B 5556   5.207   0.465   9.536 -1.5914 -2.2875  0.1948
   42CHL1  H19C 5557   5.150   0.473   9.707 -1.8288 -1.7795 -2.0552
   42CHL1    C1 5558   5.402   0.604   9.712 -0.3073  0.8789  0.4077
   42CHL1   H1A 5559   5.439   0.534   9.634  1.5486  1.8958  0.3344
   42CHL1   H1B 5560   5.477   0.685   9.725  0.8911 -0.3024  0.9482
   42CHL1    C2 5561   5.389   0.535   9.849  0.1978 -0.1146 -0.8260
   42CHL1   H2A 5562   5.490   0.503   9.884  0.0687  0.2999 -0.0657
   42CHL1   H2B 5563   5.326   0.443   9.840 -1.5785  0.8864  0.6201
   42CHL1   C20 5564   5.243   0.920   8.990  0.4580 -0.1230 -0.8870
   42CHL1   H20 5565   5.140   0.887   8.965 -0.2054  1.7257 -0.7379
   42CHL1   C21 5566   5.337   0.804   8.951  0.1707  0.1223 -0.0318
   42CHL1  H21A 5567   5.313   0.768   8.848  1.5329 -0.8995 -0.0174
   42CHL1  H21B 5568   5.321   0.710   9.007  1.4125 -2.0722 -3.0596
   42CHL1  H21C 5569   5.443   0.836   8.962  0.8255 -2.1172  0.6500
   42CHL1   C22 5570   5.269   1.041   8.894 -0.3012  0.4020 -0.3150
   42CHL1  H22A 5571   5.204   1.122   8.932 -1.4296  0.3342 -1.9767
   42CHL1  H22B 5572   5.375   1.067   8.911  0.1150 -2.2832  2.0105
   42CHL1   C23 5573   5.237   1.009   8.744  0.0851 -0.4240 -0.0035
   42CHL1  H23A 5574   5.280   0.916   8.700  2.7042  0.6771  0.0449
   42CHL1  H23B 5575   5.126   1.011   8.734  0.1653  0.3214 -0.9051
   42CHL1   C24 5576   5.296   1.117   8.653  0.4760 -0.3021 -0.0928
   42CHL1  H24A 5577   5.288   1.215   8.705 -2.8471 -0.3983 -0.2615
   42CHL1  H24B 5578   5.403   1.088   8.642  0.8610  1.0369 -0.1160
   42CHL1   C25 5579   5.227   1.138   8.518 -0.0486  0.3915  0.6444
   42CHL1   H25 5580   5.296   1.206   8.463 -0.1614  0.4098  0.5234
   42CHL1   C26 5581   5.213   1.004   8.446 -0.2135 -0.5218 -0.4754
   42CHL1  H26A 5582   5.125   0.948   8.483  0.3873 -0.8971  0.4179
   42CHL1  H26B 5583   5.198   1.021   8.337 -0.7218 -0.0071 -0.3259
   42CHL1  H26C 5584   5.305   0.942   8.459  2.1673  2.7463 -0.4243
   42CHL1   C27 5585   5.100   1.215   8.526 -0.0429 -0.1787 -0.4650
   42CHL1  H27A 5586   5.065   1.230   8.422 -0.8854  2.5542  0.1235
   42CHL1  H27B 5587   5.027   1.164   8.593  0.8993 -1.7330 -0.5982
   42CHL1  H27C 5588   5.112   1.314   8.576  0.3458  0.1437 -1.1801
   43CHL1    C3 5589   1.059   1.365   9.995  0.0274 -0.4570 -0.1936
   43CHL1    H3 5590   0.995   1.439   9.941  0.3594 -0.3907 -0.5007
   43CHL1    O3 5591   1.039   1.381  10.134  0.3906  0.3847 -0.3477
   43CHL1   H3' 5592   1.059   1.473  10.152 -0.5217  0.6339 -0.5483
   43CHL1    C4 5593   1.007   1.224   9.952  0.5354 -0.0180 -0.2530
   43CHL1   H4A 5594   1.062   1.139   9.998  0.9957 -0.1283 -0.9871
   43CHL1   H4B 5595   0.900   1.213   9.981  0.6356  0.2790  0.2408
   43CHL1    C5 5596   1.037   1.215   9.806 -0.9774 -0.5467  0.2585
   43CHL1    C6 5597   0.946   1.196   9.716 -0.7843  0.1001  0.3480
   43CHL1    H6 5598   0.842   1.195   9.751  0.2614  0.5301  3.7869
   43CHL1    C7 5599   0.965   1.168   9.566  0.0080  0.5950 -0.1536
   43CHL1   H7A 5600   0.896   1.093   9.524  1.3382 -0.7433 -0.0540
   43CHL1   H7B 5601   0.946   1.259   9.506  1.4091  1.2050  0.2817
   43CHL1    C8 5602   1.108   1.127   9.547  0.3645  0.1563 -0.0549
   43CHL1    H8 5603   1.117   1.026   9.592  2.8693  0.3834  0.0625
   43CHL1   C14 5604   1.134   1.120   9.396 -0.2748 -0.0744 -0.9715
   43CHL1   H14 5605   1.119   1.226   9.366  1.3425  1.1224  2.0479
   43CHL1   C15 5606   1.034   1.033   9.319 -0.6337 -0.8014  0.3273
   43CHL1  H15A 5607   1.012   0.937   9.370 -0.7401 -1.0970 -0.2616
   43CHL1  H15B 5608   0.929   1.069   9.307 -0.5243 -1.1819 -2.7550
   43CHL1   C16 5609   1.104   1.018   9.175 -0.2055  0.2294  0.2816
   43CHL1  H16A 5610   1.094   0.908   9.171 -1.5521  0.3204  0.7834
   43CHL1  H16B 5611   1.045   1.064   9.093 -0.7312 -0.4922  0.2450
   43CHL1   C17 5612   1.247   1.080   9.183  0.3971  0.1458  0.1952
   43CHL1   H17 5613   1.241   1.187   9.153 -0.4641  0.0452 -0.0267
   43CHL1   C13 5614   1.273   1.080   9.343 -0.5469 -0.9282  0.7884
   43CHL1   C18 5615   1.317   0.947   9.398  0.6006 -0.0240 -0.1661
   43CHL1  H18A 5616   1.299   0.934   9.507 -0.2474 -1.0355 -0.4093
   43CHL1  H18B 5617   1.273   0.863   9.340  1.2813  0.8983 -2.1026
   43CHL1  H18C 5618   1.426   0.933   9.387  1.0609  3.8152 -2.4845
   43CHL1   C12 5619   1.367   1.193   9.398 -0.4078  0.2284 -0.3717
   43CHL1  H12A 5620   1.473   1.163   9.387  0.0898  0.5340  2.6945
   43CHL1  H12B 5621   1.348   1.287   9.342  0.2831  0.1877 -0.6848
   43CHL1   C11 5622   1.352   1.206   9.557 -0.7254 -0.0906  0.2015
   43CHL1  H11A 5623   1.407   1.114   9.585  2.3759  1.5325 -0.0374
   43CHL1  H11B 5624   1.416   1.293   9.587 -0.2270 -0.0172 -1.0267
   43CHL1    C9 5625   1.205   1.230   9.606 -0.7732  0.0346  0.4170
   43CHL1    H9 5626   1.176   1.331   9.571 -0.9405 -0.0717  0.2461
   43CHL1   C10 5627   1.191   1.225   9.756  0.8053  0.7877 -0.8441
   43CHL1   C19 5628   1.267   1.103   9.812 -0.5508 -0.8918 -0.1612
   43CHL1  H19A 5629   1.242   1.012   9.753  1.4080 -2.0613  0.7071
   43CHL1  H19B 5630   1.376   1.125   9.809 -0.9194  1.1187  0.2837
   43CHL1  H19C 5631   1.243   1.081   9.918  0.7439  1.4180  0.6769
   43CHL1    C1 5632   1.236   1.356   9.818  0.3997 -0.1504 -0.6262
   43CHL1   H1A 5633   1.346   1.372   9.808  0.1336  1.7297 -0.8843
   43CHL1   H1B 5634   1.179   1.437   9.768 -1.1786  0.6500  2.2703
   43CHL1    C2 5635   1.206   1.377   9.967 -0.5303  0.3145  0.1376
   43CHL1   H2A 5636   1.239   1.481   9.988  0.5792  0.1532 -0.7075
   43CHL1   H2B 5637   1.271   1.306  10.023 -0.0924 -0.2799 -1.0890
   43CHL1   C20 5638   1.356   1.018   9.087  0.4964  0.2014 -0.6923
   43CHL1   H20 5639   1.346   0.907   9.084  1.6314  0.0946 -1.0213
   43CHL1   C21 5640   1.500   1.062   9.136  0.4798 -1.1727 -0.2259
   43CHL1  H21A 5641   1.513   1.172   9.138 -3.5339 -0.5405 -0.9827
   43CHL1  H21B 5642   1.569   1.011   9.065  1.0042  2.2075 -2.3754
   43CHL1  H21C 5643   1.528   1.022   9.236 -1.8055 -0.4634  0.7535
   43CHL1   C22 5644   1.331   1.069   8.947  0.4569 -0.2827  0.3096
   43CHL1  H22A 5645   1.229   1.038   8.917  0.2366  1.4176 -0.8181
   43CHL1  H22B 5646   1.326   1.179   8.941 -3.1522 -0.0781  3.4194
   43CHL1   C23 5647   1.419   0.994   8.848 -0.4664  0.0764  0.7704
   43CHL1  H23A 5648   1.524   1.025   8.864 -0.4089  0.2807  0.0297
   43CHL1  H23B 5649   1.399   0.884   8.853 -0.2759  0.0228  0.4178
   43CHL1   C24 5650   1.383   1.045   8.706 -0.4213 -0.5708 -0.1712
   43CHL1  H24A 5651   1.282   1.010   8.674 -0.8583  2.7557 -3.0599
   43CHL1  H24B 5652   1.386   1.156   8.712  0.8747 -0.6488  0.9867
   43CHL1   C25 5653   1.469   0.997   8.582  0.2890  0.0215  0.6823
   43CHL1   H25 5654   1.446   0.888   8.583  0.9097 -0.1204  0.0562
   43CHL1   C26 5655   1.409   1.047   8.447  0.0125  0.8330 -0.3587
   43CHL1  H26A 5656   1.456   0.985   8.368 -0.7137  2.2527 -1.9467
   43CHL1  H26B 5657   1.300   1.024   8.457  0.3754 -0.5818  0.7078
   43CHL1  H26C 5658   1.435   1.154   8.436 -0.0465  1.0717  1.4363
   43CHL1   C27 5659   1.622   1.005   8.588  0.3872  0.7027  0.1296
   43CHL1  H27A 5660   1.667   0.989   8.488  2.4737  1.1448  0.9427
   43CHL1  H27B 5661   1.643   1.105   8.633 -1.1520  0.2216  2.0440
   43CHL1  H27C 5662   1.660   0.936   8.666 -1.3959  0.2511  0.6332
   44CHL1    C3 5663   2.490   2.381  10.028  0.1309  1.0247  0.1746
   44CHL1    H3 5664   2.439   2.469  10.072 -0.9332  0.9057 -0.7831
   44CHL1    O3 5665   2.543   2.325  10.140 -0.5168  0.4210 -0.2632
   44CHL1   H3' 5666   2.475   2.277  10.188 -0.0513  0.3689  0.3463
   44CHL1    C4 5667   2.384   2.286   9.964 -0.8151  0.2693  0.0870
   44CHL1   H4A 5668   2.430   2.190   9.934  1.1031  1.0149  0.5243
   44CHL1   H4B 5669   2.316   2.272  10.051  0.4979  2.3315  1.5452
   44CHL1    C5 5670   2.319   2.350   9.844 -0.2752 -0.0336 -0.2702
   44CHL1    C6 5671   2.185   2.371   9.841 -0.6852 -0.0138 -0.3986
   44CHL1    H6 5672   2.123   2.350   9.929 -1.3035 -1.5232 -1.1716
   44CHL1    C7 5673   2.119   2.433   9.718  0.1565 -0.4737 -0.3136
   44CHL1   H7A 5674   2.011   2.410   9.726  0.2066 -0.0997  3.3436
   44CHL1   H7B 5675   2.134   2.541   9.739  1.8538 -0.6502 -0.4657
   44CHL1    C8 5676   2.198   2.404   9.586  0.4386 -0.5890 -0.7595
   44CHL1    H8 5677   2.201   2.294   9.570 -0.5970 -0.5896 -1.0027
   44CHL1   C14 5678   2.136   2.481   9.461 -0.3733  0.1871 -0.5110
   44CHL1   H14 5679   2.143   2.588   9.489 -3.9790 -0.1001  2.2360
   44CHL1   C15 5680   1.978   2.476   9.431 -0.1060  0.9348 -0.9602
   44CHL1  H15A 5681   1.948   2.378   9.472  1.8718  0.5925 -0.2625
   44CHL1  H15B 5682   1.918   2.556   9.480 -0.0944 -1.1937  2.8570
   44CHL1   C16 5683   1.969   2.495   9.282 -0.8752 -0.5222 -0.1842
   44CHL1  H16A 5684   1.931   2.400   9.238  1.1115 -1.2846 -0.3470
   44CHL1  H16B 5685   1.900   2.577   9.249 -0.6432  0.5541  1.8845
   44CHL1   C17 5686   2.112   2.535   9.228  0.3376 -0.4132 -0.7167
   44CHL1   H17 5687   2.118   2.643   9.251  3.3879 -0.8674  1.3390
   44CHL1   C13 5688   2.205   2.457   9.324 -0.5799 -0.2980  0.3247
   44CHL1   C18 5689   2.209   2.308   9.286  0.3924  0.0588  0.0376
   44CHL1  H18A 5690   2.252   2.239   9.362  0.3107 -0.6446 -0.5382
   44CHL1  H18B 5691   2.104   2.273   9.274 -0.1267  0.6739  2.2615
   44CHL1  H18C 5692   2.267   2.293   9.193 -0.3071  1.3244 -0.6351
   44CHL1   C12 5693   2.345   2.510   9.342 -0.0794  0.3765  0.3119
   44CHL1  H12A 5694   2.386   2.495   9.240 -0.9220 -0.7643  0.1111
   44CHL1  H12B 5695   2.344   2.617   9.371  0.2933  0.2834  0.6788
   44CHL1   C11 5696   2.416   2.443   9.461  0.0677  0.5750 -0.4562
   44CHL1  H11A 5697   2.429   2.336   9.436 -2.1770  0.1843 -0.1977
   44CHL1  H11B 5698   2.513   2.496   9.477 -0.2856  1.1255 -0.0844
   44CHL1    C9 5699   2.342   2.449   9.597  0.5707  0.2679  0.7471
   44CHL1    H9 5700   2.339   2.558   9.619 -1.6188  0.7337 -1.4087
   44CHL1   C10 5701   2.414   2.381   9.728  0.0631 -0.0952  0.7522
   44CHL1   C19 5702   2.492   2.269   9.666  0.0832  0.1832  0.5774
   44CHL1  H19A 5703   2.429   2.202   9.603 -0.3204  0.1766  0.9827
   44CHL1  H19B 5704   2.572   2.305   9.598 -2.3553 -0.4032 -2.8459
   44CHL1  H19C 5705   2.532   2.201   9.744 -2.0587  0.6202  2.1537
   44CHL1    C1 5706   2.523   2.474   9.791 -1.1327  0.2750  0.0908
   44CHL1   H1A 5707   2.591   2.501   9.708 -1.1522 -0.1969 -0.0802
   44CHL1   H1B 5708   2.478   2.575   9.804 -2.1155 -0.1083 -0.2588
   44CHL1    C2 5709   2.586   2.427   9.920  0.4772  0.3629  0.2288
   44CHL1   H2A 5710   2.649   2.505   9.967 -0.3162  1.7871 -0.9723
   44CHL1   H2B 5711   2.651   2.338   9.907 -0.1172 -0.0154 -0.2497
   44CHL1   C20 5712   2.123   2.516   9.081  0.0455  0.1734 -0.3534
   44CHL1   H20 5713   2.103   2.412   9.049 -1.4381  0.7656 -1.4656
   44CHL1   C21 5714   2.263   2.553   9.029 -0.1142  0.1461 -1.0848
   44CHL1  H21A 5715   2.328   2.467   9.053 -0.3677 -0.2299 -1.7418
   44CHL1  H21B 5716   2.297   2.653   9.064  2.0806 -0.0864 -2.4034
   44CHL1  H21C 5717   2.254   2.557   8.919 -0.8952 -2.6677 -1.1962
   44CHL1   C22 5718   2.020   2.606   9.001 -0.2681  0.9048  0.1855
   44CHL1  H22A 5719   2.048   2.603   8.893  1.7546 -0.2226  0.6756
   44CHL1  H22B 5720   1.919   2.562   9.011  0.9303 -1.6267  2.4541
   44CHL1   C23 5721   2.008   2.753   9.041  0.5771 -0.3160 -0.9796
   44CHL1  H23A 5722   1.981   2.765   9.148 -0.5643  0.4866 -1.3370
   44CHL1  H23B 5723   2.109   2.799   9.036 -0.3032  2.0651  0.7909
   44CHL1   C24 5724   1.909   2.831   8.950  0.9328 -0.0640 -0.4312
   44CHL1  H24A 5725   1.911   2.936   8.985  2.8125  0.0154 -0.7067
   44CHL1  H24B 5726   1.937   2.824   8.843 -0.4218  1.3968 -0.9186
   44CHL1   C25 5727   1.757   2.793   8.941  0.0817  0.4249  0.0992
   44CHL1   H25 5728   1.744   2.689   8.903 -0.0554  0.0708  1.1033
   44CHL1   C26 5729   1.690   2.789   9.080  0.2182 -0.0982  0.6602
   44CHL1  H26A 5730   1.744   2.731   9.157  0.8562 -1.4280 -0.7304
   44CHL1  H26B 5731   1.670   2.893   9.112  1.8628  1.3799 -2.5912
   44CHL1  H26C 5732   1.592   2.737   9.071 -0.9163  1.7209  1.9643
   44CHL1   C27 5733   1.683   2.894   8.851  0.8559 -0.6247  0.0718
   44CHL1  H27A 5734   1.583   2.857   8.820  1.0119 -1.0393  0.0661
   44CHL1  H27B 5735   1.673   2.989   8.907 -0.3381 -1.8271  2.0088
   44CHL1  H27C 5736   1.741   2.930   8.763 -1.6425  0.5526 -1.2086
   45CHL1    C3 5737   3.412   2.016   9.986 -0.2298  0.3478  0.7466
   45CHL1    H3 5738   3.501   2.077  10.014 -0.4293  1.0547 -0.1169
   45CHL1    O3 5739   3.366   1.950  10.096 -0.5674  0.4742  0.3026
   45CHL1   H3' 5740   3.415   1.870  10.118 -1.5374  0.1536  1.4013
   45CHL1    C4 5741   3.307   2.106   9.932  0.3704 -0.5223  0.3222
   45CHL1   H4A 5742   3.210   2.058   9.905  1.2130 -1.5743 -0.9594
   45CHL1   H4B 5743   3.285   2.180  10.012  0.8610  0.1523 -0.1644
   45CHL1    C5 5744   3.346   2.189   9.809  0.5911 -0.0259 -0.0246
   45CHL1    C6 5745   3.354   2.322   9.813 -0.7007  0.0146 -0.2239
   45CHL1    H6 5746   3.326   2.385   9.899  0.3093  0.2622 -0.0611
   45CHL1    C7 5747   3.399   2.410   9.698 -0.3513 -0.3713 -0.2297
   45CHL1   H7A 5748   3.337   2.501   9.688  0.0136 -0.0368  0.4866
   45CHL1   H7B 5749   3.495   2.458   9.724 -1.4833  1.4178  0.8292
   45CHL1    C8 5750   3.411   2.338   9.563  0.5551  0.2754 -0.5138
   45CHL1    H8 5751   3.497   2.393   9.520  0.2289  0.7343 -0.5924
   45CHL1   C14 5752   3.298   2.363   9.454  0.1155  0.3743 -0.9864
   45CHL1   H14 5753   3.202   2.315   9.484 -0.5521  2.3855  0.2902
   45CHL1   C15 5754   3.264   2.506   9.433  0.2503 -1.4134 -0.2833
   45CHL1  H15A 5755   3.158   2.528   9.460  0.0177 -1.6483 -0.9732
   45CHL1  H15B 5756   3.339   2.573   9.481  1.4274 -1.1852 -2.3060
   45CHL1   C16 5757   3.272   2.548   9.285 -0.1604  0.0157 -0.2607
   45CHL1  H16A 5758   3.172   2.546   9.237  0.1692  0.5184 -0.9744
   45CHL1  H16B 5759   3.318   2.648   9.274  1.8443 -0.9738 -1.4908
   45CHL1   C17 5760   3.367   2.440   9.223 -0.0203 -0.5232 -0.2015
   45CHL1   H17 5761   3.467   2.477   9.255  0.4381 -3.5533  2.3389
   45CHL1   C13 5762   3.338   2.313   9.313 -0.2916  0.2672 -0.4341
   45CHL1   C18 5763   3.213   2.232   9.262  0.4800 -0.3434  0.2695
   45CHL1  H18A 5764   3.123   2.297   9.270  1.0441  0.3641  1.0622
   45CHL1  H18B 5765   3.221   2.183   9.163 -1.4193 -0.2054  0.0092
   45CHL1  H18C 5766   3.190   2.152   9.334 -3.0222  1.2503  1.1499
   45CHL1   C12 5767   3.470   2.223   9.319 -0.3726 -0.0748 -0.4892
   45CHL1  H12A 5768   3.482   2.175   9.219 -0.9833 -0.0120 -0.5954
   45CHL1  H12B 5769   3.549   2.300   9.335  0.4331 -0.9184 -0.3133
   45CHL1   C11 5770   3.471   2.123   9.433  0.6609  0.5206  0.0282
   45CHL1  H11A 5771   3.395   2.047   9.406  1.4142  0.1828 -1.2815
   45CHL1  H11B 5772   3.558   2.054   9.434  0.9213  0.7439 -2.0725
   45CHL1    C9 5773   3.451   2.188   9.571  0.3839 -0.0168 -0.3864
   45CHL1    H9 5774   3.557   2.195   9.603  0.6731  2.8624 -1.7075
   45CHL1   C10 5775   3.390   2.101   9.685 -0.1276  0.3261  0.6559
   45CHL1   C19 5776   3.259   2.027   9.645  0.6691  0.1554 -0.5337
   45CHL1  H19A 5777   3.174   2.098   9.633 -1.3715 -1.7075  1.6795
   45CHL1  H19B 5778   3.258   1.974   9.548 -1.0720  2.4432 -1.8822
   45CHL1  H19C 5779   3.220   1.964   9.727 -1.8774  1.2400 -0.8147
   45CHL1    C1 5780   3.490   1.993   9.731  0.0497 -0.5281  0.6603
   45CHL1   H1A 5781   3.490   1.925   9.643 -0.9442  2.0132 -1.4381
   45CHL1   H1B 5782   3.592   2.037   9.742  0.0567  0.3757 -2.2047
   45CHL1    C2 5783   3.453   1.920   9.866  0.4955 -0.2425  0.2863
   45CHL1   H2A 5784   3.537   1.853   9.893  0.3017 -0.3872  0.5326
   45CHL1   H2B 5785   3.358   1.864   9.856  0.0271  0.6790 -0.7103
   45CHL1   C20 5786   3.371   2.426   9.077 -0.4703 -0.0198  0.6892
   45CHL1   H20 5787   3.433   2.338   9.048  0.0649  0.3744  0.6222
   45CHL1   C21 5788   3.453   2.544   9.020  0.2249 -0.4483  0.7829
   45CHL1  H21A 5789   3.399   2.639   9.040  2.1775  1.0313 -0.5796
   45CHL1  H21B 5790   3.442   2.541   8.910 -1.3392 -0.6491  0.9317
   45CHL1  H21C 5791   3.561   2.540   9.047 -0.4397  1.1971  4.2472
   45CHL1   C22 5792   3.237   2.419   8.996 -0.5842 -0.4913 -0.3626
   45CHL1  H22A 5793   3.158   2.369   9.057 -1.5586  0.5009 -0.7917
   45CHL1  H22B 5794   3.200   2.520   8.968 -1.0226 -0.7541 -0.7329
   45CHL1   C23 5795   3.243   2.347   8.868  0.2570 -0.1111 -0.4322
   45CHL1  H23A 5796   3.287   2.417   8.793 -0.9976  4.1353  2.4397
   45CHL1  H23B 5797   3.315   2.262   8.869  3.1146  2.1195  1.8418
   45CHL1   C24 5798   3.104   2.305   8.813 -0.0181  0.4404 -0.3439
   45CHL1  H24A 5799   3.036   2.264   8.891 -2.4804  1.0697 -2.0284
   45CHL1  H24B 5800   3.037   2.391   8.793  1.4906  2.1662  1.5359
   45CHL1   C25 5801   3.101   2.211   8.687  0.4573  0.7265 -0.1937
   45CHL1   H25 5802   3.168   2.258   8.612 -1.7994  1.2304 -1.9988
   45CHL1   C26 5803   3.146   2.071   8.727 -0.8382 -0.3970  0.2297
   45CHL1  H26A 5804   3.132   1.993   8.648  3.1150 -1.5621  0.4725
   45CHL1  H26B 5805   3.253   2.050   8.748 -1.4253 -2.2944  1.5819
   45CHL1  H26C 5806   3.094   2.047   8.822  0.3736 -0.6271  0.8408
   45CHL1   C27 5807   2.964   2.198   8.616  0.2263  0.5050  0.1774
   45CHL1  H27A 5808   2.984   2.154   8.516  3.0645  0.7267  0.5587
   45CHL1  H27B 5809   2.892   2.143   8.681 -0.0417  1.1145  0.4023
   45CHL1  H27C 5810   2.920   2.300   8.614  0.1465  0.5066  1.4296
   46CHL1    C3 5811   1.571   5.900  10.012 -0.4837 -0.3364 -0.2024
   46CHL1    H3 5812   1.660   5.835  10.013  0.1879  0.5674  0.0022
   46CHL1    O3 5813   1.504   5.899  10.139  0.2493 -0.2479  0.1513
   46CHL1   H3' 5814   1.437   5.963  10.116 -0.3066 -1.4670 -1.8855
   46CHL1    C4 5815   1.609   6.043   9.983 -0.2707  0.4029  0.0236
   46CHL1   H4A 5816   1.512   6.095   9.996  0.0975  1.1690 -0.2068
   46CHL1   H4B 5817   1.680   6.069  10.064 -1.9155 -0.3235  1.7626
   46CHL1    C5 5818   1.654   6.070   9.848  0.5470 -0.0327  0.7618
   46CHL1    C6 5819   1.770   6.131   9.828  0.0785 -0.3666 -0.1658
   46CHL1    H6 5820   1.832   6.159   9.914 -1.2554  0.6301  0.5045
   46CHL1    C7 5821   1.827   6.168   9.696 -0.3664  0.2517  0.3708
   46CHL1   H7A 5822   1.870   6.271   9.690  1.6014 -0.6110 -1.9959
   46CHL1   H7B 5823   1.917   6.104   9.696 -0.0690  0.6627  0.4387
   46CHL1    C8 5824   1.731   6.143   9.576 -0.7074  0.0695  0.5031
   46CHL1    H8 5825   1.666   6.232   9.568 -2.1949 -0.9827  0.4362
   46CHL1   C14 5826   1.816   6.137   9.449 -0.5736  0.2003 -0.5635
   46CHL1   H14 5827   1.875   6.044   9.465 -1.9706 -0.7202 -0.5547
   46CHL1   C15 5828   1.916   6.252   9.418  0.4761 -0.5043  0.4708
   46CHL1  H15A 5829   1.863   6.350   9.417 -2.8213 -2.1407 -0.3022
   46CHL1  H15B 5830   2.002   6.242   9.487  1.4654  0.3185 -0.6007
   46CHL1   C16 5831   1.953   6.228   9.269 -0.0065  0.4482 -0.2337
   46CHL1  H16A 5832   1.946   6.328   9.221  0.6012  0.9440  0.6769
   46CHL1  H16B 5833   2.061   6.201   9.265  0.1319  0.1407  2.8955
   46CHL1   C17 5834   1.859   6.110   9.220  0.2403 -0.0759  0.4233
   46CHL1   H17 5835   1.925   6.023   9.243 -0.6455 -0.8642  0.0340
   46CHL1   C13 5836   1.735   6.115   9.317 -0.4581 -0.3163  0.2862
   46CHL1   C18 5837   1.650   6.245   9.281 -0.3772  0.5090 -0.1785
   46CHL1  H18A 5838   1.581   6.265   9.366  2.6121  1.1486  2.2881
   46CHL1  H18B 5839   1.723   6.329   9.270  2.5584 -2.0672 -2.0871
   46CHL1  H18C 5840   1.609   6.229   9.179  0.6649 -0.9941 -0.3927
   46CHL1   C12 5841   1.642   5.990   9.337  0.4777 -0.4686  0.3747
   46CHL1  H12A 5842   1.565   5.975   9.258 -0.0758 -3.1344  1.3120
   46CHL1  H12B 5843   1.699   5.894   9.340 -0.3242 -0.9254  1.7959
   46CHL1   C11 5844   1.553   5.996   9.465 -1.2471 -0.7991 -0.0451
   46CHL1  H11A 5845   1.474   6.074   9.460  0.9684  1.6925  1.4035
   46CHL1  H11B 5846   1.499   5.903   9.491 -0.9586 -1.4695 -1.7295
   46CHL1    C9 5847   1.642   6.021   9.595 -0.1798  0.1361 -0.5733
   46CHL1    H9 5848   1.715   5.938   9.605  1.1790  1.3178 -0.3602
   46CHL1   C10 5849   1.564   6.025   9.732 -1.0776  0.1396 -0.0561
   46CHL1   C19 5850   1.438   6.120   9.720  0.6345 -0.9730 -0.4454
   46CHL1  H19A 5851   1.373   6.127   9.809 -1.9349 -0.6770 -2.2443
   46CHL1  H19B 5852   1.458   6.223   9.682 -2.1939  0.0664  0.6269
   46CHL1  H19C 5853   1.359   6.078   9.654 -2.2589  3.4888 -0.2049
   46CHL1    C1 5854   1.534   5.878   9.760 -0.1422 -0.5239  0.0454
   46CHL1   H1A 5855   1.476   5.828   9.679  0.6717 -0.5891 -0.5123
   46CHL1   H1B 5856   1.627   5.816   9.763  2.1177  2.4325 -2.0895
   46CHL1    C2 5857   1.479   5.852   9.902  0.5273  0.0793 -0.4392
   46CHL1   H2A 5858   1.459   5.743   9.912  1.2575 -0.1902 -1.6963
   46CHL1   H2B 5859   1.380   5.902   9.916  0.2625 -0.0183 -1.7888
   46CHL1   C20 5860   1.827   6.115   9.067  0.5680  0.4359 -0.0438
   46CHL1   H20 5861   1.746   6.190   9.059  0.1561 -0.1099 -1.1281
   46CHL1   C21 5862   1.777   5.976   9.028  0.3931  0.4252 -0.3756
   46CHL1  H21A 5863   1.856   5.898   9.025  0.1698  0.2214 -2.0275
   46CHL1  H21B 5864   1.726   5.986   8.929  0.9399 -1.2065 -0.8457
   46CHL1  H21C 5865   1.694   5.937   9.091  0.8586 -1.9380 -1.1389
   46CHL1   C22 5866   1.947   6.158   8.988 -0.8456 -0.5139  0.6476
   46CHL1  H22A 5867   1.973   6.261   9.018  0.6448 -0.2049 -1.4739
   46CHL1  H22B 5868   2.038   6.102   9.021  0.6121  0.8718 -0.8383
   46CHL1   C23 5869   1.941   6.158   8.831 -0.5464 -0.4582  0.2641
   46CHL1  H23A 5870   1.901   6.061   8.796 -0.3952 -1.5009  2.7429
   46CHL1  H23B 5871   1.887   6.252   8.806  0.2750  0.0941  0.5556
   46CHL1   C24 5872   2.083   6.162   8.764  0.1666  0.2137 -0.4042
   46CHL1  H24A 5873   2.133   6.260   8.779  0.6517  0.0087 -0.6607
   46CHL1  H24B 5874   2.148   6.091   8.820  0.9442 -0.2156 -1.8031
   46CHL1   C25 5875   2.074   6.137   8.608  0.3816 -0.8466  0.4757
   46CHL1   H25 5876   2.001   6.052   8.607 -0.8259  0.1167 -2.3062
   46CHL1   C26 5877   2.010   6.251   8.534 -0.0571 -0.9779  0.4965
   46CHL1  H26A 5878   1.906   6.260   8.573 -1.5813 -1.8249 -3.0114
   46CHL1  H26B 5879   2.071   6.344   8.542  0.5240 -0.7295 -4.1076
   46CHL1  H26C 5880   2.006   6.226   8.426  2.3173  2.2084 -0.4994
   46CHL1   C27 5881   2.211   6.089   8.551  0.2729  0.6372 -0.1207
   46CHL1  H27A 5882   2.249   5.992   8.591 -0.5098  0.8915  1.2828
   46CHL1  H27B 5883   2.205   6.086   8.440  0.1852 -1.1692 -0.1009
   46CHL1  H27C 5884   2.281   6.173   8.571  1.1527  0.3759 -1.8394
   47CHL1    C3 5885   6.766   0.297   9.985  0.0172  0.2517 -0.0240
   47CHL1    H3 5886   6.767   0.186   9.982  2.2848  0.2112  0.5056
   47CHL1    O3 5887   6.798   0.345  10.117 -0.1439  0.3179 -0.7870
   47CHL1   H3' 5888   6.723   0.314  10.169 -1.1122 -1.4304 -3.0448
   47CHL1    C4 5889   6.870   0.349   9.883  0.2680  0.1505  0.1309
   47CHL1   H4A 5890   6.875   0.460   9.883 -1.8285  0.2780  0.6798
   47CHL1   H4B 5891   6.966   0.311   9.922  0.5976  1.4231  0.5959
   47CHL1    C5 5892   6.842   0.296   9.744  0.4977 -0.9533 -0.5373
   47CHL1    C6 5893   6.927   0.214   9.675  0.4608 -1.2105 -1.0565
   47CHL1    H6 5894   7.018   0.180   9.727  0.1359  1.4548  1.4976
   47CHL1    C7 5895   6.914   0.186   9.526 -0.5116 -0.6801  0.7513
   47CHL1   H7A 5896   7.002   0.216   9.465 -0.8508 -0.4981  0.3461
   47CHL1   H7B 5897   6.892   0.079   9.504  1.3751 -0.5649 -2.2878
   47CHL1    C8 5898   6.793   0.251   9.461 -0.1023 -0.1727  0.5026
   47CHL1    H8 5899   6.823   0.356   9.442 -0.3343  0.0446  1.2760
   47CHL1   C14 5900   6.754   0.185   9.324  0.1252  0.4217 -0.4691
   47CHL1   H14 5901   6.709   0.086   9.348  1.5661 -0.3493 -0.8446
   47CHL1   C15 5902   6.865   0.146   9.226  0.4314 -0.1094  1.0231
   47CHL1  H15A 5903   6.944   0.224   9.236 -0.6464  0.8894  2.0323
   47CHL1  H15B 5904   6.912   0.051   9.259  1.5973 -0.0337 -0.3477
   47CHL1   C16 5905   6.796   0.143   9.092  0.2356 -0.3277 -0.5938
   47CHL1  H16A 5906   6.845   0.228   9.040  3.3078 -1.8694 -0.4860
   47CHL1  H16B 5907   6.809   0.048   9.035 -1.0277  0.1131 -1.6599
   47CHL1   C17 5908   6.642   0.161   9.122 -0.1091 -0.3213 -0.2606
   47CHL1   H17 5909   6.602   0.066   9.163 -0.3458 -0.9209 -1.8210
   47CHL1   C13 5910   6.636   0.254   9.242 -0.7230  0.0148  0.3727
   47CHL1   C18 5911   6.671   0.402   9.210 -0.1129 -0.5034  0.5353
   47CHL1  H18A 5912   6.612   0.433   9.121  0.8532 -1.5619 -0.5083
   47CHL1  H18B 5913   6.659   0.481   9.288 -0.2829  0.2970 -0.2765
   47CHL1  H18C 5914   6.780   0.407   9.187  0.1285 -0.8021  1.5377
   47CHL1   C12 5915   6.511   0.248   9.332 -0.4816  0.8013  0.0207
   47CHL1  H12A 5916   6.425   0.293   9.278 -1.2753 -0.8007 -0.0874
   47CHL1  H12B 5917   6.486   0.141   9.348  1.4930  0.5651  1.8986
   47CHL1   C11 5918   6.539   0.309   9.476  0.7245 -0.2738 -0.2003
   47CHL1  H11A 5919   6.547   0.418   9.459 -2.7182 -0.3724 -3.8986
   47CHL1  H11B 5920   6.459   0.295   9.551  1.7647 -1.4486  0.7353
   47CHL1    C9 5921   6.672   0.266   9.554  0.7343  0.3889  0.5627
   47CHL1    H9 5922   6.656   0.161   9.586 -0.2016  0.1994 -0.4639
   47CHL1   C10 5923   6.703   0.339   9.692  0.3634 -0.0386  0.1142
   47CHL1   C19 5924   6.703   0.494   9.667  0.4188  0.7666 -0.0453
   47CHL1  H19A 5925   6.789   0.524   9.603 -1.3044  2.5277 -1.6672
   47CHL1  H19B 5926   6.626   0.532   9.597  1.0364 -0.4558 -1.4667
   47CHL1  H19C 5927   6.697   0.540   9.767  0.5900 -1.2735  0.9549
   47CHL1    C1 5928   6.598   0.306   9.795  0.9437 -0.8651  0.5810
   47CHL1   H1A 5929   6.509   0.366   9.766  1.6860 -0.4327 -0.9043
   47CHL1   H1B 5930   6.570   0.198   9.794 -0.7588 -0.4573  1.4098
   47CHL1    C2 5931   6.629   0.345   9.935 -0.0584  0.6516  0.4484
   47CHL1   H2A 5932   6.550   0.311  10.005 -0.5153 -0.8840 -0.7454
   47CHL1   H2B 5933   6.627   0.456   9.931 -0.5024  0.6175 -2.5883
   47CHL1   C20 5934   6.555   0.198   8.997  0.2880  0.5920 -0.2788
   47CHL1   H20 5935   6.555   0.306   8.975  0.4030  0.3768 -1.4071
   47CHL1   C21 5936   6.401   0.170   9.036  0.6610  1.1680 -0.7992
   47CHL1  H21A 5937   6.386   0.100   9.121 -0.2645  0.6570 -1.3761
   47CHL1  H21B 5938   6.347   0.131   8.947  2.9695  0.8504 -2.1281
   47CHL1  H21C 5939   6.354   0.261   9.081 -0.3866  0.0664  0.4101
   47CHL1   C22 5940   6.599   0.123   8.864 -0.3823  0.0842 -0.0503
   47CHL1  H22A 5941   6.707   0.135   8.839 -0.4405  0.2022 -0.2509
   47CHL1  H22B 5942   6.588   0.016   8.893  0.2565 -0.5388 -1.9301
   47CHL1   C23 5943   6.521   0.151   8.738  0.0648 -0.2688 -0.6582
   47CHL1  H23A 5944   6.427   0.092   8.747 -0.9735  1.5311  0.9161
   47CHL1  H23B 5945   6.489   0.256   8.751 -2.6207 -1.1008  0.1499
   47CHL1   C24 5946   6.586   0.111   8.605 -0.1843  0.6678 -0.5709
   47CHL1  H24A 5947   6.694   0.134   8.608  0.0007 -0.2471  0.1337
   47CHL1  H24B 5948   6.561   0.003   8.601 -1.0342  0.8700 -0.9450
   47CHL1   C25 5949   6.519   0.158   8.473 -0.0719 -0.3197 -0.3402
   47CHL1   H25 5950   6.413   0.127   8.483 -0.3504  0.2605 -1.3716
   47CHL1   C26 5951   6.518   0.314   8.452  0.7669  0.2884 -0.6459
   47CHL1  H26A 5952   6.611   0.359   8.411  0.2321  1.6485 -0.3935
   47CHL1  H26B 5953   6.493   0.357   8.551  0.0506 -2.1930  0.3312
   47CHL1  H26C 5954   6.429   0.345   8.393  0.7849 -1.0612 -1.4315
   47CHL1   C27 5955   6.570   0.096   8.347 -0.3662  0.2430  0.5067
   47CHL1  H27A 5956   6.674   0.131   8.330 -0.5033  1.5454  2.0225
   47CHL1  H27B 5957   6.572  -0.014   8.357 -0.6137  0.2522  0.6639
   47CHL1  H27C 5958   6.497   0.117   8.266 -1.9929 -1.9003  1.3405
   48CHL1    C3 5959   3.239   4.709  10.132  0.3986 -0.1054 -0.1886
   48CHL1    H3 5960   3.268   4.604  10.114  0.6928  0.1435 -1.1859
   48CHL1    O3 5961   3.211   4.740  10.267 -0.3699 -0.3301 -0.1662
   48CHL1   H3' 5962   3.208   4.836  10.272  1.3220 -0.1993 -0.8377
   48CHL1    C4 5963   3.365   4.783  10.089 -0.4795  0.3448  0.3011
   48CHL1   H4A 5964   3.354   4.892  10.109 -0.2259  0.8181 -1.8436
   48CHL1   H4B 5965   3.450   4.746  10.150 -0.5487 -0.8004 -0.2661
   48CHL1    C5 5966   3.393   4.762   9.942  0.8684 -0.3353  0.4966
   48CHL1    C6 5967   3.511   4.722   9.905 -0.8842 -0.2280 -0.1333
   48CHL1    H6 5968   3.588   4.700   9.980 -0.0772  1.3370 -0.4651
   48CHL1    C7 5969   3.553   4.709   9.758 -0.2040  0.0566  0.0673
   48CHL1   H7A 5970   3.643   4.774   9.748 -1.2894  1.4148 -1.4456
   48CHL1   H7B 5971   3.567   4.601   9.734 -2.1410 -0.5676  1.4983
   48CHL1    C8 5972   3.452   4.776   9.657 -0.4936 -0.1488  0.3525
   48CHL1    H8 5973   3.471   4.886   9.659 -1.0604 -0.0453  1.8992
   48CHL1   C14 5974   3.479   4.735   9.514 -0.5130  0.4088  0.8853
   48CHL1   H14 5975   3.468   4.625   9.507  2.3518  0.0824 -0.0050
   48CHL1   C15 5976   3.627   4.771   9.463 -0.3779  0.2503 -0.9702
   48CHL1  H15A 5977   3.659   4.877   9.478 -2.0571  0.3658  3.8800
   48CHL1  H15B 5978   3.706   4.710   9.511  1.1079  3.0080  0.3475
   48CHL1   C16 5979   3.610   4.737   9.318 -0.0877 -0.5369 -0.2102
   48CHL1  H16A 5980   3.678   4.804   9.261  1.7755 -1.0666  1.3065
   48CHL1  H16B 5981   3.657   4.639   9.293  0.7227  0.1356 -1.4745
   48CHL1   C17 5982   3.461   4.732   9.280 -0.4885  0.3914 -0.5050
   48CHL1   H17 5983   3.425   4.627   9.277  0.7909 -0.1781  1.7011
   48CHL1   C13 5984   3.384   4.785   9.409  0.1830 -0.7945 -0.5396
   48CHL1   C18 5985   3.374   4.942   9.411  0.4232  0.4760  0.1483
   48CHL1  H18A 5986   3.473   4.989   9.393  0.9090 -0.3765  0.5259
   48CHL1  H18B 5987   3.311   4.986   9.331  1.0673  0.4865 -0.3588
   48CHL1  H18C 5988   3.341   4.973   9.513 -0.2182 -0.1589  0.1374
   48CHL1   C12 5989   3.246   4.725   9.440 -0.5851 -0.3664 -0.1161
   48CHL1  H12A 5990   3.175   4.783   9.377 -1.0096  0.4522  1.0815
   48CHL1  H12B 5991   3.260   4.617   9.420 -0.2256 -0.5576  1.0701
   48CHL1   C11 5992   3.196   4.750   9.588 -0.3279 -0.2817 -0.6110
   48CHL1  H11A 5993   3.153   4.852   9.598  1.4817  0.5154 -0.7309
   48CHL1  H11B 5994   3.120   4.678   9.625  1.4779 -2.8336 -1.5738
   48CHL1    C9 5995   3.310   4.735   9.696  0.2185  0.0155 -0.3932
   48CHL1    H9 5996   3.309   4.624   9.694 -1.7773  0.0063 -1.5914
   48CHL1   C10 5997   3.278   4.795   9.845 -0.3318  0.4308  0.7708
   48CHL1   C19 5998   3.257   4.947   9.839  0.3570  0.4497  0.3113
   48CHL1  H19A 5999   3.353   4.997   9.814  0.3617  1.3919  2.0150
   48CHL1  H19B 6000   3.177   4.969   9.766  3.2938  0.1306 -3.3089
   48CHL1  H19C 6001   3.228   4.981   9.941 -2.8652 -2.5290  0.5471
   48CHL1    C1 6002   3.155   4.724   9.898  0.0701  0.3077 -0.3457
   48CHL1   H1A 6003   3.059   4.747   9.847 -1.0068 -3.3096 -0.2373
   48CHL1   H1B 6004   3.165   4.614   9.897  0.8845  0.3483  0.9909
   48CHL1    C2 6005   3.119   4.747  10.048 -0.0300 -0.7692 -0.6767
   48CHL1   H2A 6006   3.031   4.684  10.075  0.2079  0.2376  2.8663
   48CHL1   H2B 6007   3.092   4.852  10.073  1.4415 -0.5248 -0.0154
   48CHL1   C20 6008   3.425   4.796   9.147 -0.4238  0.0548 -0.1717
   48CHL1   H20 6009   3.431   4.907   9.152  0.1737  0.0320 -0.3327
   48CHL1   C21 6010   3.270   4.765   9.115 -0.5118  0.4404 -0.4377
   48CHL1  H21A 6011   3.201   4.831   9.172  0.0511  1.8054 -1.2943
   48CHL1  H21B 6012   3.262   4.659   9.150  1.5508  0.5683  0.6100
   48CHL1  H21C 6013   3.245   4.779   9.008  0.1498  0.8788 -0.5406
   48CHL1   C22 6014   3.519   4.743   9.033  0.4070  0.0875  0.3013
   48CHL1  H22A 6015   3.626   4.738   9.062  0.6693 -1.3953 -0.8241
   48CHL1  H22B 6016   3.477   4.646   9.000 -0.0744  0.9131 -1.6585
   48CHL1   C23 6017   3.510   4.841   8.910 -0.1048 -0.3068 -0.3310
   48CHL1  H23A 6018   3.408   4.844   8.866 -1.0996  2.6919  1.8355
   48CHL1  H23B 6019   3.526   4.942   8.954 -2.7812  0.4506 -0.9186
   48CHL1   C24 6020   3.626   4.813   8.823  0.2643 -0.5056  0.0509
   48CHL1  H24A 6021   3.718   4.828   8.883  1.3298 -0.5309 -1.5242
   48CHL1  H24B 6022   3.622   4.705   8.798 -0.0199 -0.3565 -0.5918
   48CHL1   C25 6023   3.643   4.902   8.696 -0.5981 -0.0518  0.1606
   48CHL1   H25 6024   3.631   5.010   8.722 -0.5640  0.4587 -1.7769
   48CHL1   C26 6025   3.787   4.893   8.638  0.4703 -0.2591 -0.3503
   48CHL1  H26A 6026   3.799   4.931   8.534 -0.1757  0.4356 -0.1733
   48CHL1  H26B 6027   3.852   4.951   8.708 -1.7674  0.7477  0.9987
   48CHL1  H26C 6028   3.808   4.784   8.631 -4.2957 -1.4143  0.0568
   48CHL1   C27 6029   3.538   4.860   8.586  0.0358  0.0414  0.1408
   48CHL1  H27A 6030   3.539   4.943   8.512 -0.3289 -1.4056 -1.5580
   48CHL1  H27B 6031   3.580   4.772   8.531  0.6918  1.6839 -2.1304
   48CHL1  H27C 6032   3.437   4.849   8.631  1.0198  1.2227  2.8156
   49CHL1    C3 6033   2.140   5.599  10.197  0.0018 -0.3370  0.3970
   49CHL1    H3 6034   2.251   5.612  10.197  0.2794 -2.2616 -0.9341
   49CHL1    O3 6035   2.110   5.584  10.333  0.3557  0.1496  0.5355
   49CHL1   H3' 6036   2.080   5.493  10.339  0.8280 -0.1843 -1.5214
   49CHL1    C4 6037   2.073   5.731  10.152  0.4333  0.1045  0.5927
   49CHL1   H4A 6038   1.967   5.749  10.179  0.7694  0.7317  1.5766
   49CHL1   H4B 6039   2.124   5.812  10.208  0.8151  0.0537  0.3186
   49CHL1    C5 6040   2.095   5.753  10.007 -0.2144 -0.1517  0.3626
   49CHL1    C6 6041   2.145   5.875   9.961 -0.0672  0.8288 -0.4654
   49CHL1    H6 6042   2.180   5.958  10.024 -1.4446 -0.1474  1.6914
   49CHL1    C7 6043   2.168   5.902   9.819  0.3164 -0.4679  0.0410
   49CHL1   H7A 6044   2.111   5.992   9.789  0.4365 -0.8576 -1.4232
   49CHL1   H7B 6045   2.276   5.911   9.794 -0.0875 -0.7360 -1.9786
   49CHL1    C8 6046   2.109   5.792   9.720 -0.1259  0.0527  0.6146
   49CHL1    H8 6047   2.000   5.807   9.709 -0.0011 -0.6065 -2.5695
   49CHL1   C14 6048   2.173   5.792   9.585  0.2602 -0.2450  0.6677
   49CHL1   H14 6049   2.271   5.746   9.613  0.1883 -1.9301 -1.5166
   49CHL1   C15 6050   2.214   5.927   9.520  0.5260 -0.0868  0.3333
   49CHL1  H15A 6051   2.152   6.018   9.529  2.6988  1.2631  3.9021
   49CHL1  H15B 6052   2.307   5.966   9.567  0.6540  1.0494 -0.8083
   49CHL1   C16 6053   2.236   5.893   9.374  0.2327 -0.2960 -0.0109
   49CHL1  H16A 6054   2.160   5.956   9.323  0.1916  0.5750  1.1074
   49CHL1  H16B 6055   2.334   5.921   9.330 -0.4046 -1.1517 -2.1296
   49CHL1   C17 6056   2.203   5.737   9.356 -0.4880 -0.5583 -0.0585
   49CHL1   H17 6057   2.300   5.694   9.387 -0.6240 -0.1026  1.0277
   49CHL1   C13 6058   2.112   5.699   9.477 -0.4503 -0.8152  0.4194
   49CHL1   C18 6059   1.967   5.738   9.437  0.4780 -0.1834  0.0740
   49CHL1  H18A 6060   1.959   5.845   9.410  0.0469 -0.7999 -2.5997
   49CHL1  H18B 6061   1.926   5.676   9.354  2.0347  0.5450 -1.3200
   49CHL1  H18C 6062   1.904   5.733   9.528 -1.1521  2.3058 -0.8298
   49CHL1   C12 6063   2.123   5.562   9.530 -0.2289  0.7273 -0.2395
   49CHL1  H12A 6064   2.070   5.485   9.469 -0.3721 -0.9192  1.8572
   49CHL1  H12B 6065   2.232   5.541   9.534  0.0273  1.7563 -1.4966
   49CHL1   C11 6066   2.065   5.547   9.678  0.4274  0.1400 -0.2464
   49CHL1  H11A 6067   1.954   5.552   9.667  0.3055 -1.9892 -0.4316
   49CHL1  H11B 6068   2.103   5.445   9.699 -1.3569 -0.4479  0.2609
   49CHL1    C9 6069   2.116   5.651   9.779  0.0798  0.4246 -0.2330
   49CHL1    H9 6070   2.223   5.628   9.801 -1.0365 -2.0971  3.4763
   49CHL1   C10 6071   2.051   5.635   9.912 -0.7612  0.0968 -0.6183
   49CHL1   C19 6072   1.897   5.643   9.902 -1.0690 -1.0433  0.0657
   49CHL1  H19A 6073   1.841   5.554   9.868 -0.7623 -1.6983  1.2289
   49CHL1  H19B 6074   1.851   5.664  10.001  0.1292 -0.5226  0.5442
   49CHL1  H19C 6075   1.876   5.735   9.843 -0.5412 -0.3854  0.8664
   49CHL1    C1 6076   2.102   5.497   9.973 -0.5902 -0.4635  0.7765
   49CHL1   H1A 6077   2.054   5.414   9.917  0.4287  0.3555 -1.3900
   49CHL1   H1B 6078   2.210   5.487   9.949 -0.8773 -1.2592 -0.2467
   49CHL1    C2 6079   2.085   5.483  10.123 -0.0515  0.2686  0.4190
   49CHL1   H2A 6080   2.134   5.392  10.162  0.0293  0.8165  1.6498
   49CHL1   H2B 6081   1.977   5.477  10.148 -0.0857 -1.8594 -0.0556
   49CHL1   C20 6082   2.156   5.703   9.214  0.3236 -0.0465  0.2354
   49CHL1   H20 6083   2.048   5.727   9.205  0.1770  0.2975  2.3903
   49CHL1   C21 6084   2.179   5.551   9.203  0.1546  0.1579  0.3758
   49CHL1  H21A 6085   2.280   5.519   9.235 -1.3118 -2.8452  2.4476
   49CHL1  H21B 6086   2.150   5.519   9.101 -4.0586  0.6643  1.2195
   49CHL1  H21C 6087   2.100   5.511   9.270  0.2580 -0.3518  0.1917
   49CHL1   C22 6088   2.231   5.785   9.106  0.1541 -0.2115 -0.0911
   49CHL1  H22A 6089   2.183   5.885   9.100  1.0435  0.3574  1.6541
   49CHL1  H22B 6090   2.339   5.798   9.132 -0.0503 -0.0612  0.6904
   49CHL1   C23 6091   2.243   5.741   8.964 -0.0788 -0.4830  0.2299
   49CHL1  H23A 6092   2.304   5.812   8.903 -0.6660 -0.1717 -0.0020
   49CHL1  H23B 6093   2.294   5.642   8.963  1.9818  0.5182 -0.5248
   49CHL1   C24 6094   2.107   5.728   8.890 -0.2137  0.6833  0.2341
   49CHL1  H24A 6095   2.069   5.625   8.912 -0.1606  0.1171 -2.0521
   49CHL1  H24B 6096   2.043   5.809   8.931  0.0122  0.9808 -0.0014
   49CHL1   C25 6097   2.119   5.733   8.733 -0.2751  0.2550 -0.0468
   49CHL1   H25 6098   2.184   5.821   8.712 -2.6481  2.7189  2.1694
   49CHL1   C26 6099   2.191   5.608   8.684  0.4317  0.3031 -0.0028
   49CHL1  H26A 6100   2.209   5.623   8.576 -0.4398  3.0873  0.1675
   49CHL1  H26B 6101   2.293   5.593   8.725  0.1368  0.1255  0.6889
   49CHL1  H26C 6102   2.115   5.528   8.697 -0.0053  0.7796  0.4392
   49CHL1   C27 6103   1.983   5.759   8.671  0.4106  0.2998  0.9879
   49CHL1  H27A 6104   1.909   5.679   8.697  1.0108 -0.3263  0.8104
   49CHL1  H27B 6105   1.955   5.861   8.703  3.1831  1.1676  0.8862
   49CHL1  H27C 6106   1.998   5.766   8.562  0.6292 -0.3513  0.9683
   50CHL1    C3 6107   2.470   1.327  10.128  0.0405  0.4157  0.5553
   50CHL1    H3 6108   2.452   1.431  10.094 -1.0093 -0.0788 -0.4742
   50CHL1    O3 6109   2.450   1.306  10.262  0.4683 -0.7433 -0.2109
   50CHL1   H3' 6110   2.368   1.352  10.283  0.5658 -0.5788 -0.1894
   50CHL1    C4 6111   2.389   1.222  10.043  0.3205 -0.3194  0.4021
   50CHL1   H4A 6112   2.416   1.119  10.075  2.5395  0.0415 -0.1630
   50CHL1   H4B 6113   2.281   1.229  10.067  0.2290 -2.9046  1.0450
   50CHL1    C5 6114   2.429   1.225   9.893  0.9331 -0.6752  0.1983
   50CHL1    C6 6115   2.331   1.253   9.800  0.4379 -0.0056  0.3673
   50CHL1    H6 6116   2.233   1.290   9.834  0.3197  0.9555 -0.9576
   50CHL1    C7 6117   2.354   1.255   9.649 -0.1262  0.1512 -0.5494
   50CHL1   H7A 6118   2.270   1.195   9.607 -0.2820 -0.9700  1.2695
   50CHL1   H7B 6119   2.356   1.360   9.613  0.7178  0.7456  1.1448
   50CHL1    C8 6120   2.492   1.199   9.613 -0.0039  1.2815  0.4953
   50CHL1    H8 6121   2.494   1.088   9.613 -0.5676  1.1451  3.9650
   50CHL1   C14 6122   2.521   1.247   9.470 -0.6638  0.0937  0.1140
   50CHL1   H14 6123   2.537   1.357   9.483 -0.5703  0.0063  0.8059
   50CHL1   C15 6124   2.412   1.208   9.361 -0.3651  0.3935 -0.8427
   50CHL1  H15A 6125   2.374   1.107   9.389 -0.7068  0.6853 -0.2220
   50CHL1  H15B 6126   2.323   1.273   9.375 -0.7955 -0.4142  0.2843
   50CHL1   C16 6127   2.494   1.222   9.238 -0.0724 -0.7692  0.0912
   50CHL1  H16A 6128   2.486   1.123   9.190 -1.7882 -1.5787  1.8977
   50CHL1  H16B 6129   2.454   1.297   9.167  0.7622 -1.3124 -0.9675
   50CHL1   C17 6130   2.643   1.253   9.278 -0.2410 -0.2337 -0.2131
   50CHL1   H17 6131   2.649   1.364   9.283  0.4057 -0.3268  1.6391
   50CHL1   C13 6132   2.660   1.203   9.422  0.6339  0.2361  0.1884
   50CHL1   C18 6133   2.682   1.047   9.416  0.0308 -0.6471 -0.5416
   50CHL1  H18A 6134   2.687   1.014   9.522 -1.0709  1.8237  0.3547
   50CHL1  H18B 6135   2.605   1.001   9.351 -0.1013 -1.6080  0.2739
   50CHL1  H18C 6136   2.784   1.033   9.373  0.2832  0.8991 -0.5224
   50CHL1   C12 6137   2.766   1.272   9.510 -0.0094 -0.2424 -0.1150
   50CHL1  H12A 6138   2.870   1.261   9.470 -0.9894  0.1508 -2.9989
   50CHL1  H12B 6139   2.741   1.379   9.503  0.6597  0.0866  1.8949
   50CHL1   C11 6140   2.754   1.225   9.655  0.3088 -0.1871  0.1455
   50CHL1  H11A 6141   2.779   1.117   9.672  1.1768 -0.2227 -1.2097
   50CHL1  H11B 6142   2.827   1.281   9.718  2.5739 -1.7086 -0.9831
   50CHL1    C9 6143   2.608   1.248   9.711 -0.9135  0.5334  0.7767
   50CHL1    H9 6144   2.600   1.359   9.711  0.0468  0.6132  1.3232
   50CHL1   C10 6145   2.577   1.207   9.861 -0.8326 -0.6797 -0.3356
   50CHL1   C19 6146   2.622   1.062   9.884 -0.1294 -0.3084 -1.0387
   50CHL1  H19A 6147   2.586   1.024   9.982 -1.1096 -0.3138 -1.3919
   50CHL1  H19B 6148   2.575   0.998   9.806 -1.4669 -2.3425  1.2897
   50CHL1  H19C 6149   2.731   1.043   9.871 -0.1031  0.0172 -1.2944
   50CHL1    C1 6150   2.650   1.305   9.954  0.2920 -0.5099 -0.7233
   50CHL1   H1A 6151   2.760   1.292   9.941  0.6283  1.7561 -0.5076
   50CHL1   H1B 6152   2.641   1.413   9.930  0.7949 -0.4132 -0.4915
   50CHL1    C2 6153   2.618   1.292  10.103 -0.3171 -0.0580 -0.1882
   50CHL1   H2A 6154   2.679   1.366  10.158 -0.9538  0.7581 -0.5678
   50CHL1   H2B 6155   2.643   1.186  10.127  0.8501 -0.3885 -2.5832
   50CHL1   C20 6156   2.745   1.209   9.167  0.8521  0.7604  0.0138
   50CHL1   H20 6157   2.737   1.099   9.151 -2.0944  0.3905  2.9631
   50CHL1   C21 6158   2.891   1.252   9.204 -0.8993  0.0413  0.1200
   50CHL1  H21A 6159   2.944   1.203   9.288 -1.3328 -0.8506 -0.1157
   50CHL1  H21B 6160   2.892   1.361   9.225 -0.5282  0.2061 -0.7315
   50CHL1  H21C 6161   2.952   1.230   9.114 -1.3893  0.0416 -0.2201
   50CHL1   C22 6162   2.701   1.257   9.031  0.0275 -0.3814 -0.2854
   50CHL1  H22A 6163   2.765   1.200   8.960 -1.0418 -3.8173  1.2659
   50CHL1  H22B 6164   2.600   1.217   9.006  0.6702 -0.4013 -3.2027
   50CHL1   C23 6165   2.707   1.412   9.019  0.3514 -0.2243  0.3587
   50CHL1  H23A 6166   2.623   1.451   9.081 -1.1153 -0.3844 -1.4382
   50CHL1  H23B 6167   2.797   1.461   9.062 -0.2389  1.1913  0.0478
   50CHL1   C24 6168   2.685   1.454   8.876 -0.3368 -0.1796 -0.2983
   50CHL1  H24A 6169   2.673   1.564   8.877  1.3213  0.0406  1.2049
   50CHL1  H24B 6170   2.779   1.444   8.818  0.0146  2.4942 -0.3208
   50CHL1   C25 6171   2.562   1.405   8.802 -0.2925 -0.5247 -0.0975
   50CHL1   H25 6172   2.560   1.294   8.796  0.2084 -0.5969  0.8972
   50CHL1   C26 6173   2.434   1.446   8.881  0.2249 -0.1335  0.5186
   50CHL1  H26A 6174   2.449   1.552   8.909  0.1785 -0.4187  1.6476
   50CHL1  H26B 6175   2.344   1.422   8.820  0.5553 -0.2569  0.0779
   50CHL1  H26C 6176   2.432   1.401   8.983  1.3575  0.9411  1.0376
   50CHL1   C27 6177   2.556   1.447   8.653  0.0962  0.0367 -0.4949
   50CHL1  H27A 6178   2.472   1.392   8.605 -0.2143  0.5174 -0.5132
   50CHL1  H27B 6179   2.538   1.557   8.652  2.1908  0.5164  2.0623
   50CHL1  H27C 6180   2.657   1.425   8.612 -0.0047 -1.0545 -0.1755
   51CHL1    C3 6181   0.753   3.328  10.015  0.4115 -0.2255  0.5206
   51CHL1    H3 6182   0.650   3.338   9.975  0.7825  0.8429 -0.2042
   51CHL1    O3 6183   0.757   3.305  10.155  0.4070  0.2191  0.0541
   51CHL1   H3' 6184   0.801   3.220  10.162 -0.0918 -0.0526 -0.0490
   51CHL1    C4 6185   0.828   3.223   9.925  0.2085  0.3316 -0.5702
   51CHL1   H4A 6186   0.929   3.209   9.971  0.4493 -0.4062 -1.3156
   51CHL1   H4B 6187   0.776   3.126   9.936 -0.3218  0.7059  0.4218
   51CHL1    C5 6188   0.826   3.259   9.781 -0.6745  0.1910 -0.0251
   51CHL1    C6 6189   0.777   3.171   9.692  0.0387 -0.0527 -0.2197
   51CHL1    H6 6190   0.748   3.070   9.724  0.6133 -0.3793 -0.6987
   51CHL1    C7 6191   0.784   3.201   9.542 -0.1709  0.4084  0.1719
   51CHL1   H7A 6192   0.815   3.112   9.482  1.3247  1.7243 -1.1193
   51CHL1   H7B 6193   0.686   3.232   9.501 -0.5715  0.4695  1.1469
   51CHL1    C8 6194   0.885   3.314   9.506 -0.2433  0.3380 -0.1583
   51CHL1    H8 6195   0.987   3.271   9.510 -1.1018 -1.8489 -0.6874
   51CHL1   C14 6196   0.856   3.369   9.364  0.1131  0.3541 -0.2982
   51CHL1   H14 6197   0.751   3.405   9.364 -0.2378 -0.5764 -1.5260
   51CHL1   C15 6198   0.851   3.265   9.255 -0.0349  0.0448  0.0841
   51CHL1  H15A 6199   0.927   3.183   9.256 -1.0529 -0.9511 -0.9847
   51CHL1  H15B 6200   0.753   3.214   9.263 -0.8623  1.7143  1.0808
   51CHL1   C16 6201   0.874   3.335   9.125  0.4146  0.2619 -0.5944
   51CHL1  H16A 6202   0.953   3.282   9.066  0.6183 -0.7021  0.5216
   51CHL1  H16B 6203   0.781   3.339   9.065 -0.4380  1.6097  0.7412
   51CHL1   C17 6204   0.902   3.488   9.170 -0.9055  0.4302  0.3847
   51CHL1   H17 6205   0.795   3.520   9.169 -0.6112  1.4276  0.3430
   51CHL1   C13 6206   0.941   3.483   9.318  0.0708 -0.2718 -0.6912
   51CHL1   C18 6207   1.089   3.426   9.323  0.2311  0.3289  0.4368
   51CHL1  H18A 6208   1.099   3.343   9.250 -0.5395  0.6956 -0.1013
   51CHL1  H18B 6209   1.161   3.503   9.288 -1.2015  1.2023 -0.7074
   51CHL1  H18C 6210   1.123   3.394   9.424 -1.4080 -1.6515  0.4218
   51CHL1   C12 6211   0.917   3.598   9.419 -0.2455 -0.4378 -0.5174
   51CHL1  H12A 6212   0.987   3.681   9.392  0.3975 -0.7684  0.1183
   51CHL1  H12B 6213   0.813   3.638   9.413  0.0607  0.7953  1.5025
   51CHL1   C11 6214   0.947   3.563   9.560 -0.0754  0.5966 -0.1168
   51CHL1  H11A 6215   1.058   3.554   9.562  0.1841 -0.3218 -5.0399
   51CHL1  H11B 6216   0.916   3.652   9.619  0.1284 -0.7911  2.2279
   51CHL1    C9 6217   0.871   3.430   9.608 -0.2954  0.5710  0.7616
   51CHL1    H9 6218   0.764   3.458   9.592 -0.3157  0.0571 -0.0852
   51CHL1   C10 6219   0.886   3.390   9.752 -0.3937 -0.7265 -0.2393
   51CHL1   C19 6220   1.047   3.386   9.775  0.7202  0.2010 -0.4930
   51CHL1  H19A 6221   1.087   3.313   9.702  0.6383 -0.1512 -0.1877
   51CHL1  H19B 6222   1.085   3.490   9.763 -0.4870  0.5898 -1.2415
   51CHL1  H19C 6223   1.072   3.350   9.877  0.9388  0.1929 -0.5502
   51CHL1    C1 6224   0.833   3.501   9.846  0.3530 -0.7479 -0.0539
   51CHL1   H1A 6225   0.899   3.589   9.832  0.3278 -0.9969 -1.8651
   51CHL1   H1B 6226   0.727   3.522   9.822 -0.6023 -2.2318  2.3911
   51CHL1    C2 6227   0.828   3.465   9.997  0.1947  0.8363 -0.2018
   51CHL1   H2A 6228   0.780   3.546  10.057  0.4774  1.9107 -1.3783
   51CHL1   H2B 6229   0.929   3.445  10.040 -0.7093  0.7211  1.9814
   51CHL1   C20 6230   0.988   3.577   9.078  0.3053  0.1424 -0.7601
   51CHL1   H20 6231   1.098   3.562   9.084  0.4031 -0.9669 -3.4830
   51CHL1   C21 6232   0.948   3.723   9.114 -0.0645 -0.9541  0.4595
   51CHL1  H21A 6233   0.991   3.754   9.211  0.1079  0.9189 -0.1660
   51CHL1  H21B 6234   0.837   3.725   9.118 -0.1365 -1.6758 -0.7277
   51CHL1  H21C 6235   0.984   3.798   9.039  0.7571 -0.2576  1.5251
   51CHL1   C22 6236   0.959   3.545   8.928 -0.8366  0.3389  0.1353
   51CHL1  H22A 6237   0.993   3.442   8.905 -0.5166  0.0944  1.5908
   51CHL1  H22B 6238   0.849   3.542   8.912 -0.5062 -1.5294 -2.2503
   51CHL1   C23 6239   1.014   3.636   8.822 -0.7623 -0.1521 -0.7216
   51CHL1  H23A 6240   0.953   3.728   8.832 -1.1842 -0.1213 -2.9865
   51CHL1  H23B 6241   1.122   3.656   8.837 -1.3240  2.2503  0.5924
   51CHL1   C24 6242   0.990   3.590   8.684  0.8044  0.4703  0.2051
   51CHL1  H24A 6243   1.044   3.497   8.659  0.7436  0.4273  0.2340
   51CHL1  H24B 6244   0.882   3.568   8.669  1.0342 -0.3384 -0.3668
   51CHL1   C25 6245   1.036   3.687   8.575 -0.1574 -0.6431  0.3637
   51CHL1   H25 6246   0.998   3.786   8.609  2.1029  0.0418  1.0912
   51CHL1   C26 6247   1.191   3.703   8.572 -0.1222 -0.6701 -0.4942
   51CHL1  H26A 6248   1.223   3.784   8.503 -0.8828  2.9663  3.0336
   51CHL1  H26B 6249   1.237   3.722   8.671  1.3404 -1.7043 -0.9498
   51CHL1  H26C 6250   1.243   3.611   8.538  0.0657  0.0434 -2.2818
   51CHL1   C27 6251   0.989   3.655   8.434 -0.3344  0.4780 -0.3448
   51CHL1  H27A 6252   1.025   3.719   8.351 -0.0046  2.8217  1.4762
   51CHL1  H27B 6253   1.016   3.551   8.408 -0.9067  1.4101 -6.0070
   51CHL1  H27C 6254   0.878   3.661   8.441 -0.3863 -0.0484 -0.6468
   52CHL1    C3 6255   6.835   1.763   9.878  0.4151 -0.5910 -0.2735
   52CHL1    H3 6256   6.795   1.660   9.879 -1.6510  0.1428 -1.5691
   52CHL1    O3 6257   6.861   1.800  10.017 -0.0257 -0.6446 -0.1465
   52CHL1   H3' 6258   6.776   1.835  10.045  0.9246  0.9234  0.9578
   52CHL1    C4 6259   6.962   1.777   9.805 -0.6311 -0.7058 -0.3555
   52CHL1   H4A 6260   7.009   1.875   9.825  2.4788 -1.9256 -1.1281
   52CHL1   H4B 6261   7.034   1.697   9.833  1.5610  1.1625 -0.3242
   52CHL1    C5 6262   6.935   1.754   9.658 -0.3352  0.3738 -0.3043
   52CHL1    C6 6263   7.004   1.653   9.593 -0.8871 -0.2878  0.2986
   52CHL1    H6 6264   7.089   1.606   9.644  1.2132  0.8013 -1.9913
   52CHL1    C7 6265   6.987   1.616   9.449 -0.0520 -0.8959 -0.2981
   52CHL1   H7A 6266   7.092   1.598   9.419  1.2097  0.0989  3.0563
   52CHL1   H7B 6267   6.939   1.516   9.459  1.7827 -1.7977 -0.1873
   52CHL1    C8 6268   6.897   1.715   9.364 -0.5119 -0.3269 -0.4111
   52CHL1    H8 6269   6.971   1.794   9.336  1.4944 -2.3255 -1.0746
   52CHL1   C14 6270   6.832   1.655   9.230 -0.7578  0.4569 -0.0830
   52CHL1   H14 6271   6.758   1.585   9.274 -0.0289 -1.0152 -1.1432
   52CHL1   C15 6272   6.927   1.564   9.142  0.3215  0.0620  0.0833
   52CHL1  H15A 6273   7.025   1.615   9.135  0.4618 -0.1676  0.3596
   52CHL1  H15B 6274   6.920   1.456   9.169  1.1782 -0.7251 -2.5513
   52CHL1   C16 6275   6.861   1.573   9.001 -0.5574 -0.0241 -0.3230
   52CHL1  H16A 6276   6.942   1.602   8.930 -0.2861 -2.2813 -1.0426
   52CHL1  H16B 6277   6.820   1.476   8.966 -0.3894 -0.3280  0.2993
   52CHL1   C17 6278   6.744   1.670   9.022  0.9933 -0.0450  0.9634
   52CHL1   H17 6279   6.657   1.608   9.055  0.3146  0.9736  1.1585
   52CHL1   C13 6280   6.781   1.759   9.138  0.7087  0.1854 -0.7256
   52CHL1   C18 6281   6.891   1.858   9.088 -0.3301 -0.8988 -0.6321
   52CHL1  H18A 6282   6.842   1.932   9.021  1.7994  0.4737 -0.7509
   52CHL1  H18B 6283   6.947   1.912   9.166  1.8817 -1.0312 -2.0380
   52CHL1  H18C 6284   6.973   1.803   9.037  0.7053  0.3091 -0.3055
   52CHL1   C12 6285   6.667   1.827   9.221  0.2568 -0.0568  0.5390
   52CHL1  H12A 6286   6.624   1.915   9.170 -0.5941 -0.8285 -0.1010
   52CHL1  H12B 6287   6.587   1.751   9.239  0.0185 -0.2248 -1.1120
   52CHL1   C11 6288   6.712   1.885   9.354 -0.1386 -0.5857  0.4653
   52CHL1  H11A 6289   6.773   1.978   9.345 -0.8495 -0.2870 -1.5832
   52CHL1  H11B 6290   6.616   1.910   9.404 -0.6166 -0.9868 -0.2449
   52CHL1    C9 6291   6.787   1.787   9.443 -0.4596  0.6036 -0.8711
   52CHL1    H9 6292   6.720   1.701   9.463  1.7321 -0.4726  2.8201
   52CHL1   C10 6293   6.823   1.834   9.588 -0.4577 -0.4770 -0.7468
   52CHL1   C19 6294   6.879   1.983   9.576 -0.1427 -0.0170 -0.1384
   52CHL1  H19A 6295   6.949   1.992   9.490  0.0852 -3.5061 -0.4388
   52CHL1  H19B 6296   6.791   2.048   9.554 -1.9814 -1.6570  1.8745
   52CHL1  H19C 6297   6.918   2.023   9.672 -0.0247  0.1026 -0.2364
   52CHL1    C1 6298   6.706   1.842   9.688  0.7299  0.3523 -0.4081
   52CHL1   H1A 6299   6.641   1.926   9.655 -1.0611 -0.0363  1.8322
   52CHL1   H1B 6300   6.653   1.745   9.676  0.6713  0.2327  0.6995
   52CHL1    C2 6301   6.732   1.869   9.834 -0.1145 -0.4718  0.5058
   52CHL1   H2A 6302   6.639   1.870   9.893  1.2101  1.2599  2.7025
   52CHL1   H2B 6303   6.778   1.970   9.847 -1.4357 -0.0552  2.2312
   52CHL1   C20 6304   6.700   1.728   8.883  0.3175  0.2101 -0.8799
   52CHL1   H20 6305   6.784   1.790   8.845  1.2100 -0.4519 -0.0255
   52CHL1   C21 6306   6.587   1.828   8.902 -0.6101  0.2502  1.0879
   52CHL1  H21A 6307   6.619   1.922   8.953 -2.2100  0.6811  1.3360
   52CHL1  H21B 6308   6.501   1.790   8.961 -1.8814 -1.6498 -1.8044
   52CHL1  H21C 6309   6.554   1.868   8.804  0.5754  0.5533  0.7852
   52CHL1   C22 6310   6.671   1.614   8.786  0.0330  0.4064 -0.5266
   52CHL1  H22A 6311   6.757   1.550   8.761  0.4903  0.8883 -0.2161
   52CHL1  H22B 6312   6.593   1.551   8.834 -0.8635  1.5981 -0.3587
   52CHL1   C23 6313   6.614   1.653   8.646 -0.3299 -0.7969 -0.1878
   52CHL1  H23A 6314   6.514   1.701   8.647  1.3782  3.3742 -2.4074
   52CHL1  H23B 6315   6.687   1.723   8.600  1.6662 -2.0932  0.8417
   52CHL1   C24 6316   6.613   1.533   8.546  0.4407  0.0472  0.4008
   52CHL1  H24A 6317   6.708   1.478   8.528  2.1606  2.4377  1.5523
   52CHL1  H24B 6318   6.551   1.460   8.602 -0.8119  0.7648 -0.0183
   52CHL1   C25 6319   6.540   1.569   8.419 -0.7827 -0.1524  0.2697
   52CHL1   H25 6320   6.433   1.587   8.443 -1.3018 -2.9235  0.4208
   52CHL1   C26 6321   6.577   1.707   8.352  0.6713  0.1534 -0.5049
   52CHL1  H26A 6322   6.562   1.791   8.424 -0.2371 -0.3471 -0.1053
   52CHL1  H26B 6323   6.681   1.713   8.314  0.8140  2.3732  0.0654
   52CHL1  H26C 6324   6.504   1.715   8.269  0.6900  0.8710 -0.4638
   52CHL1   C27 6325   6.554   1.455   8.307  0.3411 -0.6724 -0.1601
   52CHL1  H27A 6326   6.659   1.422   8.294  0.6647  1.3833 -4.6214
   52CHL1  H27B 6327   6.492   1.368   8.336 -1.5879  1.0226  1.1278
   52CHL1  H27C 6328   6.515   1.498   8.211  1.9995  1.5461  0.0825
   53CHL1    C3 6329   1.924   1.896   9.991 -0.6222 -0.3426 -0.8390
   53CHL1    H3 6330   1.832   1.833   9.984 -0.2844 -0.7995 -1.2646
   53CHL1    O3 6331   1.934   1.927  10.128 -0.4898  0.4089  0.3764
   53CHL1   H3' 6332   2.006   1.990  10.132 -0.1724  0.1633 -1.0164
   53CHL1    C4 6333   2.039   1.807   9.941  1.2479 -0.0438  0.4780
   53CHL1   H4A 6334   2.136   1.848   9.977  1.0731  0.3835  0.4666
   53CHL1   H4B 6335   2.027   1.708   9.992 -0.4234 -0.6719 -1.0344
   53CHL1    C5 6336   2.055   1.786   9.794 -0.1951  0.8906 -0.3179
   53CHL1    C6 6337   2.079   1.663   9.741  0.0319 -0.1582 -0.0713
   53CHL1    H6 6338   2.102   1.584   9.815  0.8390 -0.1413 -0.2892
   53CHL1    C7 6339   2.094   1.627   9.595  0.0017  0.6150  0.0301
   53CHL1   H7A 6340   2.178   1.556   9.582  0.0052  0.0756  2.4628
   53CHL1   H7B 6341   2.014   1.560   9.557  2.3021 -3.6347  1.9129
   53CHL1    C8 6342   2.118   1.759   9.510 -0.0776  0.0291  0.4909
   53CHL1    H8 6343   2.226   1.783   9.523  0.3059 -0.0730 -1.9355
   53CHL1   C14 6344   2.092   1.735   9.358  0.3865  0.4046 -0.1944
   53CHL1   H14 6345   1.983   1.714   9.359  0.7380 -2.0205  3.0593
   53CHL1   C15 6346   2.151   1.605   9.283 -0.0137 -0.6814 -0.5376
   53CHL1  H15A 6347   2.254   1.579   9.316  1.2955  2.3365 -1.8606
   53CHL1  H15B 6348   2.081   1.520   9.299 -0.8143  0.1449  0.4928
   53CHL1   C16 6349   2.147   1.648   9.133  0.4633  0.6491 -0.6231
   53CHL1  H16A 6350   2.249   1.659   9.088 -0.0197  0.9154 -1.6826
   53CHL1  H16B 6351   2.093   1.576   9.068 -0.3706  0.1481  0.5997
   53CHL1   C17 6352   2.090   1.786   9.125  0.2951 -0.0790  0.5150
   53CHL1   H17 6353   1.981   1.767   9.120  0.4818 -0.9354 -1.9644
   53CHL1   C13 6354   2.121   1.848   9.263  0.9681  0.8212  0.1570
   53CHL1   C18 6355   2.269   1.889   9.273  0.6885  0.1293  0.0660
   53CHL1  H18A 6356   2.335   1.801   9.262  0.9729  0.4113 -0.5605
   53CHL1  H18B 6357   2.289   1.967   9.196  0.6332 -0.8079 -0.9125
   53CHL1  H18C 6358   2.297   1.927   9.373 -1.4727  0.0517  0.7452
   53CHL1   C12 6359   2.031   1.966   9.303 -0.0799  0.3874 -0.2938
   53CHL1  H12A 6360   2.084   2.050   9.254  0.8800  0.5379  0.9426
   53CHL1  H12B 6361   1.930   1.954   9.259 -0.0098  0.5361 -0.4936
   53CHL1   C11 6362   2.035   1.994   9.455  0.4168  0.0437 -0.0064
   53CHL1  H11A 6363   2.130   2.048   9.478 -0.1836  1.2936 -0.3810
   53CHL1  H11B 6364   1.950   2.062   9.475 -0.2932 -1.0039  0.6452
   53CHL1    C9 6365   2.019   1.874   9.548 -0.3802  0.3768 -0.0728
   53CHL1    H9 6366   1.917   1.829   9.546 -1.1707  1.9707  1.3101
   53CHL1   C10 6367   2.041   1.910   9.701  0.8196 -0.1840 -0.7109
   53CHL1   C19 6368   2.172   2.000   9.712 -0.5215 -0.6207  0.0219
   53CHL1  H19A 6369   2.256   1.974   9.644  0.3991  0.8193  0.5869
   53CHL1  H19B 6370   2.136   2.103   9.690 -0.4779 -0.7433 -0.6620
   53CHL1  H19C 6371   2.197   2.021   9.817 -1.6551  0.0124  0.1837
   53CHL1    C1 6372   1.915   1.976   9.757 -0.3342 -0.1912 -0.8012
   53CHL1   H1A 6373   1.903   2.065   9.693 -1.4682 -0.9267 -1.6569
   53CHL1   H1B 6374   1.830   1.906   9.742 -2.1563  1.7922 -0.2271
   53CHL1    C2 6375   1.926   2.021   9.905  0.3841  0.0741 -0.0956
   53CHL1   H2A 6376   1.841   2.086   9.935  0.8906  0.1915  1.1832
   53CHL1   H2B 6377   2.019   2.080   9.917  1.0027 -0.8473 -0.2395
   53CHL1   C20 6378   2.122   1.872   8.999  0.0144 -0.2969  0.7367
   53CHL1   H20 6379   2.215   1.933   8.995 -1.5332  2.1647  0.5704
   53CHL1   C21 6380   2.011   1.973   8.979  0.5043 -0.8032 -0.0575
   53CHL1  H21A 6381   1.911   1.926   8.967 -0.2856  0.2509  1.9575
   53CHL1  H21B 6382   2.031   2.026   8.883  1.4695 -0.1767  0.4650
   53CHL1  H21C 6383   1.998   2.047   9.061 -0.3115 -1.0843  0.0728
   53CHL1   C22 6384   2.147   1.784   8.868 -0.5197  0.2589  0.0681
   53CHL1  H22A 6385   2.214   1.697   8.887 -0.2068  0.7362  1.1925
   53CHL1  H22B 6386   2.049   1.740   8.841  1.0370 -2.3599 -1.8507
   53CHL1   C23 6387   2.213   1.855   8.747 -0.0859 -0.5182  0.0686
   53CHL1  H23A 6388   2.159   1.949   8.724 -2.0899 -1.0238  2.2164
   53CHL1  H23B 6389   2.319   1.880   8.769 -0.1660  1.7003 -1.7689
   53CHL1   C24 6390   2.221   1.773   8.622  0.1124  0.4064 -0.1258
   53CHL1  H24A 6391   2.290   1.689   8.646 -1.9092 -0.9024  1.4343
   53CHL1  H24B 6392   2.121   1.734   8.594  0.9959 -0.5340 -2.1567
   53CHL1   C25 6393   2.288   1.838   8.502 -0.2563  0.5304  0.2321
   53CHL1   H25 6394   2.373   1.897   8.544 -1.2268  0.9717  1.6526
   53CHL1   C26 6395   2.344   1.730   8.399  0.3360 -0.2376  0.3215
   53CHL1  H26A 6396   2.437   1.691   8.446  0.8182  1.5989  0.9877
   53CHL1  H26B 6397   2.269   1.652   8.379 -3.1871  2.1491  2.9037
   53CHL1  H26C 6398   2.364   1.776   8.300 -0.0921 -1.8148 -0.5177
   53CHL1   C27 6399   2.206   1.949   8.431  0.6950 -0.2918 -0.6943
   53CHL1  H27A 6400   2.102   1.908   8.428  0.6348 -0.1131 -1.4620
   53CHL1  H27B 6401   2.215   2.041   8.493  3.0725 -0.7298 -0.2962
   53CHL1  H27C 6402   2.254   1.974   8.334  1.5937  0.2635 -0.1213
   54CHL1    C3 6403   2.888   3.414   9.951  0.0694 -0.2065  0.2120
   54CHL1    H3 6404   2.886   3.521   9.922 -0.1521 -0.3291 -0.2249
   54CHL1    O3 6405   2.832   3.386  10.080 -0.7423  0.5460  0.2729
   54CHL1   H3' 6406   2.906   3.348  10.128  0.2910  1.7729 -0.2770
   54CHL1    C4 6407   2.805   3.336   9.847  0.2235 -0.1766  0.1949
   54CHL1   H4A 6408   2.799   3.228   9.871 -0.8330  0.2434  2.0151
   54CHL1   H4B 6409   2.698   3.365   9.857  1.1477  4.1605 -0.3085
   54CHL1    C5 6410   2.850   3.377   9.708  0.4730 -0.2569 -1.4555
   54CHL1    C6 6411   2.767   3.419   9.609 -0.0016 -0.6432  0.6080
   54CHL1    H6 6412   2.658   3.433   9.619 -0.5720 -1.6654 -2.8516
   54CHL1    C7 6413   2.818   3.463   9.473 -0.2765 -0.2692 -0.4682
   54CHL1   H7A 6414   2.745   3.431   9.397 -2.8296  1.4431  1.1130
   54CHL1   H7B 6415   2.822   3.574   9.468  2.0289 -0.2796  0.0585
   54CHL1    C8 6416   2.963   3.420   9.437 -0.4850  0.0716  0.4150
   54CHL1    H8 6417   2.964   3.315   9.401 -0.1306 -0.3580  1.5962
   54CHL1   C14 6418   3.011   3.508   9.320  0.3125 -0.0453  0.7138
   54CHL1   H14 6419   3.020   3.610   9.365  1.2728  0.7744 -1.2429
   54CHL1   C15 6420   2.922   3.509   9.200  0.3234 -0.9061  0.7231
   54CHL1  H15A 6421   2.885   3.409   9.171 -2.1487 -0.3107  1.5557
   54CHL1  H15B 6422   2.834   3.577   9.203 -0.7035 -2.1788  0.1694
   54CHL1   C16 6423   3.014   3.558   9.092  0.0056 -0.6385  0.9943
   54CHL1  H16A 6424   3.012   3.491   9.004  0.3526  2.2357 -1.3742
   54CHL1  H16B 6425   2.979   3.656   9.052  0.4062 -1.0722 -0.4668
   54CHL1   C17 6426   3.154   3.569   9.148 -1.0353 -0.7580  0.3493
   54CHL1   H17 6427   3.166   3.667   9.198  2.6325 -0.7841 -0.2158
   54CHL1   C13 6428   3.153   3.469   9.268 -0.3021  0.3593  0.0072
   54CHL1   C18 6429   3.162   3.322   9.222  0.0604 -0.7320  0.1294
   54CHL1  H18A 6430   3.121   3.250   9.296 -1.9380 -3.5188 -3.3304
   54CHL1  H18B 6431   3.109   3.310   9.125 -0.8926 -0.4907  0.6099
   54CHL1  H18C 6432   3.270   3.304   9.204 -0.0611  0.7603 -2.6071
   54CHL1   C12 6433   3.249   3.504   9.388  0.5523  0.0734 -0.0434
   54CHL1  H12A 6434   3.348   3.461   9.363  0.7469  0.2238  0.4612
   54CHL1  H12B 6435   3.262   3.612   9.408 -0.7145  0.5483 -1.6188
   54CHL1   C11 6436   3.205   3.424   9.521 -0.6072 -0.0178  0.5608
   54CHL1  H11A 6437   3.232   3.317   9.514 -0.1505  0.0869  0.7145
   54CHL1  H11B 6438   3.251   3.472   9.609 -0.7082 -0.6949  0.9874
   54CHL1    C9 6439   3.054   3.435   9.556  0.4262  0.2226  0.0379
   54CHL1    H9 6440   3.035   3.543   9.574 -0.4068  0.1970 -0.6314
   54CHL1   C10 6441   3.006   3.371   9.686 -0.3152 -0.0508  0.6501
   54CHL1   C19 6442   3.038   3.223   9.678 -0.0391 -0.8154 -0.6485
   54CHL1  H19A 6443   2.993   3.162   9.759 -2.5982  0.2529 -1.1578
   54CHL1  H19B 6444   2.991   3.183   9.586  1.1453 -1.6236 -0.9262
   54CHL1  H19C 6445   3.146   3.198   9.680 -0.0565 -0.8662 -0.3068
   54CHL1    C1 6446   3.090   3.418   9.810  0.0332  1.1216 -0.0839
   54CHL1   H1A 6447   3.196   3.388   9.802 -1.1568 -3.6202 -0.8753
   54CHL1   H1B 6448   3.096   3.529   9.821 -2.4147  1.2033  1.3945
   54CHL1    C2 6449   3.038   3.371   9.941  0.4528  0.1020  0.1109
   54CHL1   H2A 6450   3.107   3.409  10.019  1.1534 -0.2620 -0.3223
   54CHL1   H2B 6451   3.035   3.261   9.957  0.6265  0.3362  1.9773
   54CHL1   C20 6452   3.258   3.547   9.028 -0.3600 -0.3120 -0.4194
   54CHL1   H20 6453   3.240   3.445   8.989  0.8400 -0.0169 -1.8126
   54CHL1   C21 6454   3.399   3.575   9.087  0.0195 -0.6855  0.4899
   54CHL1  H21A 6455   3.419   3.538   9.189  0.7968 -0.0512  0.5730
   54CHL1  H21B 6456   3.421   3.683   9.099  0.0968 -0.7600  1.0245
   54CHL1  H21C 6457   3.475   3.532   9.018 -0.5122 -0.9325  0.0471
   54CHL1   C22 6458   3.238   3.657   8.921 -0.0945  0.5695 -0.4772
   54CHL1  H22A 6459   3.133   3.653   8.884 -0.4481  1.7567  0.3227
   54CHL1  H22B 6460   3.253   3.756   8.969 -1.9601  0.9568 -0.6045
   54CHL1   C23 6461   3.325   3.640   8.797  0.3115 -0.2063 -0.0328
   54CHL1  H23A 6462   3.427   3.665   8.833  0.7982  0.3040 -1.6805
   54CHL1  H23B 6463   3.322   3.535   8.759 -1.5709 -0.1330 -0.1693
   54CHL1   C24 6464   3.289   3.733   8.681  0.2642  0.1905 -0.1463
   54CHL1  H24A 6465   3.200   3.705   8.621 -0.6746  1.3827  0.6248
   54CHL1  H24B 6466   3.270   3.836   8.718  1.2832  0.5233 -0.5081
   54CHL1   C25 6467   3.400   3.746   8.586  0.1183 -0.1985  0.2196
   54CHL1   H25 6468   3.492   3.787   8.632 -0.8669  0.3906  1.7271
   54CHL1   C26 6469   3.442   3.607   8.516  0.5107  0.0903  0.0999
   54CHL1  H26A 6470   3.533   3.622   8.453 -0.7219 -0.6603 -1.9705
   54CHL1  H26B 6471   3.485   3.538   8.591  0.7976 -1.6079 -1.5426
   54CHL1  H26C 6472   3.355   3.560   8.466  0.3648  0.4796 -0.0212
   54CHL1   C27 6473   3.381   3.861   8.484 -0.2439  0.4696  0.0379
   54CHL1  H27A 6474   3.333   3.947   8.536  0.8243  2.5700 -2.2104
   54CHL1  H27B 6475   3.473   3.899   8.434 -1.3525  0.0546 -2.5031
   54CHL1  H27C 6476   3.308   3.839   8.403 -1.0582  0.4244  0.7684
   55CHL1    C3 6477   2.892   0.450  10.255  0.2178  0.2833  0.6801
   55CHL1    H3 6478   2.788   0.466  10.219  0.1546  3.0570  1.8663
   55CHL1    O3 6479   2.900   0.470  10.393  0.0458  0.5121 -0.0807
   55CHL1   H3' 6480   2.995   0.472  10.400  0.1691 -1.7193 -0.5293
   55CHL1    C4 6481   2.944   0.308  10.219 -0.5464 -0.5462 -0.7587
   55CHL1   H4A 6482   3.046   0.307  10.263 -1.6033 -2.3573  1.9289
   55CHL1   H4B 6483   2.892   0.232  10.282  1.9175  0.3181  2.6250
   55CHL1    C5 6484   2.934   0.277  10.069  0.7510 -0.7175  0.7229
   55CHL1    C6 6485   2.869   0.173  10.023  0.0126  0.7337 -1.1139
   55CHL1    H6 6486   2.832   0.103  10.099  0.0246  1.5948 -0.2992
   55CHL1    C7 6487   2.838   0.138   9.877  0.0792 -0.5157  0.1343
   55CHL1   H7A 6488   2.827   0.030   9.852  0.1124 -0.0562 -1.9874
   55CHL1   H7B 6489   2.733   0.170   9.862 -0.0027  0.0869  1.7683
   55CHL1    C8 6490   2.939   0.213   9.781  0.7603 -0.0580  0.5383
   55CHL1    H8 6491   3.027   0.145   9.786  1.3222  0.1773 -3.3275
   55CHL1   C14 6492   2.891   0.217   9.641  0.0200 -0.6894 -0.3023
   55CHL1   H14 6493   2.803   0.282   9.620  0.6219 -0.7090 -3.3737
   55CHL1   C15 6494   2.843   0.080   9.582 -0.8267  0.0639  0.0135
   55CHL1  H15A 6495   2.909   0.002   9.625  1.4660  1.1268 -1.4270
   55CHL1  H15B 6496   2.736   0.064   9.608 -0.3806 -1.3465  1.1236
   55CHL1   C16 6497   2.851   0.097   9.428  0.3750  0.8256  1.0614
   55CHL1  H16A 6498   2.927   0.026   9.392 -0.0141  0.0524  1.7308
   55CHL1  H16B 6499   2.749   0.089   9.384  1.0728  0.1704 -0.4924
   55CHL1   C17 6500   2.919   0.235   9.403 -0.1813 -0.4890  0.3542
   55CHL1   H17 6501   2.840   0.312   9.407  0.1826 -0.1318  0.8848
   55CHL1   C13 6502   2.997   0.269   9.534  0.9847 -0.1850 -0.0284
   55CHL1   C18 6503   3.130   0.183   9.532  0.2509  0.4005  0.0914
   55CHL1  H18A 6504   3.192   0.199   9.623 -1.5807 -0.5539  1.5618
   55CHL1  H18B 6505   3.102   0.077   9.522  0.2096 -0.1170  4.1344
   55CHL1  H18C 6506   3.190   0.210   9.443  0.2640 -0.1699 -0.0724
   55CHL1   C12 6507   3.030   0.420   9.578 -0.1446  0.3542  0.3847
   55CHL1  H12A 6508   3.113   0.461   9.515  0.5758 -1.1872  0.2733
   55CHL1  H12B 6509   2.937   0.479   9.562  0.8904  1.8112 -0.5928
   55CHL1   C11 6510   3.070   0.433   9.728 -0.2760 -0.0456  0.7524
   55CHL1  H11A 6511   3.175   0.397   9.729 -0.2131 -0.3375 -2.8300
   55CHL1  H11B 6512   3.068   0.543   9.741  0.0386  0.2002 -1.0324
   55CHL1    C9 6513   2.976   0.359   9.828  0.2568  0.2159  0.6926
   55CHL1    H9 6514   2.881   0.415   9.816 -1.2598 -2.3256  0.0775
   55CHL1   C10 6515   3.015   0.376   9.974  0.4837 -0.1489 -0.3221
   55CHL1   C19 6516   3.164   0.340   9.990  0.2555  0.4517  0.3587
   55CHL1  H19A 6517   3.188   0.345  10.099  1.0009 -0.8172  0.2759
   55CHL1  H19B 6518   3.191   0.242   9.946  0.4956  0.6753  0.0028
   55CHL1  H19C 6519   3.236   0.400   9.930 -0.1120 -0.1535 -0.7105
   55CHL1    C1 6520   2.979   0.519  10.025  0.2008  0.1011 -0.6702
   55CHL1   H1A 6521   3.062   0.580   9.983  0.8030  0.6879  1.3002
   55CHL1   H1B 6522   2.886   0.557   9.977 -0.1403 -0.3630 -0.3874
   55CHL1    C2 6523   2.976   0.551  10.180  0.0314 -0.5133 -0.5184
   55CHL1   H2A 6524   2.940   0.653  10.204  1.8160  0.0793 -0.1884
   55CHL1   H2B 6525   3.084   0.545  10.208 -0.4213  0.4808  1.5716
   55CHL1   C20 6526   2.987   0.251   9.264 -0.4693 -0.1493 -0.3558
   55CHL1   H20 6527   3.072   0.182   9.245 -0.0431  0.6453 -1.3978
   55CHL1   C21 6528   3.041   0.393   9.246  0.4411  0.7189  0.4896
   55CHL1  H21A 6529   2.961   0.465   9.275 -0.2229  0.5868 -0.8887
   55CHL1  H21B 6530   3.058   0.410   9.137  0.1890  0.0653  0.3405
   55CHL1  H21C 6531   3.134   0.399   9.306  0.7120 -1.1512  0.3103
   55CHL1   C22 6532   2.871   0.227   9.160 -0.2935  0.1862  0.0297
   55CHL1  H22A 6533   2.826   0.129   9.188  1.6483  0.1233  3.4817
   55CHL1  H22B 6534   2.788   0.299   9.176  0.7455  1.7448 -1.3082
   55CHL1   C23 6535   2.925   0.240   9.019  0.1439 -0.3535 -0.2992
   55CHL1  H23A 6536   2.956   0.343   8.990  1.2612 -0.4347  0.5328
   55CHL1  H23B 6537   3.010   0.170   9.002  0.9389 -0.7463  4.2145
   55CHL1   C24 6538   2.816   0.223   8.910  0.1140 -0.0853  0.1423
   55CHL1  H24A 6539   2.747   0.140   8.939  0.6974 -0.6921 -0.1798
   55CHL1  H24B 6540   2.745   0.308   8.899 -0.6481 -0.7882 -0.5537
   55CHL1   C25 6541   2.873   0.176   8.777  0.1434 -0.3186 -1.0564
   55CHL1   H25 6542   2.929   0.084   8.804 -0.3525  0.3005  2.6510
   55CHL1   C26 6543   2.762   0.134   8.679 -0.1591  0.4068  0.1144
   55CHL1  H26A 6544   2.704   0.227   8.658 -2.2414 -0.9428 -0.3449
   55CHL1  H26B 6545   2.813   0.107   8.584  1.0931  0.2146  0.8234
   55CHL1  H26C 6546   2.689   0.066   8.727  0.0023  0.5253  0.5326
   55CHL1   C27 6547   2.978   0.275   8.720 -0.2071 -1.1872 -0.7653
   55CHL1  H27A 6548   3.080   0.277   8.763  0.0667  1.1614 -1.3789
   55CHL1  H27B 6549   2.995   0.270   8.610 -0.1373  2.5998 -1.0426
   55CHL1  H27C 6550   2.925   0.369   8.745 -0.8787 -1.0179 -2.6535
   56CHL1    C3 6551   1.739   5.263  10.217 -0.4689 -0.0263  0.2935
   56CHL1    H3 6552   1.809   5.349  10.226 -2.0251  1.2914  0.2652
   56CHL1    O3 6553   1.719   5.229  10.349  0.3267 -0.0792 -0.1872
   56CHL1   H3' 6554   1.688   5.140  10.332  1.7548 -0.6285 -0.0759
   56CHL1    C4 6555   1.602   5.300  10.149  0.0210  0.4538  0.3631
   56CHL1   H4A 6556   1.537   5.210  10.160 -0.0124  0.5597  1.0630
   56CHL1   H4B 6557   1.545   5.378  10.203 -0.4096  1.4816 -1.4712
   56CHL1    C5 6558   1.617   5.338   9.999  0.4032  0.5924 -0.1618
   56CHL1    C6 6559   1.582   5.464   9.957  0.4249 -0.6762  0.2080
   56CHL1    H6 6560   1.553   5.546  10.025  0.6483  1.6049 -2.2654
   56CHL1    C7 6561   1.584   5.507   9.814  0.2731 -0.0017 -0.5067
   56CHL1   H7A 6562   1.481   5.534   9.781 -1.2718 -1.0332  2.9179
   56CHL1   H7B 6563   1.660   5.585   9.793 -0.4103  0.5864 -0.8229
   56CHL1    C8 6564   1.621   5.387   9.721  0.1393 -0.4125  0.8578
   56CHL1    H8 6565   1.528   5.325   9.718  1.1010 -1.9576  1.8094
   56CHL1   C14 6566   1.670   5.428   9.584  0.5201  0.0629  0.2883
   56CHL1   H14 6567   1.758   5.494   9.602 -0.2707  1.0789  0.5433
   56CHL1   C15 6568   1.578   5.526   9.505  0.0826  0.8159 -0.4179
   56CHL1  H15A 6569   1.480   5.477   9.489  1.5283 -2.5018  0.0317
   56CHL1  H15B 6570   1.575   5.630   9.545  2.4085 -0.2327  2.9440
   56CHL1   C16 6571   1.638   5.514   9.358 -0.1716  0.1987  0.2763
   56CHL1  H16A 6572   1.546   5.501   9.298 -1.5025  0.1321  2.2144
   56CHL1  H16B 6573   1.698   5.601   9.324  2.3465 -1.2904  0.6777
   56CHL1   C17 6574   1.729   5.394   9.346  0.7053  0.0175 -1.0206
   56CHL1   H17 6575   1.831   5.436   9.359 -0.2112  1.8864  0.4463
   56CHL1   C13 6576   1.701   5.314   9.481  0.2044 -0.0929  0.2978
   56CHL1   C18 6577   1.577   5.228   9.459  0.4094 -0.1362  0.2318
   56CHL1  H18A 6578   1.537   5.193   9.557 -0.9513  0.6213 -0.0316
   56CHL1  H18B 6579   1.498   5.288   9.410 -0.5454  0.2672  2.1909
   56CHL1  H18C 6580   1.593   5.136   9.399 -2.9353 -0.1640 -0.7950
   56CHL1   C12 6581   1.822   5.233   9.541  0.1341 -0.7151 -0.2758
   56CHL1  H12A 6582   1.857   5.146   9.480 -0.9176 -0.7881 -0.8010
   56CHL1  H12B 6583   1.916   5.291   9.547  0.8470 -1.7667 -0.8032
   56CHL1   C11 6584   1.783   5.180   9.683  0.5616  0.3147 -0.3287
   56CHL1  H11A 6585   1.709   5.100   9.663  0.7321 -0.0424  0.4212
   56CHL1  H11B 6586   1.872   5.136   9.732  0.6657  1.5756  0.6928
   56CHL1    C9 6587   1.726   5.287   9.780  1.0939  1.2353 -0.3089
   56CHL1    H9 6588   1.823   5.340   9.790  1.4352  0.4883  0.4740
   56CHL1   C10 6589   1.687   5.229   9.920  1.0494 -0.3975  0.5517
   56CHL1   C19 6590   1.583   5.108   9.897  0.0361 -0.1829  0.2233
   56CHL1  H19A 6591   1.619   5.033   9.823  0.6517  0.6524 -0.3398
   56CHL1  H19B 6592   1.569   5.050   9.991  1.5054 -2.1332 -0.6879
   56CHL1  H19C 6593   1.487   5.145   9.856  1.0240 -0.3429 -2.4359
   56CHL1    C1 6594   1.811   5.173   9.992 -0.3944  0.2889  0.2092
   56CHL1   H1A 6595   1.836   5.078   9.941 -2.3012 -0.4588  0.5688
   56CHL1   H1B 6596   1.899   5.241   9.985  0.5772 -0.7079  2.0975
   56CHL1    C2 6597   1.797   5.140  10.144  0.6438 -0.6661  0.4254
   56CHL1   H2A 6598   1.896   5.119  10.190  1.0568  0.6642  0.2083
   56CHL1   H2B 6599   1.734   5.049  10.154  1.4616 -1.0540  2.3772
   56CHL1   C20 6600   1.727   5.329   9.203 -0.3499 -0.3388 -0.8200
   56CHL1   H20 6601   1.626   5.285   9.187 -0.3239 -0.4871 -0.5798
   56CHL1   C21 6602   1.821   5.207   9.200 -0.1806 -0.2864  0.3929
   56CHL1  H21A 6603   1.799   5.138   9.284  0.5952  0.5462  1.3201
   56CHL1  H21B 6604   1.928   5.235   9.215 -0.5369  1.3567  0.0729
   56CHL1  H21C 6605   1.804   5.157   9.103 -1.8642  2.5178 -0.8901
   56CHL1   C22 6606   1.758   5.431   9.088 -0.2671 -0.8093  0.1354
   56CHL1  H22A 6607   1.682   5.512   9.085  1.2174  0.6576 -2.8121
   56CHL1  H22B 6608   1.858   5.475   9.107 -0.2547 -0.0209 -1.5609
   56CHL1   C23 6609   1.749   5.366   8.952 -0.4430 -0.5363  0.2469
   56CHL1  H23A 6610   1.830   5.291   8.940  1.9713  1.6210  1.9502
   56CHL1  H23B 6611   1.649   5.318   8.944 -1.8061  2.1545 -0.0427
   56CHL1   C24 6612   1.747   5.464   8.827  0.2428  0.5868  0.1013
   56CHL1  H24A 6613   1.676   5.547   8.845  0.9446  1.3728 -0.6076
   56CHL1  H24B 6614   1.845   5.517   8.818 -0.4457  1.6330 -1.8491
   56CHL1   C25 6615   1.712   5.388   8.696 -0.5886  0.2030 -0.3365
   56CHL1   H25 6616   1.608   5.348   8.704 -0.6515  0.5823  0.8417
   56CHL1   C26 6617   1.711   5.481   8.575 -0.0715 -0.2507  0.3748
   56CHL1  H26A 6618   1.652   5.573   8.592  0.9121  0.8237 -1.6801
   56CHL1  H26B 6619   1.816   5.511   8.558  0.0230  1.7921  3.7722
   56CHL1  H26C 6620   1.666   5.451   8.477  0.5576  0.9691 -0.3137
   56CHL1   C27 6621   1.811   5.269   8.667 -0.3006  0.4326  0.3649
   56CHL1  H27A 6622   1.765   5.201   8.593  2.5539 -0.4877 -0.7002
   56CHL1  H27B 6623   1.906   5.306   8.623  0.6483 -0.8918  1.2220
   56CHL1  H27C 6624   1.840   5.210   8.757 -1.1117  1.5347  1.3694
   57CHL1    C3 6625   4.926   1.384   9.951  0.0689  0.1892  0.6107
   57CHL1    H3 6626   5.032   1.411   9.931  0.2621  1.1914  2.7240
   57CHL1    O3 6627   4.903   1.383  10.096 -0.2052  0.3505 -0.4569
   57CHL1   H3' 6628   4.808   1.378  10.105 -0.0603 -0.6522  0.7361
   57CHL1    C4 6629   4.829   1.492   9.895  0.1835  0.7431 -0.6098
   57CHL1   H4A 6630   4.730   1.449   9.921  0.3320  2.1081  2.7163
   57CHL1   H4B 6631   4.840   1.592   9.943 -0.1748 -0.6764  2.6361
   57CHL1    C5 6632   4.834   1.490   9.744  0.0308 -0.5622  0.0966
   57CHL1    C6 6633   4.833   1.605   9.682  1.0348  0.5135 -0.1524
   57CHL1    H6 6634   4.840   1.698   9.739 -0.2606 -0.4440  1.6649
   57CHL1    C7 6635   4.810   1.622   9.537  0.6508  0.0732 -0.1079
   57CHL1   H7A 6636   4.726   1.695   9.529  0.2899 -0.3934 -0.6490
   57CHL1   H7B 6637   4.891   1.688   9.500  0.8400 -0.7700 -1.2575
   57CHL1    C8 6638   4.786   1.488   9.459  0.0425  0.3692 -0.4213
   57CHL1    H8 6639   4.678   1.469   9.470  0.1850  0.1350  0.6380
   57CHL1   C14 6640   4.822   1.496   9.316  0.1595 -0.0670 -0.3241
   57CHL1   H14 6641   4.932   1.513   9.323 -0.2871  2.5659  1.8042
   57CHL1   C15 6642   4.776   1.621   9.233  0.1689  0.2450 -0.0161
   57CHL1  H15A 6643   4.669   1.641   9.257 -0.3838 -1.5685 -0.7806
   57CHL1  H15B 6644   4.836   1.710   9.260  0.9839  0.3786 -2.1225
   57CHL1   C16 6645   4.801   1.576   9.091  0.9571 -0.0406 -0.6412
   57CHL1  H16A 6646   4.713   1.581   9.024  2.0183 -2.0252 -2.3307
   57CHL1  H16B 6647   4.873   1.654   9.059 -0.3350  1.0130 -1.0508
   57CHL1   C17 6648   4.852   1.424   9.096 -0.4943 -0.4950  0.0533
   57CHL1   H17 6649   4.963   1.432   9.102 -0.6428  0.7096  1.6513
   57CHL1   C13 6650   4.808   1.366   9.228 -0.0399 -0.0047 -0.4890
   57CHL1   C18 6651   4.664   1.324   9.219 -0.3815 -0.2501  0.4954
   57CHL1  H18A 6652   4.608   1.402   9.164  2.1241  0.2614 -1.5766
   57CHL1  H18B 6653   4.667   1.227   9.164  1.5994 -0.6776  1.2379
   57CHL1  H18C 6654   4.618   1.299   9.317 -1.5720 -0.5242 -0.1217
   57CHL1   C12 6655   4.899   1.263   9.293 -0.3852  0.6002 -0.3863
   57CHL1  H12A 6656   4.887   1.169   9.235  1.2676  0.8109 -1.1311
   57CHL1  H12B 6657   5.006   1.293   9.284 -0.4026  0.2135 -2.3609
   57CHL1   C11 6658   4.865   1.245   9.443  0.1689 -0.3472 -0.5113
   57CHL1  H11A 6659   4.764   1.199   9.453  0.8027 -1.4579  1.2206
   57CHL1  H11B 6660   4.936   1.170   9.483  0.6329 -0.3347 -1.3035
   57CHL1    C9 6661   4.864   1.373   9.532  0.4508  0.1638  0.9669
   57CHL1    H9 6662   4.969   1.410   9.531 -0.3096  2.5486 -1.5561
   57CHL1   C10 6663   4.825   1.353   9.673  0.2093  0.0794  0.1176
   57CHL1   C19 6664   4.677   1.300   9.682 -0.1205 -0.3183  0.3924
   57CHL1  H19A 6665   4.674   1.193   9.653 -1.6154  0.4652 -2.6716
   57CHL1  H19B 6666   4.646   1.314   9.788 -1.8080 -0.3417 -0.0791
   57CHL1  H19C 6667   4.606   1.344   9.609  1.6214  1.8491 -0.1205
   57CHL1    C1 6668   4.916   1.245   9.745 -0.1244  0.4484  0.2670
   57CHL1   H1A 6669   4.901   1.143   9.705  2.1972  0.1303  0.0712
   57CHL1   H1B 6670   5.024   1.267   9.731 -0.0407 -0.1586 -0.0850
   57CHL1    C2 6671   4.895   1.247   9.900  0.0937  0.5787 -0.0203
   57CHL1   H2A 6672   4.962   1.170   9.944  0.8856  0.3946 -1.4924
   57CHL1   H2B 6673   4.790   1.233   9.933  0.2584 -0.7849 -0.0258
   57CHL1   C20 6674   4.823   1.354   8.966 -0.2167  0.4549  0.3961
   57CHL1   H20 6675   4.713   1.349   8.952 -0.1821  4.0280 -2.6213
   57CHL1   C21 6676   4.889   1.214   8.957  0.3999 -0.8009  0.3341
   57CHL1  H21A 6677   4.876   1.168   8.857 -0.4253  2.3967 -1.1473
   57CHL1  H21B 6678   4.850   1.146   9.036 -0.7739  0.7709  1.1501
   57CHL1  H21C 6679   4.998   1.218   8.979  0.2917  0.7898  0.7017
   57CHL1   C22 6680   4.873   1.425   8.830 -0.0583 -0.4232 -0.5008
   57CHL1  H22A 6681   4.861   1.535   8.841 -0.3079 -0.3674 -1.2685
   57CHL1  H22B 6682   4.982   1.409   8.815  0.2593  2.2747 -1.6546
   57CHL1   C23 6683   4.790   1.380   8.710  0.3518  0.8761 -0.2449
   57CHL1  H23A 6684   4.802   1.271   8.696 -0.1690  0.6015  1.2435
   57CHL1  H23B 6685   4.688   1.381   8.753 -0.1669 -2.2332 -1.2088
   57CHL1   C24 6686   4.819   1.456   8.584 -0.1896  0.1899 -0.1819
   57CHL1  H24A 6687   4.794   1.562   8.603  1.9936  0.8629 -0.7717
   57CHL1  H24B 6688   4.924   1.450   8.548 -0.3645 -1.0604 -0.5207
   57CHL1   C25 6689   4.743   1.404   8.453 -0.3608  0.3956  0.0700
   57CHL1   H25 6690   4.743   1.293   8.453  1.1980  0.3049 -2.5401
   57CHL1   C26 6691   4.589   1.436   8.455 -0.4072 -0.6456  0.2650
   57CHL1  H26A 6692   4.541   1.379   8.372 -1.1169  1.9048 -1.1891
   57CHL1  H26B 6693   4.545   1.405   8.552 -0.5654 -1.3011 -0.0055
   57CHL1  H26C 6694   4.574   1.545   8.446 -1.7335 -0.9447 -2.4960
   57CHL1   C27 6695   4.808   1.464   8.330  0.6827 -0.5564 -0.4039
   57CHL1  H27A 6696   4.909   1.418   8.326  0.4480 -0.9824 -1.7292
   57CHL1  H27B 6697   4.756   1.437   8.236  1.6160 -0.3265 -0.9931
   57CHL1  H27C 6698   4.815   1.574   8.340  2.3652 -0.7343  0.7545
   58CHL1    C3 6699   6.509   6.768   9.996 -0.1791 -0.2364  0.1615
   58CHL1    H3 6700   6.486   6.875   9.973  3.3067  0.5126 -0.3702
   58CHL1    O3 6701   6.517   6.749  10.137  0.3085  0.2350  0.0487
   58CHL1   H3' 6702   6.560   6.663  10.143 -1.2112 -0.5767 -0.0189
   58CHL1    C4 6703   6.398   6.668   9.948 -0.0376  0.1717  0.1229
   58CHL1   H4A 6704   6.427   6.570   9.991 -1.3236  0.6876  2.3054
   58CHL1   H4B 6705   6.303   6.698   9.997 -0.3284 -1.6278  0.7451
   58CHL1    C5 6706   6.406   6.652   9.801  0.2822  0.0449  0.7308
   58CHL1    C6 6707   6.295   6.671   9.726 -0.7488 -0.4406 -0.7322
   58CHL1    H6 6708   6.201   6.689   9.779  0.4585  0.5305  1.1530
   58CHL1    C7 6709   6.292   6.659   9.578  0.2081 -0.0176  0.7499
   58CHL1   H7A 6710   6.211   6.591   9.545  1.4789 -0.2963 -2.0927
   58CHL1   H7B 6711   6.258   6.754   9.530  1.8081 -0.0561 -0.5747
   58CHL1    C8 6712   6.418   6.599   9.508  0.7147 -0.6779 -1.1838
   58CHL1    H8 6713   6.403   6.490   9.519 -1.7445 -0.2163  1.1826
   58CHL1   C14 6714   6.421   6.628   9.357  0.6953  0.1686 -0.2797
   58CHL1   H14 6715   6.437   6.737   9.345  0.9824  0.1701  0.0949
   58CHL1   C15 6716   6.287   6.584   9.286  0.1578  0.0233  0.5734
   58CHL1  H15A 6717   6.257   6.488   9.332  0.6951  0.9794  3.1148
   58CHL1  H15B 6718   6.212   6.665   9.305  0.0530 -0.7435  4.2554
   58CHL1   C16 6719   6.339   6.581   9.139 -0.1979 -0.3079  0.2432
   58CHL1  H16A 6720   6.307   6.490   9.084  0.7897  0.1371 -1.1092
   58CHL1  H16B 6721   6.295   6.672   9.094  1.0131  1.7471  2.9017
   58CHL1   C17 6722   6.501   6.597   9.138 -0.3524  0.5238 -0.2599
   58CHL1   H17 6723   6.531   6.703   9.127 -1.9282  0.6960 -4.7275
   58CHL1   C13 6724   6.535   6.554   9.285  0.9610  0.2378  0.4372
   58CHL1   C18 6725   6.524   6.399   9.302 -0.4672  1.4222  0.4917
   58CHL1  H18A 6726   6.519   6.355   9.404 -2.8725  0.6926  0.1017
   58CHL1  H18B 6727   6.437   6.359   9.246 -0.7289  1.6309  0.7464
   58CHL1  H18C 6728   6.620   6.354   9.267 -0.1101  1.1806  1.7278
   58CHL1   C12 6729   6.663   6.606   9.351 -0.2965  0.8453  0.7360
   58CHL1  H12A 6730   6.753   6.553   9.315  0.1849  2.7748 -1.0993
   58CHL1  H12B 6731   6.679   6.715   9.333  0.0728  0.6725 -0.0181
   58CHL1   C11 6732   6.666   6.584   9.500 -0.7026  0.0813 -0.1109
   58CHL1  H11A 6733   6.662   6.474   9.513 -1.1840  0.0634 -0.3687
   58CHL1  H11B 6734   6.759   6.625   9.543 -2.2254 -1.1851  5.1263
   58CHL1    C9 6735   6.544   6.648   9.570  0.3653 -0.0569  0.0566
   58CHL1    H9 6736   6.537   6.757   9.547 -0.7425  0.2202  1.5234
   58CHL1   C10 6737   6.543   6.627   9.724  0.5020  0.5585 -0.5918
   58CHL1   C19 6738   6.587   6.479   9.757  0.1531 -0.0736 -0.7504
   58CHL1  H19A 6739   6.594   6.451   9.864 -1.2389  0.0859 -0.5983
   58CHL1  H19B 6740   6.520   6.406   9.706  1.0120  1.2360 -3.9972
   58CHL1  H19C 6741   6.688   6.458   9.715  0.7270 -0.0496  0.5783
   58CHL1    C1 6742   6.645   6.722   9.782  0.3540  0.0429 -0.5374
   58CHL1   H1A 6743   6.745   6.708   9.737  2.4728  1.6667  3.2198
   58CHL1   H1B 6744   6.608   6.823   9.754 -1.4334 -0.4615 -0.1541
   58CHL1    C2 6745   6.647   6.736   9.936 -0.2529  0.6040 -0.0244
   58CHL1   H2A 6746   6.736   6.802   9.947  2.4111 -2.7826  0.2418
   58CHL1   H2B 6747   6.654   6.633   9.976 -2.4046  0.3777 -0.1115
   58CHL1   C20 6748   6.561   6.519   9.025  0.0723 -0.6877  0.6636
   58CHL1   H20 6749   6.544   6.410   9.027 -0.7441 -0.5604  1.5215
   58CHL1   C21 6750   6.712   6.542   9.034  0.1251 -0.1657  0.5039
   58CHL1  H21A 6751   6.766   6.523   8.939 -0.5489  1.0992 -0.1501
   58CHL1  H21B 6752   6.750   6.458   9.097  1.8019 -0.6197 -1.0103
   58CHL1  H21C 6753   6.747   6.640   9.072 -1.4598  0.0261  1.5509
   58CHL1   C22 6754   6.511   6.572   8.887  0.1856 -1.0378 -0.7170
   58CHL1  H22A 6755   6.400   6.572   8.887  0.1709  0.3771 -1.0645
   58CHL1  H22B 6756   6.543   6.678   8.887 -1.3297 -0.5424  1.0772
   58CHL1   C23 6757   6.535   6.507   8.748 -0.6976 -0.3617  0.5913
   58CHL1  H23A 6758   6.474   6.554   8.668  0.3001  0.9290  0.5500
   58CHL1  H23B 6759   6.643   6.519   8.721 -0.4180 -0.6950  1.5184
   58CHL1   C24 6760   6.501   6.356   8.741  0.0291 -0.1586  0.5793
   58CHL1  H24A 6761   6.578   6.295   8.793  0.6943  2.1085  2.4359
   58CHL1  H24B 6762   6.409   6.349   8.802 -2.5521  3.0946 -2.4826
   58CHL1   C25 6763   6.455   6.314   8.602 -0.4564 -0.2293 -0.2237
   58CHL1   H25 6764   6.404   6.399   8.551 -0.6884  0.9309  1.8585
   58CHL1   C26 6765   6.580   6.301   8.498 -1.0034 -0.1057  0.7144
   58CHL1  H26A 6766   6.657   6.226   8.525 -1.1432 -0.8976 -1.0127
   58CHL1  H26B 6767   6.544   6.278   8.396 -1.1075 -1.8641  1.1216
   58CHL1  H26C 6768   6.635   6.398   8.491 -1.0484 -0.1181  0.1776
   58CHL1   C27 6769   6.358   6.191   8.605  0.4042 -0.6595  0.4385
   58CHL1  H27A 6770   6.256   6.233   8.613  0.9837  2.3795 -4.5285
   58CHL1  H27B 6771   6.353   6.130   8.513  2.0407 -0.0642 -0.0845
   58CHL1  H27C 6772   6.379   6.120   8.689 -3.6264  0.0211  2.2820
   59CHL1    C3 6773   6.080   6.243  10.318  0.4328 -0.2395  0.2516
   59CHL1    H3 6774   6.174   6.184  10.319 -0.9374 -2.8282 -3.0707
   59CHL1    O3 6775   6.077   6.310  10.441  0.3014  0.0808  0.6300
   59CHL1   H3' 6776   5.987   6.342  10.456  0.3914  0.0345  1.3135
   59CHL1    C4 6777   6.084   6.337  10.197 -0.5129  0.2013  0.7628
   59CHL1   H4A 6778   6.012   6.420  10.213  0.6386  0.9613  2.3314
   59CHL1   H4B 6779   6.186   6.381  10.199 -0.6184  0.7523 -2.0655
   59CHL1    C5 6780   6.059   6.272  10.068  0.6004  0.2272  0.3410
   59CHL1    C6 6781   6.136   6.302   9.961 -0.4761  0.0709  0.1952
   59CHL1    H6 6782   6.211   6.381   9.976 -1.3080  0.4298  3.0932
   59CHL1    C7 6783   6.119   6.242   9.820  0.1019 -0.3863  0.0207
   59CHL1   H7A 6784   6.131   6.328   9.750 -1.0278  0.9716  1.4452
   59CHL1   H7B 6785   6.204   6.173   9.797 -2.4395 -3.0729 -2.0459
   59CHL1    C8 6786   5.979   6.184   9.801 -0.4612  0.0277 -0.3066
   59CHL1    H8 6787   5.901   6.263   9.794  1.3733  1.8385 -1.3066
   59CHL1   C14 6788   5.972   6.114   9.672  0.2581 -0.9353  0.1304
   59CHL1   H14 6789   6.062   6.050   9.676  1.6604  0.9598  0.3455
   59CHL1   C15 6790   6.002   6.196   9.546  0.4407  0.7225  0.4729
   59CHL1  H15A 6791   5.950   6.295   9.543  1.0021  0.9908 -1.1059
   59CHL1  H15B 6792   6.111   6.216   9.544  0.5278  0.3131 -2.0194
   59CHL1   C16 6793   5.945   6.105   9.436 -0.0270  0.7989 -0.3079
   59CHL1  H16A 6794   5.864   6.159   9.384  1.5486  0.8751 -2.8474
   59CHL1  H16B 6795   6.022   6.082   9.359 -0.5963 -1.3900 -0.2962
   59CHL1   C17 6796   5.876   5.985   9.507 -0.0207 -0.1813 -0.6473
   59CHL1   H17 6797   5.958   5.912   9.522  1.2665  1.2755 -0.4164
   59CHL1   C13 6798   5.848   6.031   9.656 -0.4684 -0.3534 -0.2356
   59CHL1   C18 6799   5.715   6.110   9.651 -0.1838 -0.3867  0.0291
   59CHL1  H18A 6800   5.706   6.154   9.753  0.6068 -2.1642  0.9131
   59CHL1  H18B 6801   5.711   6.193   9.577 -0.8648 -0.8383 -0.4513
   59CHL1  H18C 6802   5.627   6.049   9.622 -0.1609  0.9361 -3.3313
   59CHL1   C12 6803   5.857   5.922   9.765 -0.6057  0.3292  0.1512
   59CHL1  H12A 6804   5.777   5.845   9.756  0.1082 -0.5182  0.8203
   59CHL1  H12B 6805   5.954   5.868   9.756  0.3393  1.7959  1.0435
   59CHL1   C11 6806   5.852   5.978   9.909 -0.9156 -0.2585 -0.3734
   59CHL1  H11A 6807   5.751   6.003   9.949  0.0249  1.6635  0.9596
   59CHL1  H11B 6808   5.874   5.896   9.980 -1.4405  1.2449  1.6243
   59CHL1    C9 6809   5.959   6.088   9.925 -0.0869  0.4633 -0.1634
   59CHL1    H9 6810   6.055   6.031   9.926 -0.1170  0.4096  0.5179
   59CHL1   C10 6811   5.941   6.168  10.058 -0.5595  0.3473  0.4103
   59CHL1   C19 6812   5.803   6.245  10.054  0.5291 -0.0870 -0.0383
   59CHL1  H19A 6813   5.801   6.315   9.967  4.5633  1.1140  0.6222
   59CHL1  H19B 6814   5.717   6.175  10.056 -0.4342  1.0172 -0.9798
   59CHL1  H19C 6815   5.788   6.310  10.143 -1.1573 -1.5175  0.7861
   59CHL1    C1 6816   5.945   6.063  10.175  0.6990 -0.2257 -0.3217
   59CHL1   H1A 6817   5.851   6.004  10.184  0.3843  0.2730 -0.3158
   59CHL1   H1B 6818   6.024   5.986  10.159  1.5730  0.9338 -1.8357
   59CHL1    C2 6819   5.961   6.141  10.308  0.1019  0.1044 -0.3864
   59CHL1   H2A 6820   5.984   6.059  10.380 -1.3846  1.1595  1.3755
   59CHL1   H2B 6821   5.872   6.198  10.342  1.1010  0.3574  2.0193
   59CHL1   C20 6822   5.766   5.922   9.419 -0.0372 -0.3773  0.1405
   59CHL1   H20 6823   5.678   5.989   9.407  2.0417  2.1408 -2.4480
   59CHL1   C21 6824   5.713   5.786   9.482 -0.5516 -0.6871 -1.1237
   59CHL1  H21A 6825   5.645   5.732   9.412 -1.7317  1.3428 -1.6196
   59CHL1  H21B 6826   5.657   5.818   9.572  1.3734  1.6122 -0.6526
   59CHL1  H21C 6827   5.800   5.722   9.508 -0.7516  0.0724  1.6867
   59CHL1   C22 6828   5.822   5.887   9.283 -0.1988  0.3424 -0.3904
   59CHL1  H22A 6829   5.850   5.979   9.229  1.6361 -0.4158 -0.8011
   59CHL1  H22B 6830   5.915   5.831   9.308 -0.3211  0.3231  0.0367
   59CHL1   C23 6831   5.737   5.810   9.185 -0.2488 -0.1717  0.1183
   59CHL1  H23A 6832   5.733   5.699   9.199  0.4642 -0.6356 -2.7335
   59CHL1  H23B 6833   5.637   5.857   9.185  0.5255  1.6016  1.8401
   59CHL1   C24 6834   5.794   5.831   9.042  0.0989  0.0960 -0.7042
   59CHL1  H24A 6835   5.810   5.939   9.019  2.7729  0.1637  1.0034
   59CHL1  H24B 6836   5.891   5.776   9.042  0.2298  0.3247 -1.3338
   59CHL1   C25 6837   5.718   5.763   8.930 -0.3988  0.1785 -0.1307
   59CHL1   H25 6838   5.727   5.653   8.941  2.3949  0.4984  1.9323
   59CHL1   C26 6839   5.578   5.807   8.923 -0.5354 -0.2494  0.7685
   59CHL1  H26A 6840   5.516   5.745   8.855 -2.3991  1.2076  1.0599
   59CHL1  H26B 6841   5.527   5.787   9.020  2.1100 -1.0141  2.1258
   59CHL1  H26C 6842   5.579   5.915   8.896  3.1898 -0.3872 -0.1694
   59CHL1   C27 6843   5.786   5.789   8.788 -0.7443  0.1617  0.1720
   59CHL1  H27A 6844   5.741   5.742   8.697  0.9153 -0.2475 -0.4845
   59CHL1  H27B 6845   5.800   5.898   8.776  0.7865  0.1559  1.5364
   59CHL1  H27C 6846   5.883   5.734   8.786  1.1025  3.2194 -0.9504
   60CHL1    C3 6847   2.736   4.649  10.418 -0.3910 -0.3370 -0.0679
   60CHL1    H3 6848   2.846   4.663  10.423 -0.0990 -2.4349  0.4907
   60CHL1    O3 6849   2.683   4.610  10.548 -0.4062 -0.2592 -0.2018
   60CHL1   H3' 6850   2.609   4.553  10.528 -1.1351  0.3163  0.7454
   60CHL1    C4 6851   2.669   4.776  10.375 -0.3165 -0.2216 -0.2645
   60CHL1   H4A 6852   2.559   4.765  10.389 -0.3989  0.3394 -0.4745
   60CHL1   H4B 6853   2.703   4.857  10.443  2.7176 -2.0428  0.6023
   60CHL1    C5 6854   2.695   4.818  10.231  0.1463  0.4608  0.3131
   60CHL1    C6 6855   2.744   4.941  10.202  0.6759  1.3731 -0.6979
   60CHL1    H6 6856   2.762   5.003  10.291  0.5880 -0.2929  0.5395
   60CHL1    C7 6857   2.753   4.989  10.056  0.0565 -0.0335  0.4443
   60CHL1   H7A 6858   2.702   5.085  10.037 -1.4764 -1.4495 -3.6211
   60CHL1   H7B 6859   2.861   5.002  10.033  0.3830 -0.4268  1.6396
   60CHL1    C8 6860   2.704   4.885   9.946  0.0828  0.3031  0.1307
   60CHL1    H8 6861   2.593   4.895   9.943 -0.2443 -2.5954 -1.9885
   60CHL1   C14 6862   2.772   4.911   9.814 -0.2563 -0.0177 -0.8462
   60CHL1   H14 6863   2.880   4.884   9.823 -0.4938 -0.7221  0.0530
   60CHL1   C15 6864   2.771   5.057   9.767 -0.4570 -0.0278  0.2339
   60CHL1  H15A 6865   2.672   5.104   9.781 -0.4817  0.2039 -0.6292
   60CHL1  H15B 6866   2.857   5.120   9.799  0.0120  1.0118 -2.7016
   60CHL1   C16 6867   2.789   5.052   9.617 -0.5378  0.4145  0.6385
   60CHL1  H16A 6868   2.692   5.090   9.577 -1.3446  1.0060  2.9975
   60CHL1  H16B 6869   2.878   5.105   9.578  0.0548 -1.7408 -1.1400
   60CHL1   C17 6870   2.804   4.905   9.579 -0.0960  0.0259 -0.6761
   60CHL1   H17 6871   2.911   4.873   9.588 -0.9219 -2.4023  1.6352
   60CHL1   C13 6872   2.723   4.828   9.693  0.3188  0.3336 -0.3103
   60CHL1   C18 6873   2.569   4.846   9.676 -0.0313 -0.4282  0.4589
   60CHL1  H18A 6874   2.535   4.776   9.598  1.9458  0.9143 -1.7505
   60CHL1  H18B 6875   2.515   4.831   9.772 -2.4949 -0.0941 -0.8082
   60CHL1  H18C 6876   2.535   4.945   9.637  2.3577  0.4351  0.3631
   60CHL1   C12 6877   2.754   4.680   9.726 -0.0113  0.1642 -0.2181
   60CHL1  H12A 6878   2.705   4.617   9.649 -0.7541  1.9643 -1.2806
   60CHL1  H12B 6879   2.864   4.666   9.721 -0.0298 -0.9224  1.4774
   60CHL1   C11 6880   2.702   4.634   9.871 -0.5120  0.7345  0.9575
   60CHL1  H11A 6881   2.594   4.620   9.852 -0.0263 -4.2350  0.5876
   60CHL1  H11B 6882   2.750   4.536   9.890 -1.1844  0.4071  0.9758
   60CHL1    C9 6883   2.731   4.737   9.980 -0.8024 -0.6906 -0.5144
   60CHL1    H9 6884   2.840   4.731   9.999 -0.9952 -1.1413  0.5718
   60CHL1   C10 6885   2.680   4.706  10.124  0.2235 -0.4250 -0.2109
   60CHL1   C19 6886   2.531   4.681  10.104  0.2021  0.6404  0.2246
   60CHL1  H19A 6887   2.484   4.746  10.028  2.3101  0.8185 -0.9932
   60CHL1  H19B 6888   2.505   4.575  10.081  4.0390 -0.4120 -0.0056
   60CHL1  H19C 6889   2.468   4.693  10.195 -0.3620  2.5821 -0.3805
   60CHL1    C1 6890   2.744   4.572  10.171 -0.1467  0.1915  1.2004
   60CHL1   H1A 6891   2.718   4.485  10.108 -0.6862  0.4629  1.0417
   60CHL1   H1B 6892   2.853   4.593  10.162  0.2065 -2.0231 -0.3451
   60CHL1    C2 6893   2.713   4.535  10.319  0.3298 -0.6452 -0.0735
   60CHL1   H2A 6894   2.777   4.450  10.351 -0.5683 -0.5075  2.2285
   60CHL1   H2B 6895   2.604   4.517  10.308  0.5148 -1.0708 -1.5285
   60CHL1   C20 6896   2.757   4.875   9.438 -0.2958 -0.0499  0.0810
   60CHL1   H20 6897   2.648   4.860   9.445 -0.2315 -1.1460 -1.0225
   60CHL1   C21 6898   2.812   4.735   9.382 -0.6320 -0.0673 -0.3857
   60CHL1  H21A 6899   2.781   4.719   9.276  1.1442  1.3423 -1.1780
   60CHL1  H21B 6900   2.770   4.650   9.439  1.9691 -0.5698  0.9287
   60CHL1  H21C 6901   2.922   4.746   9.389 -0.6071  0.5256 -1.3832
   60CHL1   C22 6902   2.788   4.992   9.338 -0.4236  0.3760 -0.4566
   60CHL1  H22A 6903   2.721   4.966   9.254 -1.3927 -0.8584  0.6389
   60CHL1  H22B 6904   2.748   5.093   9.360 -0.2157  0.3299  0.1540
   60CHL1   C23 6905   2.939   5.006   9.296 -0.9275  0.0629 -0.2616
   60CHL1  H23A 6906   3.018   5.006   9.374 -1.4272 -1.0426  0.2629
   60CHL1  H23B 6907   2.954   4.909   9.244  1.1464  0.8576 -1.2506
   60CHL1   C24 6908   2.970   5.126   9.201 -0.3085  0.0386  0.0398
   60CHL1  H24A 6909   2.948   5.216   9.261 -2.4537 -1.4516  1.6679
   60CHL1  H24B 6910   3.079   5.113   9.185 -0.1249 -0.5383  1.5758
   60CHL1   C25 6911   2.888   5.116   9.070 -0.2234  0.0465 -0.2545
   60CHL1   H25 6912   2.784   5.152   9.085  0.2810  0.3715  3.2591
   60CHL1   C26 6913   2.937   5.222   8.975 -0.1214 -0.6032 -0.6380
   60CHL1  H26A 6914   2.949   5.318   9.029 -2.0923 -1.4324  1.4303
   60CHL1  H26B 6915   3.034   5.182   8.937  1.2303  2.4748 -0.7042
   60CHL1  H26C 6916   2.862   5.243   8.897 -1.5055 -0.4993  0.6735
   60CHL1   C27 6917   2.884   4.987   9.006 -0.1764  0.3185 -0.4595
   60CHL1  H27A 6918   2.835   4.993   8.906 -0.8448  1.0484 -0.0974
   60CHL1  H27B 6919   2.984   4.944   8.983  0.7164  1.8870  0.3458
   60CHL1  H27C 6920   2.829   4.911   9.066  3.0754 -0.5658  1.6553
   61CHL1    C3 6921   2.266   4.236  10.206  0.1520  0.8745 -0.2051
   61CHL1    H3 6922   2.287   4.133  10.171 -0.5865  0.6887 -0.1229
   61CHL1    O3 6923   2.263   4.237  10.350 -0.2727 -0.3170  0.3149
   61CHL1   H3' 6924   2.251   4.330  10.373  1.7995  0.0545  0.0658
   61CHL1    C4 6925   2.365   4.333  10.162 -0.9275  0.0410 -0.8411
   61CHL1   H4A 6926   2.339   4.428  10.214 -0.1615  0.7361 -1.6981
   61CHL1   H4B 6927   2.462   4.303  10.207  0.3815  2.0005 -2.1907
   61CHL1    C5 6928   2.367   4.338  10.010 -0.7586 -0.7914  0.0164
   61CHL1    C6 6929   2.484   4.310   9.950  0.0551 -0.3099  0.0021
   61CHL1    H6 6930   2.568   4.293  10.018 -0.7683  0.3728  1.2231
   61CHL1    C7 6931   2.502   4.299   9.801 -0.4887 -0.6065  0.6267
   61CHL1   H7A 6932   2.593   4.358   9.778 -1.2023  0.5410  0.6175
   61CHL1   H7B 6933   2.496   4.198   9.757  1.0230 -0.2019 -0.5636
   61CHL1    C8 6934   2.383   4.383   9.738  0.4808  0.5480  0.3662
   61CHL1    H8 6935   2.389   4.493   9.751 -2.3856  0.4821  3.5428
   61CHL1   C14 6936   2.389   4.355   9.580  0.5978  0.2889  0.4518
   61CHL1   H14 6937   2.360   4.251   9.555  2.1964  0.2132 -1.2919
   61CHL1   C15 6938   2.524   4.377   9.513  0.3397  1.0374  0.5056
   61CHL1  H15A 6939   2.585   4.457   9.559  1.6677  0.3660 -0.0351
   61CHL1  H15B 6940   2.582   4.282   9.511 -1.1876  0.0468  0.7827
   61CHL1   C16 6941   2.483   4.401   9.363 -0.1685 -0.4611  0.5002
   61CHL1  H16A 6942   2.523   4.499   9.330 -0.0424 -0.5553  0.3694
   61CHL1  H16B 6943   2.519   4.318   9.299 -2.7838 -0.8586 -0.5460
   61CHL1   C17 6944   2.328   4.404   9.360  0.6307  0.3419  0.2539
   61CHL1   H17 6945   2.290   4.301   9.342 -0.9358  0.9507 -0.0328
   61CHL1   C13 6946   2.287   4.442   9.505  0.4627  0.9611 -0.4620
   61CHL1   C18 6947   2.307   4.596   9.513  0.5636 -0.1578  0.0493
   61CHL1  H18A 6948   2.221   4.647   9.464 -0.3017 -0.0148  1.6440
   61CHL1  H18B 6949   2.307   4.636   9.617  1.6038  0.4140 -0.1561
   61CHL1  H18C 6950   2.401   4.638   9.471  0.0007  1.1107  0.0008
   61CHL1   C12 6951   2.147   4.399   9.552  0.7172  0.1746 -0.5997
   61CHL1  H12A 6952   2.060   4.455   9.512 -1.2594 -1.8443  0.6257
   61CHL1  H12B 6953   2.139   4.292   9.522  2.1704 -0.1269 -0.0218
   61CHL1   C11 6954   2.135   4.413   9.707  0.4577 -0.0026  0.5364
   61CHL1  H11A 6955   2.117   4.520   9.730 -1.4333  0.0952 -1.1152
   61CHL1  H11B 6956   2.048   4.348   9.733 -0.1492  0.6390  0.1413
   61CHL1    C9 6957   2.243   4.348   9.793 -1.2932  1.0539  0.0429
   61CHL1    H9 6958   2.230   4.238   9.783 -1.1742  0.9038  1.3601
   61CHL1   C10 6959   2.234   4.365   9.943  0.1893  0.4254 -0.6375
   61CHL1   C19 6960   2.183   4.513   9.982  0.3229  0.2786  0.4099
   61CHL1  H19A 6961   2.074   4.513   9.961  0.3033 -1.5354  0.3349
   61CHL1  H19B 6962   2.210   4.531  10.089 -0.7528  1.4440  0.5065
   61CHL1  H19C 6963   2.236   4.587   9.918  0.6146  0.5456  0.9511
   61CHL1    C1 6964   2.125   4.274  10.005 -0.5109  0.0719 -0.3628
   61CHL1   H1A 6965   2.025   4.301   9.965 -0.1172  1.3505 -0.5129
   61CHL1   H1B 6966   2.146   4.173   9.963  0.9780  0.1269  0.1863
   61CHL1    C2 6967   2.124   4.270  10.154 -0.1773  0.5572 -0.3352
   61CHL1   H2A 6968   2.053   4.189  10.180 -1.3387  1.3622 -0.9213
   61CHL1   H2B 6969   2.084   4.366  10.195  0.3362 -0.0011  1.5819
   61CHL1   C20 6970   2.265   4.479   9.235  0.3030 -1.1099  0.3359
   61CHL1   H20 6971   2.298   4.585   9.241 -0.6243 -0.8515  0.9552
   61CHL1   C21 6972   2.112   4.459   9.239 -0.1328 -0.4200  0.8546
   61CHL1  H21A 6973   2.062   4.465   9.140  0.3184 -2.1600  0.4976
   61CHL1  H21B 6974   2.066   4.539   9.301 -3.3599 -0.5937 -1.0963
   61CHL1  H21C 6975   2.081   4.366   9.289  0.9915 -0.3591  1.6901
   61CHL1   C22 6976   2.322   4.425   9.103  0.8042 -0.3539 -0.2867
   61CHL1  H22A 6977   2.433   4.431   9.114  0.8750 -0.4886 -0.8983
   61CHL1  H22B 6978   2.293   4.317   9.104  0.2578 -0.2079  0.4263
   61CHL1   C23 6979   2.273   4.502   8.984 -0.0339 -0.3300 -0.9365
   61CHL1  H23A 6980   2.163   4.491   8.978 -0.9712  3.2412  3.6126
   61CHL1  H23B 6981   2.301   4.607   9.007 -0.4802 -0.0338 -1.7147
   61CHL1   C24 6982   2.340   4.452   8.857  0.0279  0.5643 -0.0157
   61CHL1  H24A 6983   2.450   4.469   8.865  0.2733 -0.4133 -1.0457
   61CHL1  H24B 6984   2.334   4.341   8.863 -1.3623  0.6854  1.3102
   61CHL1   C25 6985   2.296   4.502   8.719  0.2181  0.1184  0.6352
   61CHL1   H25 6986   2.287   4.613   8.720  0.2688  0.1690 -1.3761
   61CHL1   C26 6987   2.400   4.451   8.618 -0.3492 -0.3708 -1.2198
   61CHL1  H26A 6988   2.503   4.473   8.654 -0.5380 -0.2170 -0.7585
   61CHL1  H26B 6989   2.389   4.341   8.609  0.0997 -0.5528  0.0776
   61CHL1  H26C 6990   2.390   4.482   8.512  2.2749  2.5929 -0.7705
   61CHL1   C27 6991   2.150   4.459   8.677  0.0126 -0.1811  0.0461
   61CHL1  H27A 6992   2.108   4.529   8.602  0.2480  1.5473  1.4344
   61CHL1  H27B 6993   2.147   4.351   8.654 -0.8821 -0.3015  0.7137
   61CHL1  H27C 6994   2.085   4.477   8.765  0.4309 -1.2873  0.6000
   62CHL1    C3 6995   2.450   1.885  10.125 -0.2076 -0.0020 -0.5265
   62CHL1    H3 6996   2.382   1.953  10.069  0.8761  2.2976  0.8043
   62CHL1    O3 6997   2.402   1.889  10.256  0.2413  0.6239  0.2661
   62CHL1   H3' 6998   2.450   1.817  10.296 -0.9500 -0.8567 -0.8554
   62CHL1    C4 6999   2.447   1.740  10.067 -0.3058  0.1871 -0.0353
   62CHL1   H4A 7000   2.504   1.674  10.135 -1.3014 -0.0674  0.5576
   62CHL1   H4B 7001   2.341   1.710  10.068 -0.5473  0.9767  1.8135
   62CHL1    C5 7002   2.508   1.716   9.932 -0.4228  0.0322 -0.8657
   62CHL1    C6 7003   2.443   1.667   9.826 -0.3792 -0.2802 -0.7748
   62CHL1    H6 7004   2.340   1.631   9.844  0.4876 -1.3893  2.8665
   62CHL1    C7 7005   2.496   1.657   9.688 -0.7111  0.0254 -0.2283
   62CHL1   H7A 7006   2.500   1.553   9.651  0.0331  0.4127 -1.2931
   62CHL1   H7B 7007   2.421   1.707   9.623 -0.9519  0.6649  0.5169
   62CHL1    C8 7008   2.643   1.704   9.656 -0.2990  0.8905 -1.2733
   62CHL1    H8 7009   2.708   1.622   9.694  0.8965  3.5147  3.0930
   62CHL1   C14 7010   2.665   1.758   9.513 -0.1425 -0.5399  0.3309
   62CHL1   H14 7011   2.600   1.847   9.503  2.4247  1.4307  0.0890
   62CHL1   C15 7012   2.620   1.659   9.405  1.1183  0.2678 -0.6246
   62CHL1  H15A 7013   2.662   1.558   9.425  2.7525  1.1338  0.5995
   62CHL1  H15B 7014   2.510   1.657   9.390  0.7038  0.4092  1.9391
   62CHL1   C16 7015   2.687   1.721   9.274 -0.4703 -0.2460  0.2362
   62CHL1  H16A 7016   2.735   1.633   9.226 -2.4009 -0.2533 -1.8612
   62CHL1  H16B 7017   2.614   1.767   9.203 -1.2400  0.3499  1.3817
   62CHL1   C17 7018   2.789   1.829   9.320  0.0374 -0.0454 -0.3342
   62CHL1   H17 7019   2.733   1.922   9.298 -1.1941 -0.9316 -1.0533
   62CHL1   C13 7020   2.806   1.799   9.475  0.1390 -0.2809 -0.2095
   62CHL1   C18 7021   2.903   1.679   9.504 -0.0269 -0.0733 -0.6184
   62CHL1  H18A 7022   2.894   1.640   9.608  1.8429  0.0840 -0.3648
   62CHL1  H18B 7023   2.883   1.596   9.433  0.3989 -0.5956 -0.1376
   62CHL1  H18C 7024   3.007   1.706   9.479 -0.6212 -0.9769 -4.6842
   62CHL1   C12 7025   2.829   1.909   9.575 -0.2572 -0.0236 -0.1905
   62CHL1  H12A 7026   2.923   1.965   9.560 -0.1915  0.0760  0.5545
   62CHL1  H12B 7027   2.747   1.977   9.543 -0.8067 -0.9587 -0.8030
   62CHL1   C11 7028   2.814   1.880   9.728  0.4901  0.0793 -0.2952
   62CHL1  H11A 7029   2.896   1.813   9.763  0.6741  0.8421  0.7728
   62CHL1  H11B 7030   2.829   1.981   9.772  2.0451  0.1055 -0.8240
   62CHL1    C9 7031   2.671   1.816   9.756 -0.7226  0.0006  0.0110
   62CHL1    H9 7032   2.610   1.904   9.725  1.4687  0.8962 -2.0972
   62CHL1   C10 7033   2.641   1.787   9.911 -0.1288  0.0875  1.1302
   62CHL1   C19 7034   2.757   1.701   9.958  0.1561  0.1374  0.3624
   62CHL1  H19A 7035   2.764   1.612   9.892  3.3896 -0.7442  1.6680
   62CHL1  H19B 7036   2.851   1.759   9.947 -0.1330  0.4523 -0.5178
   62CHL1  H19C 7037   2.752   1.651  10.057  1.0454  1.6194  1.2031
   62CHL1    C1 7038   2.649   1.928   9.982  0.0922  0.3769  0.3690
   62CHL1   H1A 7039   2.754   1.964   9.977  0.0885  0.3859 -4.3278
   62CHL1   H1B 7040   2.594   2.010   9.930  0.0030  0.9519  1.3397
   62CHL1    C2 7041   2.596   1.934  10.122  0.1876 -0.0728  0.3793
   62CHL1   H2A 7042   2.597   2.041  10.152 -3.1490  0.3803 -0.7181
   62CHL1   H2B 7043   2.657   1.883  10.200  0.2726 -2.1377 -0.9554
   62CHL1   C20 7044   2.912   1.828   9.227  0.4833  0.1229  0.2874
   62CHL1   H20 7045   2.954   1.725   9.229  0.5629  0.1605  0.6375
   62CHL1   C21 7046   3.023   1.924   9.274  0.5638 -0.2135 -0.3828
   62CHL1  H21A 7047   3.118   1.919   9.217  0.5333  1.3741 -0.6133
   62CHL1  H21B 7048   3.033   1.910   9.384 -0.3536  0.5870 -0.1870
   62CHL1  H21C 7049   2.979   2.026   9.271 -1.5256 -0.9995  1.1355
   62CHL1   C22 7050   2.880   1.849   9.079 -0.1379 -0.0948 -0.3167
   62CHL1  H22A 7051   2.974   1.851   9.020 -2.5558  1.2343 -4.5466
   62CHL1  H22B 7052   2.824   1.760   9.044 -0.0660 -0.7843  1.2472
   62CHL1   C23 7053   2.807   1.975   9.047 -0.0174  0.1754 -0.9882
   62CHL1  H23A 7054   2.704   1.962   9.085  0.9303 -0.0641  1.7890
   62CHL1  H23B 7055   2.856   2.062   9.097  1.5022 -2.0249  1.6883
   62CHL1   C24 7056   2.796   1.996   8.897 -0.0833 -0.3343  0.2244
   62CHL1  H24A 7057   2.748   2.095   8.880 -0.6594 -0.7919 -1.0117
   62CHL1  H24B 7058   2.897   1.993   8.852 -0.2396 -1.4483 -0.1035
   62CHL1   C25 7059   2.700   1.904   8.812 -0.2751  0.0690 -0.2145
   62CHL1   H25 7060   2.752   1.806   8.818  0.6584  0.4154 -1.9316
   62CHL1   C26 7061   2.563   1.901   8.880 -0.2807  0.9419 -0.3161
   62CHL1  H26A 7062   2.509   1.819   8.829 -0.4341 -0.1346  1.4759
   62CHL1  H26B 7063   2.560   1.874   8.988 -0.4888 -1.8552 -0.9485
   62CHL1  H26C 7064   2.520   2.002   8.865  1.0432  1.2775 -2.1217
   62CHL1   C27 7065   2.695   1.940   8.665  0.3662  0.3870  0.3499
   62CHL1  H27A 7066   2.665   2.047   8.661  0.5757  0.4733  0.9488
   62CHL1  H27B 7067   2.786   1.925   8.603 -0.0094  1.2937 -0.4370
   62CHL1  H27C 7068   2.619   1.872   8.620 -1.3685  0.5144  2.8868
   63CHL1    C3 7069   4.051   6.749  10.134  0.8856  1.1711  0.1452
   63CHL1    H3 7070   4.095   6.652  10.105 -0.4366  0.8541 -0.8960
   63CHL1    O3 7071   4.048   6.753  10.274  0.2991  0.0718 -0.0989
   63CHL1   H3' 7072   4.134   6.745  10.317 -0.9412 -0.6323  2.4710
   63CHL1    C4 7073   4.124   6.870  10.074  0.1339 -0.0210  0.3524
   63CHL1   H4A 7074   4.091   6.964  10.123 -2.3290  0.3698 -1.8320
   63CHL1   H4B 7075   4.227   6.864  10.114  0.6750  0.2730 -0.9306
   63CHL1    C5 7076   4.119   6.886   9.923 -0.1291 -0.0765  0.3344
   63CHL1    C6 7077   4.230   6.896   9.844 -0.2042  0.8471 -0.1439
   63CHL1    H6 7078   4.326   6.887   9.897 -0.1553  2.0892 -0.0038
   63CHL1    C7 7079   4.231   6.915   9.694  0.2754 -0.1292 -0.3130
   63CHL1   H7A 7080   4.305   6.987   9.652  0.2116 -2.1038 -4.2373
   63CHL1   H7B 7081   4.254   6.818   9.645 -0.1358  0.2142 -1.2197
   63CHL1    C8 7082   4.085   6.957   9.652  0.3531 -0.8739 -0.1980
   63CHL1    H8 7083   4.074   7.061   9.689  4.3408 -0.5765  0.5906
   63CHL1   C14 7084   4.070   6.945   9.503  0.1880 -0.4908  0.8997
   63CHL1   H14 7085   4.089   6.838   9.477 -0.2741 -0.5352  0.7273
   63CHL1   C15 7086   4.171   7.027   9.415 -0.4027 -0.2024 -0.2308
   63CHL1  H15A 7087   4.181   7.125   9.467  4.6934  0.9937 -2.8257
   63CHL1  H15B 7088   4.278   6.998   9.416  0.0563  1.2517  2.1969
   63CHL1   C16 7089   4.103   7.059   9.284  0.2494 -0.5454  0.5275
   63CHL1  H16A 7090   4.110   7.167   9.258  1.7295 -0.6741  0.2796
   63CHL1  H16B 7091   4.162   7.001   9.209  3.2542  2.5281  0.2910
   63CHL1   C17 7092   3.966   6.984   9.296 -0.2462 -0.2107 -0.4423
   63CHL1   H17 7093   3.986   6.876   9.280  0.2770 -0.1449 -0.2475
   63CHL1   C13 7094   3.931   6.981   9.441 -0.4082  0.1183 -0.2219
   63CHL1   C18 7095   3.893   7.131   9.486 -0.4343  0.7534 -0.7137
   63CHL1  H18A 7096   3.956   7.207   9.435  0.7847  0.4090  0.2137
   63CHL1  H18B 7097   3.786   7.131   9.457 -0.2978 -2.3120 -1.5628
   63CHL1  H18C 7098   3.894   7.143   9.596 -0.1210  2.0946 -0.8540
   63CHL1   C12 7099   3.829   6.876   9.496  0.3930 -0.2455 -0.3170
   63CHL1  H12A 7100   3.728   6.904   9.461  0.5532  1.1494  0.2455
   63CHL1  H12B 7101   3.861   6.777   9.456 -0.1997 -0.6692  0.2459
   63CHL1   C11 7102   3.831   6.862   9.654  0.4750  0.3601  0.2487
   63CHL1  H11A 7103   3.756   6.939   9.683  0.1994 -0.7387  2.6239
   63CHL1  H11B 7104   3.783   6.764   9.675  2.2819 -0.2372  1.8240
   63CHL1    C9 7105   3.972   6.870   9.722  0.1671  0.0180  0.2733
   63CHL1    H9 7106   4.001   6.764   9.708 -0.7743 -0.0725 -1.2653
   63CHL1   C10 7107   3.975   6.891   9.874 -0.2379  0.2441 -0.2407
   63CHL1   C19 7108   3.905   7.015   9.914  0.0462  0.0443 -0.0079
   63CHL1  H19A 7109   3.797   7.000   9.895  0.3877 -0.6173 -1.6239
   63CHL1  H19B 7110   3.918   7.054  10.017 -0.6310 -0.2772  0.1987
   63CHL1  H19C 7111   3.932   7.099   9.846 -1.2824  0.3879 -0.1414
   63CHL1    C1 7112   3.895   6.771   9.934  0.3730 -0.6087 -0.1256
   63CHL1   H1A 7113   3.788   6.769   9.904  0.4726  0.3270 -0.5541
   63CHL1   H1B 7114   3.937   6.673   9.903  0.0006 -0.7806 -0.0926
   63CHL1    C2 7115   3.901   6.761  10.086  0.0005 -0.6471 -0.4152
   63CHL1   H2A 7116   3.860   6.669  10.133 -1.4991  0.1351 -0.1458
   63CHL1   H2B 7117   3.856   6.846  10.142  1.9761  0.4020 -0.3006
   63CHL1   C20 7118   3.867   7.040   9.199 -0.2048 -0.5071  0.0683
   63CHL1   H20 7119   3.844   7.144   9.231 -2.5701 -1.2457  0.9763
   63CHL1   C21 7120   3.727   6.969   9.195  0.5755 -0.8972 -0.8325
   63CHL1  H21A 7121   3.737   6.858   9.189 -0.2199 -0.9228 -2.0447
   63CHL1  H21B 7122   3.676   7.007   9.104  1.0950  2.0960  0.0500
   63CHL1  H21C 7123   3.668   7.012   9.279  1.5466 -0.1252 -0.5268
   63CHL1   C22 7124   3.928   7.044   9.051  0.6351 -0.5678  0.1148
   63CHL1  H22A 7125   3.860   7.108   8.990 -0.9439 -2.0948  0.1765
   63CHL1  H22B 7126   4.015   7.111   9.041 -1.9100  2.9400 -0.4522
   63CHL1   C23 7127   3.961   6.909   8.987  0.3472 -0.0756 -0.3723
   63CHL1  H23A 7128   4.023   6.853   9.059 -1.2782 -0.0642  1.0986
   63CHL1  H23B 7129   3.874   6.840   8.981 -0.0650  0.3119  0.8285
   63CHL1   C24 7130   4.026   6.924   8.847  0.3460  0.1274 -0.1532
   63CHL1  H24A 7131   4.130   6.961   8.863 -0.0994  0.1486  3.8232
   63CHL1  H24B 7132   4.021   6.824   8.800 -2.4491  0.2084 -0.1458
   63CHL1   C25 7133   3.964   7.024   8.747  1.1068  0.0117 -0.1762
   63CHL1   H25 7134   3.972   7.126   8.791  1.1727 -0.7113  1.5976
   63CHL1   C26 7135   4.046   7.024   8.614 -0.6377 -0.5169 -0.2606
   63CHL1  H26A 7136   4.050   6.923   8.568  2.0312 -0.0229 -1.2472
   63CHL1  H26B 7137   3.993   7.093   8.544  1.4869 -0.4150 -1.8521
   63CHL1  H26C 7138   4.150   7.058   8.628 -0.9414  0.2338  0.2485
   63CHL1   C27 7139   3.821   6.978   8.716 -0.6803 -0.7634  0.1922
   63CHL1  H27A 7140   3.779   7.049   8.642 -1.5515 -0.7908  0.6556
   63CHL1  H27B 7141   3.824   6.874   8.675  3.0268 -1.0061  0.7538
   63CHL1  H27C 7142   3.766   6.982   8.812  3.3119 -2.0055  2.8039
   64CHL1    C3 7143   4.134   1.602  10.153 -0.9533 -0.3136  0.7145
   64CHL1    H3 7144   4.033   1.610  10.108 -0.4675 -1.7352 -0.7000
   64CHL1    O3 7145   4.133   1.586  10.293 -0.0902  0.1750 -0.1462
   64CHL1   H3' 7146   4.220   1.550  10.310  0.2573  1.0999  0.1161
   64CHL1    C4 7147   4.190   1.468  10.100 -0.4443 -0.4180 -0.1270
   64CHL1   H4A 7148   4.290   1.437  10.136  0.0170 -1.4923 -2.1672
   64CHL1   H4B 7149   4.122   1.387  10.132 -1.3690  0.1823 -0.4947
   64CHL1    C5 7150   4.194   1.484   9.945  0.1567 -0.2730 -0.0514
   64CHL1    C6 7151   4.116   1.415   9.859 -0.0416  0.1427  0.2198
   64CHL1    H6 7152   4.050   1.335   9.896 -1.0101  0.7184 -0.2184
   64CHL1    C7 7153   4.118   1.420   9.709  0.1200 -0.0249 -0.0855
   64CHL1   H7A 7154   4.119   1.316   9.669  3.6892 -1.2157  2.6031
   64CHL1   H7B 7155   4.020   1.459   9.674  0.8216  2.3742  0.4494
   64CHL1    C8 7156   4.230   1.503   9.652 -1.0589  0.0063 -0.1530
   64CHL1    H8 7157   4.321   1.440   9.646 -0.9095  0.0466  1.4097
   64CHL1   C14 7158   4.187   1.554   9.516  0.2022 -0.3937 -0.0939
   64CHL1   H14 7159   4.091   1.609   9.530  0.4798 -0.0240  0.4116
   64CHL1   C15 7160   4.157   1.444   9.413 -0.2244 -0.7004  0.1281
   64CHL1  H15A 7161   4.247   1.379   9.416  0.1361 -0.2121  0.0263
   64CHL1  H15B 7162   4.068   1.379   9.428 -0.1402 -1.0265 -0.7179
   64CHL1   C16 7163   4.154   1.518   9.283 -0.1388  0.4634 -0.0579
   64CHL1  H16A 7164   4.200   1.458   9.201  0.8632  2.2894 -0.8927
   64CHL1  H16B 7165   4.049   1.534   9.251  0.1888  1.4551 -0.6578
   64CHL1   C17 7166   4.219   1.650   9.302 -0.0369  0.0396 -0.8058
   64CHL1   H17 7167   4.140   1.725   9.325  1.2613  1.1259  0.3674
   64CHL1   C13 7168   4.292   1.647   9.444  0.8334  0.1148 -0.6592
   64CHL1   C18 7169   4.432   1.586   9.435  0.1707  0.1249  0.1904
   64CHL1  H18A 7170   4.442   1.501   9.365  0.8719  0.9446 -0.7403
   64CHL1  H18B 7171   4.505   1.661   9.396  1.5591 -2.1894 -1.9183
   64CHL1  H18C 7172   4.466   1.550   9.535 -0.5613 -2.9205 -0.5689
   64CHL1   C12 7173   4.299   1.778   9.531  0.2083  0.0481 -0.6779
   64CHL1  H12A 7174   4.364   1.858   9.489  0.0013  0.7783  0.3569
   64CHL1  H12B 7175   4.196   1.820   9.534  0.2367  0.0777  1.9919
   64CHL1   C11 7176   4.330   1.748   9.681 -0.5030  0.3324 -0.2677
   64CHL1  H11A 7177   4.438   1.722   9.674 -1.0640 -2.6094  0.4317
   64CHL1  H11B 7178   4.323   1.842   9.739  1.9221  0.0558  0.5910
   64CHL1    C9 7179   4.252   1.630   9.744 -0.1427  0.6730  0.2948
   64CHL1    H9 7180   4.149   1.673   9.745 -0.3505  0.1794  0.7468
   64CHL1   C10 7181   4.271   1.605   9.894 -1.0598 -0.8078 -0.3967
   64CHL1   C19 7182   4.421   1.568   9.909  0.2824  0.3662 -0.0218
   64CHL1  H19A 7183   4.447   1.497   9.828  0.2498 -0.2257  0.4702
   64CHL1  H19B 7184   4.480   1.661   9.896 -2.1731  1.7453 -2.1034
   64CHL1  H19C 7185   4.461   1.527  10.005  2.2246 -2.1195 -1.7525
   64CHL1    C1 7186   4.233   1.735   9.974 -0.4129 -0.1161 -0.0436
   64CHL1   H1A 7187   4.305   1.814   9.946 -1.5404  1.0827  0.3584
   64CHL1   H1B 7188   4.135   1.775   9.942  0.5337  0.0201 -3.0339
   64CHL1    C2 7189   4.230   1.724  10.128  0.2988  0.5287  0.1398
   64CHL1   H2A 7190   4.177   1.807  10.179 -0.9844 -0.1737 -0.0086
   64CHL1   H2B 7191   4.328   1.694  10.170  0.3144  1.0390  0.4683
   64CHL1   C20 7192   4.315   1.691   9.189 -0.0126 -0.0102  0.2855
   64CHL1   H20 7193   4.394   1.612   9.186  0.5232  0.4837  1.0664
   64CHL1   C21 7194   4.376   1.828   9.223 -1.3173 -0.3567  0.2210
   64CHL1  H21A 7195   4.433   1.866   9.135 -0.9767 -2.0290 -0.3209
   64CHL1  H21B 7196   4.451   1.822   9.304 -0.4849  0.2961 -0.4830
   64CHL1  H21C 7197   4.304   1.912   9.235  1.4788  2.1536  0.5304
   64CHL1   C22 7198   4.235   1.712   9.059  0.0818  0.6186  0.3333
   64CHL1  H22A 7199   4.176   1.621   9.036 -0.1143 -0.1567  3.5118
   64CHL1  H22B 7200   4.155   1.787   9.071 -0.0996  0.6055 -0.7220
   64CHL1   C23 7201   4.333   1.766   8.946  0.4869 -0.2838 -0.4310
   64CHL1  H23A 7202   4.349   1.874   8.966  1.7932 -0.8857  2.2204
   64CHL1  H23B 7203   4.427   1.707   8.948  1.1380  0.7413  0.7459
   64CHL1   C24 7204   4.268   1.743   8.810  0.2298  0.1479 -0.1779
   64CHL1  H24A 7205   4.284   1.638   8.778 -1.5141  0.1907 -1.3786
   64CHL1  H24B 7206   4.162   1.776   8.816  0.4166  0.7531 -0.0702
   64CHL1   C25 7207   4.345   1.814   8.697  0.4660 -0.4175  0.3388
   64CHL1   H25 7208   4.348   1.922   8.722  1.7457 -0.7945  2.0161
   64CHL1   C26 7209   4.489   1.765   8.682  0.0018  0.3793 -0.0470
   64CHL1  H26A 7210   4.539   1.812   8.594  0.5215 -2.0292 -1.1201
   64CHL1  H26B 7211   4.545   1.805   8.769 -0.1282 -1.8919  1.1403
   64CHL1  H26C 7212   4.489   1.654   8.670 -2.3825  0.4453 -1.0593
   64CHL1   C27 7213   4.270   1.802   8.564  0.4015  0.3225 -0.4982
   64CHL1  H27A 7214   4.274   1.695   8.535  2.6744  0.1105  0.3675
   64CHL1  H27B 7215   4.165   1.826   8.592  0.3600 -0.9525  0.5053
   64CHL1  H27C 7216   4.306   1.873   8.486  0.0440  2.2939  1.0461
   65CHL1    C3 7217   6.054   4.094  10.266 -0.7230  0.1136  0.4406
   65CHL1    H3 7218   5.956   4.063  10.225 -1.1539 -0.2445  1.6931
   65CHL1    O3 7219   6.049   4.047  10.401  0.4030  0.6065  0.1329
   65CHL1   H3' 7220   6.085   4.120  10.452  0.6453  0.7698 -0.2718
   65CHL1    C4 7221   6.175   4.013  10.207 -0.4319 -0.2761 -0.2368
   65CHL1   H4A 7222   6.263   4.024  10.274 -1.5634  0.2117  1.2226
   65CHL1   H4B 7223   6.143   3.906  10.213 -0.5698 -0.4156 -2.6855
   65CHL1    C5 7224   6.201   4.064  10.061 -0.7085  0.0266  0.2965
   65CHL1    C6 7225   6.189   3.986   9.951  0.3957  0.4809  0.2943
   65CHL1    H6 7226   6.160   3.880   9.962  0.6142  0.4895  1.0323
   65CHL1    C7 7227   6.220   4.025   9.807  0.5052  0.0284  0.3470
   65CHL1   H7A 7228   6.298   3.959   9.764  0.7022  0.8544 -0.5974
   65CHL1   H7B 7229   6.125   4.007   9.752  1.3032 -0.5978 -0.8796
   65CHL1    C8 7230   6.276   4.168   9.788 -0.1588  0.7432 -0.8992
   65CHL1    H8 7231   6.385   4.171   9.812 -0.6006  2.0146  1.1518
   65CHL1   C14 7232   6.260   4.219   9.646 -0.2663 -0.2967 -0.1647
   65CHL1   H14 7233   6.153   4.200   9.621 -0.3392 -1.5014  0.9424
   65CHL1   C15 7234   6.339   4.142   9.541 -0.3645 -0.9836 -0.5994
   65CHL1  H15A 7235   6.447   4.133   9.565  0.4059  3.7711 -1.4897
   65CHL1  H15B 7236   6.292   4.043   9.523 -0.2605 -1.1337 -0.0666
   65CHL1   C16 7237   6.335   4.233   9.415  0.8044  1.1190  0.2320
   65CHL1  H16A 7238   6.436   4.252   9.374  0.5948 -0.1852 -0.9601
   65CHL1  H16B 7239   6.267   4.205   9.332 -0.8002  3.1199  0.7890
   65CHL1   C17 7240   6.266   4.367   9.465  0.3176  0.5104  0.2267
   65CHL1   H17 7241   6.157   4.364   9.447  0.0438  2.0204  1.4314
   65CHL1   C13 7242   6.292   4.368   9.621 -0.0158 -0.0956 -0.2466
   65CHL1   C18 7243   6.435   4.399   9.649 -0.2605 -0.1046  0.7267
   65CHL1  H18A 7244   6.494   4.343   9.574  0.4296  0.5534  0.7646
   65CHL1  H18B 7245   6.449   4.509   9.643 -1.7013  0.0386 -0.7548
   65CHL1  H18C 7246   6.470   4.353   9.744 -1.0690 -1.3379  0.4484
   65CHL1   C12 7247   6.207   4.458   9.710  0.1617  0.3239 -1.1754
   65CHL1  H12A 7248   6.233   4.565   9.695  0.6215  0.5237  0.7702
   65CHL1  H12B 7249   6.104   4.431   9.679  1.4650 -3.8923 -2.5763
   65CHL1   C11 7250   6.221   4.415   9.861  0.3673  0.4694 -0.1849
   65CHL1  H11A 7251   6.319   4.446   9.903 -0.6028  1.5895  1.3330
   65CHL1  H11B 7252   6.146   4.473   9.918 -2.3686 -3.6933  0.9303
   65CHL1    C9 7253   6.207   4.263   9.887 -0.2804  0.1160  0.5458
   65CHL1    H9 7254   6.101   4.244   9.860 -0.3995  0.9999  0.3896
   65CHL1   C10 7255   6.221   4.217  10.038  0.7181 -0.1490  0.0667
   65CHL1   C19 7256   6.354   4.258  10.097 -0.0120  0.4246 -0.5123
   65CHL1  H19A 7257   6.426   4.231  10.017 -0.1117  1.0291 -0.8158
   65CHL1  H19B 7258   6.378   4.366  10.112  0.5638  0.2036  0.1878
   65CHL1  H19C 7259   6.372   4.218  10.199 -0.8863  0.3173 -0.3917
   65CHL1    C1 7260   6.105   4.296  10.113 -0.6994  0.0716 -0.1371
   65CHL1   H1A 7261   6.136   4.403  10.114 -0.4121 -0.0088  0.9437
   65CHL1   H1B 7262   6.007   4.294  10.061 -1.6422  3.9820  1.1235
   65CHL1    C2 7263   6.080   4.253  10.254 -0.1284  0.0312 -0.9851
   65CHL1   H2A 7264   5.985   4.297  10.291 -0.9669 -0.8540 -2.0233
   65CHL1   H2B 7265   6.166   4.278  10.321 -2.1847  1.7456  1.1958
   65CHL1   C20 7266   6.325   4.474   9.375  0.1086  0.5073  0.3279
   65CHL1   H20 7267   6.435   4.464   9.392 -0.3498 -1.4910  2.7715
   65CHL1   C21 7268   6.284   4.613   9.426 -0.2619  0.2808  0.4175
   65CHL1  H21A 7269   6.173   4.624   9.425 -0.4691 -1.3323 -2.3677
   65CHL1  H21B 7270   6.322   4.685   9.350  1.2066  0.5872  1.3976
   65CHL1  H21C 7271   6.326   4.638   9.526  0.9534  3.8933 -0.8007
   65CHL1   C22 7272   6.308   4.443   9.225  0.4395 -0.0896 -0.4319
   65CHL1  H22A 7273   6.357   4.521   9.163 -0.1740 -0.1090 -0.9610
   65CHL1  H22B 7274   6.355   4.348   9.191  1.2598 -0.5128  1.6982
   65CHL1   C23 7275   6.154   4.431   9.182 -0.2470 -0.2871 -0.5872
   65CHL1  H23A 7276   6.108   4.338   9.223 -1.1997  0.2724 -0.3485
   65CHL1  H23B 7277   6.089   4.516   9.212 -0.4001 -1.2927  2.2155
   65CHL1   C24 7278   6.157   4.411   9.028  0.4771  0.4996 -0.1164
   65CHL1  H24A 7279   6.193   4.513   9.000  2.3005 -0.1154 -0.1616
   65CHL1  H24B 7280   6.221   4.331   8.986 -0.9375 -0.3136 -0.7884
   65CHL1   C25 7281   6.020   4.380   8.958  0.5000 -0.0074 -0.2342
   65CHL1   H25 7282   5.944   4.443   9.009  0.9171  0.6596 -0.4365
   65CHL1   C26 7283   6.011   4.433   8.812  0.6554 -0.0888 -0.3895
   65CHL1  H26A 7284   5.932   4.384   8.750 -0.4203  0.3207  0.6229
   65CHL1  H26B 7285   5.971   4.537   8.806 -0.0235 -0.3946 -1.5978
   65CHL1  H26C 7286   6.114   4.426   8.771  0.8929 -2.8694  0.5120
   65CHL1   C27 7287   5.982   4.229   8.960  0.0367 -0.7838 -0.0049
   65CHL1  H27A 7288   5.991   4.172   9.055  1.4898 -0.5158  0.0478
   65CHL1  H27B 7289   5.876   4.216   8.929 -0.9131  0.1573  2.5323
   65CHL1  H27C 7290   6.055   4.185   8.889  3.4114 -1.0336  3.2853
   66CHL1    C3 7291   6.693   3.756  10.406 -0.4070 -0.2820 -0.3578
   66CHL1    H3 7292   6.778   3.685  10.401  1.3879  1.6606  1.2277
   66CHL1    O3 7293   6.670   3.783  10.539 -0.4501  0.2130  0.2982
   66CHL1   H3' 7294   6.585   3.828  10.541 -0.9379 -0.6718  0.0079
   66CHL1    C4 7295   6.727   3.888  10.333  0.1182 -0.3063  0.1497
   66CHL1   H4A 7296   6.633   3.945  10.345  1.3781  1.7455  0.7670
   66CHL1   H4B 7297   6.804   3.946  10.389 -0.8235  1.5561 -0.3788
   66CHL1    C5 7298   6.746   3.869  10.181  0.9626 -0.3872 -0.0975
   66CHL1    C6 7299   6.868   3.905  10.127  0.7230  0.0258  0.4246
   66CHL1    H6 7300   6.942   3.958  10.188 -1.2337  2.0905  1.1476
   66CHL1    C7 7301   6.896   3.888   9.978  1.0607  0.0581  0.2829
   66CHL1   H7A 7302   6.930   3.979   9.925 -1.3125  2.0099  1.8595
   66CHL1   H7B 7303   6.968   3.805   9.965  1.6620  0.4561  1.0158
   66CHL1    C8 7304   6.770   3.845   9.894 -0.1731 -0.5339  1.1544
   66CHL1    H8 7305   6.703   3.932   9.879  1.5797  1.1539  2.6552
   66CHL1   C14 7306   6.813   3.784   9.754 -0.4750 -0.7438 -0.2858
   66CHL1   H14 7307   6.875   3.697   9.784 -0.6921  0.1149  3.1181
   66CHL1   C15 7308   6.904   3.872   9.659  0.2332  0.6797 -0.0059
   66CHL1  H15A 7309   6.863   3.974   9.644  0.9988  1.9166  4.6396
   66CHL1  H15B 7310   7.007   3.879   9.701  0.3262 -0.3569 -0.0362
   66CHL1   C16 7311   6.905   3.786   9.530 -0.1499 -0.5326 -0.2525
   66CHL1  H16A 7312   6.884   3.851   9.443  1.5424  0.1415 -0.1770
   66CHL1  H16B 7313   7.001   3.734   9.512  0.7162  1.2561 -0.9365
   66CHL1   C17 7314   6.801   3.673   9.551 -0.2686 -0.0159 -0.3941
   66CHL1   H17 7315   6.853   3.582   9.588  2.0435  1.4602  0.1584
   66CHL1   C13 7316   6.704   3.728   9.660 -1.2411  0.2391 -0.9009
   66CHL1   C18 7317   6.608   3.839   9.616  0.7258 -0.2770 -0.8131
   66CHL1  H18A 7318   6.560   3.879   9.708  2.0573 -0.7118  0.1011
   66CHL1  H18B 7319   6.660   3.927   9.573  1.2539 -0.4404 -0.5265
   66CHL1  H18C 7320   6.528   3.796   9.552 -1.6608 -1.0305  2.3984
   66CHL1   C12 7321   6.634   3.620   9.753 -0.7024 -0.0537  0.6164
   66CHL1  H12A 7322   6.547   3.572   9.703  1.0536 -1.7039 -1.0543
   66CHL1  H12B 7323   6.704   3.541   9.788 -0.2436  0.9535  2.0277
   66CHL1   C11 7324   6.577   3.686   9.878  0.0804  0.1691  0.5605
   66CHL1  H11A 7325   6.508   3.768   9.849  1.7258  1.4182 -0.0080
   66CHL1  H11B 7326   6.517   3.620   9.944  2.3338 -0.2810  2.2991
   66CHL1    C9 7327   6.680   3.744   9.971  0.2471 -0.5520  0.0052
   66CHL1    H9 7328   6.747   3.657   9.988 -0.2983 -0.6518  1.8603
   66CHL1   C10 7329   6.633   3.799  10.103  0.1883 -0.1245 -0.3677
   66CHL1   C19 7330   6.514   3.886  10.083  1.3122 -0.3993 -0.3179
   66CHL1  H19A 7331   6.480   3.926  10.180  0.0079 -1.6462 -0.2299
   66CHL1  H19B 7332   6.533   3.964  10.006 -0.1000 -1.3500 -1.7006
   66CHL1  H19C 7333   6.427   3.833  10.039  1.9539 -0.3431 -1.7511
   66CHL1    C1 7334   6.588   3.674  10.190 -0.4137  0.6257 -0.0182
   66CHL1   H1A 7335   6.494   3.628  10.152 -0.0456  0.3799 -0.6592
   66CHL1   H1B 7336   6.675   3.607  10.175  1.5523  2.2779  3.0804
   66CHL1    C2 7337   6.567   3.702  10.337  0.0830  0.3834 -0.5309
   66CHL1   H2A 7338   6.519   3.619  10.393 -2.0191  1.3537 -0.7881
   66CHL1   H2B 7339   6.483   3.775  10.341 -2.0502 -1.9503 -0.3876
   66CHL1   C20 7340   6.731   3.642   9.421 -0.5181 -0.3121 -0.2727
   66CHL1   H20 7341   6.683   3.735   9.383 -0.3307 -0.9587 -2.1942
   66CHL1   C21 7342   6.620   3.536   9.427  0.5404  0.2601 -0.1174
   66CHL1  H21A 7343   6.591   3.503   9.325 -1.9131  1.0218  0.2607
   66CHL1  H21B 7344   6.525   3.563   9.479 -0.6354 -3.6102  0.0905
   66CHL1  H21C 7345   6.658   3.455   9.492 -2.0120  0.5376  1.8875
   66CHL1   C22 7346   6.837   3.608   9.315  0.0454  0.0282  0.4990
   66CHL1  H22A 7347   6.910   3.692   9.303 -0.8019  0.8720  1.0742
   66CHL1  H22B 7348   6.885   3.512   9.345 -1.8799 -0.9845  0.4742
   66CHL1   C23 7349   6.784   3.584   9.172 -0.4125 -0.3109 -0.3926
   66CHL1  H23A 7350   6.743   3.481   9.170 -1.1863 -0.0148 -2.8741
   66CHL1  H23B 7351   6.704   3.656   9.142  0.6271  0.7643 -0.6810
   66CHL1   C24 7352   6.889   3.587   9.062 -0.5543  0.1373  0.2033
   66CHL1  H24A 7353   6.933   3.689   9.065  0.3481 -0.2380  3.0413
   66CHL1  H24B 7354   6.968   3.513   9.086  1.1152  2.2256  1.5898
   66CHL1   C25 7355   6.825   3.556   8.926  0.1884  0.2513  0.7640
   66CHL1   H25 7356   6.771   3.459   8.926 -2.9990  1.8805 -0.2132
   66CHL1   C26 7357   6.707   3.654   8.881 -0.0257  0.2495  0.1484
   66CHL1  H26A 7358   6.676   3.631   8.777 -0.1148 -0.6906  0.3770
   66CHL1  H26B 7359   6.624   3.636   8.953  0.4149 -0.5226  0.4764
   66CHL1  H26C 7360   6.734   3.762   8.885 -0.0174  0.2075  2.6225
   66CHL1   C27 7361   6.925   3.529   8.821  0.0812  0.3121 -0.4034
   66CHL1  H27A 7362   6.993   3.617   8.811 -1.4077  1.5174 -0.2264
   66CHL1  H27B 7363   6.975   3.431   8.839 -0.3631 -0.1631 -1.6774
   66CHL1  H27C 7364   6.885   3.513   8.719  2.1189 -0.0953 -1.1948
   67CHL1    C3 7365   1.773   4.538  10.186  0.0520 -0.7336  0.1958
   67CHL1    H3 7366   1.864   4.486  10.150  2.4465 -0.2390  4.8302
   67CHL1    O3 7367   1.749   4.528  10.326 -0.3554 -0.2339  0.0266
   67CHL1   H3' 7368   1.810   4.589  10.368  0.9041 -1.6459  0.3438
   67CHL1    C4 7369   1.804   4.690  10.160  0.1350  0.4372 -0.4391
   67CHL1   H4A 7370   1.722   4.749  10.206  0.2835  0.9055 -0.7706
   67CHL1   H4B 7371   1.888   4.718  10.226 -1.2809  1.2330  1.0836
   67CHL1    C5 7372   1.833   4.710  10.016  0.3141  0.9352 -0.4982
   67CHL1    C6 7373   1.944   4.763   9.972 -0.1654 -0.1830 -0.2066
   67CHL1    H6 7374   2.033   4.784  10.034  0.7841 -0.9337 -1.2850
   67CHL1    C7 7375   1.968   4.795   9.827 -0.0938 -0.0029 -0.9872
   67CHL1   H7A 7376   2.011   4.895   9.809 -1.9524  0.8311 -0.9986
   67CHL1   H7B 7377   2.040   4.720   9.789 -0.5369  0.0498 -1.9471
   67CHL1    C8 7378   1.844   4.779   9.735  0.6400 -0.3155  0.8019
   67CHL1    H8 7379   1.769   4.861   9.746 -1.7582 -2.3936  0.9105
   67CHL1   C14 7380   1.890   4.774   9.596 -0.0995  0.3434  0.6870
   67CHL1   H14 7381   1.953   4.682   9.592  0.1745  0.4758  1.6226
   67CHL1   C15 7382   1.981   4.885   9.540  0.1787 -0.0409  0.1721
   67CHL1  H15A 7383   1.958   4.984   9.585 -2.3640  0.1782 -1.4189
   67CHL1  H15B 7384   2.088   4.869   9.568 -0.1180 -0.6125  1.0195
   67CHL1   C16 7385   1.960   4.878   9.390  0.0302  0.2791 -0.0449
   67CHL1  H16A 7386   1.916   4.973   9.351 -2.4662 -1.7329 -2.5456
   67CHL1  H16B 7387   2.056   4.859   9.337  0.7925 -0.3000  1.5117
   67CHL1   C17 7388   1.857   4.755   9.363 -0.5421 -0.3491  0.3706
   67CHL1   H17 7389   1.923   4.666   9.356  0.5358  0.4551  0.1143
   67CHL1   C13 7390   1.782   4.748   9.490  0.4959  0.9451 -0.8141
   67CHL1   C18 7391   1.679   4.862   9.486 -0.5162  0.0253  0.4290
   67CHL1  H18A 7392   1.587   4.825   9.435 -0.6157  1.9388 -0.8848
   67CHL1  H18B 7393   1.637   4.880   9.587 -0.8999 -2.6354  0.8223
   67CHL1  H18C 7394   1.726   4.954   9.447  0.8612 -0.4095  1.0299
   67CHL1   C12 7395   1.725   4.610   9.524 -0.4129  0.1219  1.0843
   67CHL1  H12A 7396   1.651   4.574   9.450 -0.8152 -1.2462  2.1279
   67CHL1  H12B 7397   1.811   4.540   9.520 -0.2564  0.3477  0.2388
   67CHL1   C11 7398   1.663   4.600   9.667 -0.6728  0.2495  0.0242
   67CHL1  H11A 7399   1.569   4.660   9.668 -2.4194 -2.3317  1.5295
   67CHL1  H11B 7400   1.632   4.496   9.690  0.5305 -0.4137 -1.2470
   67CHL1    C9 7401   1.775   4.645   9.770  0.0140  0.0960  0.4559
   67CHL1    H9 7402   1.847   4.560   9.769 -1.2223 -0.9853  0.1427
   67CHL1   C10 7403   1.728   4.646   9.920  0.4522 -0.9225  0.8131
   67CHL1   C19 7404   1.608   4.736   9.924  0.6508  0.5638 -0.1276
   67CHL1  H19A 7405   1.619   4.843   9.895 -1.0065  0.7535 -0.1717
   67CHL1  H19B 7406   1.526   4.698   9.859  0.5880 -2.3810  1.4988
   67CHL1  H19C 7407   1.567   4.728  10.027 -2.3480  1.6243 -1.1197
   67CHL1    C1 7408   1.680   4.505   9.959  0.2915  0.3348  0.1323
   67CHL1   H1A 7409   1.592   4.456   9.914  1.2208 -0.7722 -0.5496
   67CHL1   H1B 7410   1.758   4.430   9.931  0.1990  0.5361 -0.6932
   67CHL1    C2 7411   1.649   4.486  10.104 -0.1762  0.2149 -0.3886
   67CHL1   H2A 7412   1.632   4.378  10.123  1.3228 -0.1858 -1.1506
   67CHL1   H2B 7413   1.561   4.545  10.139 -1.9603 -2.0523 -0.7745
   67CHL1   C20 7414   1.790   4.769   9.228 -0.9279 -0.2373 -0.0879
   67CHL1   H20 7415   1.728   4.861   9.225  1.1426  1.2385  0.3349
   67CHL1   C21 7416   1.719   4.639   9.200  0.3453 -0.1197 -0.1528
   67CHL1  H21A 7417   1.669   4.647   9.101  1.5109  1.1252 -0.6763
   67CHL1  H21B 7418   1.630   4.626   9.266  0.6296 -1.1570  0.0455
   67CHL1  H21C 7419   1.784   4.549   9.199  0.5636  0.0247  0.4579
   67CHL1   C22 7420   1.880   4.791   9.108 -0.2758 -0.5368  0.7332
   67CHL1  H22A 7421   1.931   4.888   9.132  0.7576 -0.4105 -1.6944
   67CHL1  H22B 7422   1.955   4.711   9.095 -3.2736 -3.3043 -0.8198
   67CHL1   C23 7423   1.821   4.835   8.974  0.3104  0.0377  0.3107
   67CHL1  H23A 7424   1.761   4.753   8.929 -0.3056  0.9860 -0.6478
   67CHL1  H23B 7425   1.746   4.916   8.988  0.9789  1.3060 -2.6771
   67CHL1   C24 7426   1.916   4.904   8.883 -0.8961  0.3590  0.6245
   67CHL1  H24A 7427   1.871   4.984   8.822 -1.1484  0.5522  1.0567
   67CHL1  H24B 7428   1.988   4.953   8.952 -0.3658  1.2824 -0.5625
   67CHL1   C25 7429   2.001   4.815   8.783 -0.4501  0.6237 -0.0293
   67CHL1   H25 7430   2.040   4.727   8.838 -0.0501 -0.8904 -2.5612
   67CHL1   C26 7431   1.918   4.745   8.672 -0.1689 -0.4707  1.0638
   67CHL1  H26A 7432   1.973   4.675   8.606  2.6053  1.2193  1.4516
   67CHL1  H26B 7433   1.831   4.697   8.722 -3.1280  1.4488 -1.8290
   67CHL1  H26C 7434   1.875   4.832   8.619 -1.1140 -0.9832  0.9597
   67CHL1   C27 7435   2.132   4.880   8.729 -1.3795 -0.7401  0.1728
   67CHL1  H27A 7436   2.185   4.819   8.654 -0.1037 -0.7937  1.0766
   67CHL1  H27B 7437   2.118   4.984   8.692  2.1726 -0.3031 -0.2700
   67CHL1  H27C 7438   2.200   4.875   8.817  0.3999  0.9526 -1.0355
   68CHL1    C3 7439   0.587   6.312  10.212 -0.1773 -0.1903 -0.1652
   68CHL1    H3 7440   0.674   6.375  10.188 -1.3391  0.7403 -2.1864
   68CHL1    O3 7441   0.565   6.344  10.348  0.2869 -0.0793  0.0313
   68CHL1   H3' 7442   0.643   6.327  10.402  0.2467  1.9805  0.8134
   68CHL1    C4 7443   0.478   6.344  10.117  0.0335  0.5459 -0.9446
   68CHL1   H4A 7444   0.393   6.275  10.141  0.6742  0.7303  2.3764
   68CHL1   H4B 7445   0.426   6.441  10.129 -3.1928 -1.1395 -0.1142
   68CHL1    C5 7446   0.513   6.316   9.969 -0.0415  0.9961 -0.3163
   68CHL1    C6 7447   0.510   6.412   9.876 -0.2861 -0.0766 -0.6212
   68CHL1    H6 7448   0.475   6.508   9.915 -0.9395 -1.4656  2.5723
   68CHL1    C7 7449   0.546   6.399   9.729 -0.2820  0.3463 -0.3230
   68CHL1   H7A 7450   0.486   6.453   9.653 -2.5092  1.0717  1.8149
   68CHL1   H7B 7451   0.649   6.439   9.718 -0.9829  1.6958 -2.6649
   68CHL1    C8 7452   0.553   6.251   9.684 -0.4913 -0.3179 -0.9187
   68CHL1    H8 7453   0.445   6.227   9.670 -0.0189 -2.9916 -0.5038
   68CHL1   C14 7454   0.628   6.251   9.547 -0.6341  0.4711 -0.1194
   68CHL1   H14 7455   0.730   6.287   9.574 -0.7210  1.6528 -1.2513
   68CHL1   C15 7456   0.575   6.343   9.430 -0.4701  0.0328 -0.4331
   68CHL1  H15A 7457   0.465   6.353   9.439 -0.5522 -0.1788 -1.1407
   68CHL1  H15B 7458   0.619   6.444   9.420  0.1724 -0.2996 -1.0523
   68CHL1   C16 7459   0.623   6.269   9.303  0.1323 -2.4747 -0.5904
   68CHL1  H16A 7460   0.550   6.241   9.224 -0.6470  0.8087 -1.1515
   68CHL1  H16B 7461   0.695   6.340   9.258 -2.0778  0.5543  0.3788
   68CHL1   C17 7462   0.713   6.149   9.349  0.4208  0.7330 -0.5562
   68CHL1   H17 7463   0.813   6.188   9.378  0.8911  0.4095 -1.6482
   68CHL1   C13 7464   0.649   6.110   9.487  0.3054 -0.5681 -0.2846
   68CHL1   C18 7465   0.513   6.046   9.455  0.2078 -0.1548 -0.4807
   68CHL1  H18A 7466   0.454   6.043   9.549  0.6800  1.9762 -0.0727
   68CHL1  H18B 7467   0.449   6.085   9.374 -0.7593 -0.4486  0.1253
   68CHL1  H18C 7468   0.537   5.939   9.432 -0.6530 -0.4526 -0.0243
   68CHL1   C12 7469   0.723   6.021   9.591  0.3193 -0.2536 -0.5558
   68CHL1  H12A 7470   0.732   5.915   9.558 -0.4438 -0.5491  0.1617
   68CHL1  H12B 7471   0.825   6.064   9.601 -0.4307  2.0480 -1.7973
   68CHL1   C11 7472   0.656   6.022   9.735  0.7057 -0.4283 -0.5915
   68CHL1  H11A 7473   0.562   5.962   9.733 -0.9825  2.0718 -0.5073
   68CHL1  H11B 7474   0.728   5.979   9.808 -0.4564 -2.3532 -0.4973
   68CHL1    C9 7475   0.629   6.165   9.787  0.0682  0.4970 -0.3282
   68CHL1    H9 7476   0.729   6.212   9.795 -0.3527  1.1113  2.8193
   68CHL1   C10 7477   0.564   6.181   9.931  0.4189  0.3792 -0.2972
   68CHL1   C19 7478   0.434   6.096   9.921  0.3706  0.2977 -0.2002
   68CHL1  H19A 7479   0.449   5.993   9.884 -0.5923  0.4240 -0.9956
   68CHL1  H19B 7480   0.392   6.085  10.024 -2.2720 -0.0482 -1.2220
   68CHL1  H19C 7481   0.349   6.138   9.863 -0.3090 -0.7823 -0.0105
   68CHL1    C1 7482   0.657   6.135  10.043  0.3338  1.0656 -0.1261
   68CHL1   H1A 7483   0.658   6.024  10.039 -1.6627  0.9487  1.2800
   68CHL1   H1B 7484   0.758   6.172  10.015  0.0831  0.7335 -1.5600
   68CHL1    C2 7485   0.632   6.167  10.193 -0.8486 -0.2771 -0.3996
   68CHL1   H2A 7486   0.727   6.146  10.248  0.4410 -0.9088 -2.7212
   68CHL1   H2B 7487   0.557   6.093  10.229 -0.0962 -0.9835 -0.2433
   68CHL1   C20 7488   0.735   6.039   9.245 -0.2392 -0.4874  0.0713
   68CHL1   H20 7489   0.640   5.991   9.213 -0.6442  0.8865 -0.8515
   68CHL1   C21 7490   0.837   5.938   9.298 -0.2721  0.1104  0.7182
   68CHL1  H21A 7491   0.866   5.863   9.222 -0.5543 -1.6466  2.2721
   68CHL1  H21B 7492   0.797   5.877   9.382 -1.0710  0.7001  0.7798
   68CHL1  H21C 7493   0.925   5.999   9.327 -0.7058  0.6353  0.9382
   68CHL1   C22 7494   0.783   6.099   9.102  0.1581 -0.2232 -0.5491
   68CHL1  H22A 7495   0.696   6.164   9.078 -0.8292 -1.4392 -0.4106
   68CHL1  H22B 7496   0.880   6.152   9.106 -0.2065  0.3984  0.3709
   68CHL1   C23 7497   0.784   5.997   8.983 -0.0794  0.5987 -0.4976
   68CHL1  H23A 7498   0.865   5.923   8.999 -1.9372 -1.8975 -1.9395
   68CHL1  H23B 7499   0.691   5.937   8.991 -0.6623  1.5731  0.3000
   68CHL1   C24 7500   0.777   6.057   8.850 -0.7122  0.6817 -0.0003
   68CHL1  H24A 7501   0.685   6.118   8.843  0.5896  2.6024 -1.8609
   68CHL1  H24B 7502   0.856   6.134   8.834  2.0296 -2.1931 -1.4685
   68CHL1   C25 7503   0.770   5.956   8.737  0.3264  0.5043  0.6037
   68CHL1   H25 7504   0.714   5.865   8.767 -2.0093  1.1018 -1.6086
   68CHL1   C26 7505   0.699   6.030   8.621 -0.5743 -0.1855 -0.1574
   68CHL1  H26A 7506   0.699   5.955   8.539  2.2306  1.1291 -1.4919
   68CHL1  H26B 7507   0.599   6.060   8.659  0.4609  1.7232  1.2712
   68CHL1  H26C 7508   0.764   6.118   8.599 -0.6993  0.6908  2.6023
   68CHL1   C27 7509   0.910   5.909   8.696  0.3901  0.4859 -0.0470
   68CHL1  H27A 7510   0.982   5.987   8.662 -0.2973  0.4960 -1.5367
   68CHL1  H27B 7511   0.956   5.862   8.786 -0.9651  0.1076  0.4717
   68CHL1  H27C 7512   0.903   5.838   8.611  1.3281 -2.6215  2.2437
   69CHL1    C3 7513   3.901   0.705   6.705  0.5227  0.5992 -0.1073
   69CHL1    H3 7514   3.981   0.633   6.731 -0.9257 -0.8979  0.3907
   69CHL1    O3 7515   3.889   0.744   6.574 -0.5575 -0.3131  0.1710
   69CHL1   H3' 7516   3.980   0.764   6.554  0.6872 -3.0438  2.4515
   69CHL1    C4 7517   3.766   0.636   6.748 -0.3054  0.0169 -0.5549
   69CHL1   H4A 7518   3.684   0.704   6.715 -2.0973 -1.3715  0.8588
   69CHL1   H4B 7519   3.768   0.542   6.689 -0.7774 -0.2957 -0.0797
   69CHL1    C5 7520   3.756   0.616   6.896 -0.6074  0.0923  0.0687
   69CHL1    C6 7521   3.739   0.495   6.942  0.4722 -0.1817  0.9794
   69CHL1    H6 7522   3.735   0.402   6.884  0.8081 -0.9856  2.2055
   69CHL1    C7 7523   3.731   0.472   7.087  0.1358  0.4342  0.3265
   69CHL1   H7A 7524   3.639   0.410   7.098  1.7760 -2.9428 -2.8606
   69CHL1   H7B 7525   3.818   0.408   7.115  0.2100  0.6285  0.5399
   69CHL1    C8 7526   3.727   0.592   7.180  0.3677  0.4725  0.1919
   69CHL1    H8 7527   3.621   0.625   7.183 -0.5501 -2.2873  1.4978
   69CHL1   C14 7528   3.770   0.558   7.318  0.7160  0.9502  0.3260
   69CHL1   H14 7529   3.878   0.530   7.316  1.0933  2.3366  0.6934
   69CHL1   C15 7530   3.713   0.424   7.369  0.2535 -0.0573 -0.0660
   69CHL1  H15A 7531   3.603   0.437   7.354  0.4129  1.0493 -0.4175
   69CHL1  H15B 7532   3.758   0.335   7.321  1.2839 -0.6301  1.8594
   69CHL1   C16 7533   3.762   0.436   7.512  0.2539  0.2494  0.1644
   69CHL1  H16A 7534   3.677   0.393   7.570 -1.6128  2.4096 -0.7836
   69CHL1  H16B 7535   3.847   0.365   7.512 -0.4747 -0.6543 -0.6059
   69CHL1   C17 7536   3.797   0.583   7.554 -0.5412 -0.1024 -0.2070
   69CHL1   H17 7537   3.907   0.594   7.564 -0.5574  0.8767 -0.9630
   69CHL1   C13 7538   3.752   0.667   7.426  1.0912  0.2512  0.0449
   69CHL1   C18 7539   3.598   0.715   7.437 -0.1308  0.2467 -0.2563
   69CHL1  H18A 7540   3.543   0.634   7.490  2.1910 -1.7942 -0.7434
   69CHL1  H18B 7541   3.599   0.806   7.500 -0.7263  0.0619  0.0251
   69CHL1  H18C 7542   3.560   0.749   7.338  1.4864  0.8696 -0.7008
   69CHL1   C12 7543   3.828   0.791   7.384 -0.3497 -0.0809  0.0616
   69CHL1  H12A 7544   3.831   0.879   7.452  3.1472 -0.5077  0.6691
   69CHL1  H12B 7545   3.935   0.765   7.369 -0.3329 -0.0444  0.1176
   69CHL1   C11 7546   3.794   0.830   7.238  0.7318  0.0286 -0.5540
   69CHL1  H11A 7547   3.688   0.862   7.237  0.2237 -1.5510 -2.1593
   69CHL1  H11B 7548   3.855   0.918   7.210 -1.4468  2.7455  2.5127
   69CHL1    C9 7549   3.804   0.714   7.130 -0.4149  0.3222 -0.0317
   69CHL1    H9 7550   3.904   0.669   7.141 -0.6790 -0.2175  0.1953
   69CHL1   C10 7551   3.781   0.746   6.977 -0.5118 -0.1003  0.1533
   69CHL1   C19 7552   3.674   0.854   6.969  0.2350 -0.2328 -0.0041
   69CHL1  H19A 7553   3.709   0.949   7.014  0.2706 -0.0166 -0.4922
   69CHL1  H19B 7554   3.648   0.869   6.862 -2.6527 -2.3236  0.2606
   69CHL1  H19C 7555   3.583   0.815   7.021  0.8980 -2.2330 -0.2397
   69CHL1    C1 7556   3.916   0.805   6.930  1.4315 -0.4310  0.6946
   69CHL1   H1A 7557   3.926   0.907   6.973  1.1239  1.7185 -3.8543
   69CHL1   H1B 7558   3.999   0.739   6.963  2.0521 -0.2286 -0.4283
   69CHL1    C2 7559   3.922   0.832   6.780  0.2620 -0.2953 -0.0022
   69CHL1   H2A 7560   4.019   0.879   6.755  0.1446 -0.1725 -0.2389
   69CHL1   H2B 7561   3.835   0.895   6.751 -0.4645 -1.3434 -0.1309
   69CHL1   C20 7562   3.737   0.626   7.689 -0.4128  0.2177 -0.9787
   69CHL1   H20 7563   3.629   0.599   7.693 -0.2640 -0.3667 -0.8010
   69CHL1   C21 7564   3.757   0.776   7.729 -0.3534  0.8306  0.0750
   69CHL1  H21A 7565   3.743   0.791   7.838  1.0189 -1.6108  0.6686
   69CHL1  H21B 7566   3.669   0.825   7.683 -2.1696 -1.1855  1.2050
   69CHL1  H21C 7567   3.848   0.823   7.686  1.6943  0.4823  3.6401
   69CHL1   C22 7568   3.790   0.527   7.806  0.4739 -0.1155  1.0917
   69CHL1  H22A 7569   3.734   0.546   7.900 -2.0077  1.4158 -0.5661
   69CHL1  H22B 7570   3.759   0.425   7.773  1.7268 -0.0419 -0.4323
   69CHL1   C23 7571   3.937   0.539   7.842 -0.0308  0.0133 -0.5802
   69CHL1  H23A 7572   3.994   0.509   7.751  0.7550 -1.1520  0.2776
   69CHL1  H23B 7573   3.967   0.643   7.868  0.7809 -0.7799  2.0038
   69CHL1   C24 7574   3.978   0.447   7.956 -0.0364  0.8746  0.4707
   69CHL1  H24A 7575   3.951   0.342   7.930  5.0943 -0.4217 -0.8025
   69CHL1  H24B 7576   4.089   0.448   7.962  0.2638 -1.2179 -2.5330
   69CHL1   C25 7577   3.910   0.475   8.095 -0.2559  0.7850 -0.1440
   69CHL1   H25 7578   3.803   0.447   8.086  0.0251 -0.0456 -1.1669
   69CHL1   C26 7579   3.970   0.392   8.206 -0.3204  0.2585  0.2709
   69CHL1  H26A 7580   4.067   0.435   8.239  0.2833 -1.0352  0.2441
   69CHL1  H26B 7581   3.905   0.390   8.296  0.4965 -1.6811  0.8556
   69CHL1  H26C 7582   4.003   0.288   8.186  0.6734  0.2702  1.7372
   69CHL1   C27 7583   3.919   0.621   8.133 -0.0227 -0.0339  0.2123
   69CHL1  H27A 7584   4.021   0.664   8.132 -0.6111  1.4964  1.4897
   69CHL1  H27B 7585   3.864   0.686   8.062  0.0403  0.3252  0.4859
   69CHL1  H27C 7586   3.883   0.637   8.237  0.7528  0.1854  0.4556
   70CHL1    C3 7587   4.423   5.690   6.962  0.2216  0.4631 -0.3667
   70CHL1    H3 7588   4.408   5.581   6.978 -1.7808  0.9551  1.5294
   70CHL1    O3 7589   4.472   5.711   6.832 -0.0562  0.9836  0.0650
   70CHL1   H3' 7590   4.558   5.670   6.824 -0.2181  0.7503 -0.5368
   70CHL1    C4 7591   4.292   5.763   6.983  0.8495 -0.7224 -0.0598
   70CHL1   H4A 7592   4.315   5.868   6.955  2.1245 -0.7247  0.9347
   70CHL1   H4B 7593   4.215   5.724   6.911 -0.2756 -0.4241  0.9490
   70CHL1    C5 7594   4.241   5.753   7.127  0.0686 -0.5761  0.0664
   70CHL1    C6 7595   4.119   5.700   7.153 -0.1944 -0.0599 -0.2704
   70CHL1    H6 7596   4.054   5.673   7.069  0.4842 -0.0108 -0.8198
   70CHL1    C7 7597   4.066   5.666   7.291 -0.2970  0.1670  0.2552
   70CHL1   H7A 7598   3.961   5.703   7.291 -0.2753  0.2653 -0.9263
   70CHL1   H7B 7599   4.087   5.558   7.304  4.1679  0.6120 -1.3701
   70CHL1    C8 7600   4.156   5.737   7.398  0.2797  0.3300 -0.3138
   70CHL1    H8 7601   4.139   5.847   7.397  2.4610  0.7002 -0.6250
   70CHL1   C14 7602   4.122   5.683   7.539  0.2966 -0.4244 -0.5211
   70CHL1   H14 7603   4.127   5.572   7.530  0.3640 -0.5534  0.8604
   70CHL1   C15 7604   3.970   5.695   7.586 -0.3874 -0.0636  0.4906
   70CHL1  H15A 7605   3.939   5.802   7.581 -0.2765  0.0624  2.0406
   70CHL1  H15B 7606   3.898   5.634   7.528 -1.6059  2.8823 -1.3202
   70CHL1   C16 7607   3.971   5.670   7.742  0.4161 -0.4462 -1.1637
   70CHL1  H16A 7608   3.939   5.755   7.806  2.1081  0.2762 -1.2327
   70CHL1  H16B 7609   3.911   5.579   7.767 -0.1122 -0.2910 -1.8353
   70CHL1   C17 7610   4.123   5.642   7.774 -0.1074  0.3449 -0.1582
   70CHL1   H17 7611   4.156   5.539   7.751 -0.3622  0.0981  0.5492
   70CHL1   C13 7612   4.198   5.728   7.667 -0.1435 -0.3627 -0.3336
   70CHL1   C18 7613   4.180   5.883   7.696 -0.0729 -0.4553  0.7211
   70CHL1  H18A 7614   4.078   5.920   7.720 -0.1476 -0.6191  0.6635
   70CHL1  H18B 7615   4.253   5.928   7.767  3.0496  0.3572 -2.7101
   70CHL1  H18C 7616   4.197   5.941   7.603  1.8328 -1.2578  0.5089
   70CHL1   C12 7617   4.347   5.700   7.631  1.3784  0.5940  0.0931
   70CHL1  H12A 7618   4.408   5.735   7.717  0.4602 -2.4083  2.1405
   70CHL1  H12B 7619   4.359   5.590   7.625 -1.6700  0.2254 -2.2347
   70CHL1   C11 7620   4.398   5.763   7.500  0.4858 -0.0507  0.5541
   70CHL1  H11A 7621   4.392   5.873   7.511 -0.8823 -0.1626  1.1531
   70CHL1  H11B 7622   4.502   5.726   7.490 -0.7179 -3.1224 -2.6094
   70CHL1    C9 7623   4.307   5.719   7.373 -0.1537 -0.1203  0.2853
   70CHL1    H9 7624   4.335   5.612   7.365 -0.6006 -0.3291  1.3788
   70CHL1   C10 7625   4.351   5.783   7.236 -0.3779  0.6161 -0.4938
   70CHL1   C19 7626   4.351   5.937   7.237  0.3169  0.1762 -0.0215
   70CHL1  H19A 7627   4.256   5.991   7.257  1.3361  1.9000  0.4415
   70CHL1  H19B 7628   4.431   5.975   7.305  3.0702  0.1578 -3.0084
   70CHL1  H19C 7629   4.404   5.976   7.148 -0.3179  0.9483 -0.0770
   70CHL1    C1 7630   4.493   5.728   7.199  0.6859  0.2004  0.1749
   70CHL1   H1A 7631   4.564   5.785   7.262  2.2285 -0.8878 -0.5220
   70CHL1   H1B 7632   4.497   5.620   7.226  0.3979 -0.1457 -1.0898
   70CHL1    C2 7633   4.532   5.743   7.053  0.4681 -0.0954  0.4416
   70CHL1   H2A 7634   4.625   5.689   7.027  0.4445 -1.2048  2.4670
   70CHL1   H2B 7635   4.550   5.847   7.021  2.1292 -1.0202 -1.8949
   70CHL1   C20 7636   4.145   5.666   7.925  0.3927  0.2657  0.6278
   70CHL1   H20 7637   4.116   5.770   7.953  0.1656  0.3612  0.0442
   70CHL1   C21 7638   4.291   5.637   7.958 -0.2119  0.7262 -0.3790
   70CHL1  H21A 7639   4.312   5.641   8.067 -0.6276 -1.2289 -0.1816
   70CHL1  H21B 7640   4.364   5.701   7.906  1.9026 -0.8143  0.5085
   70CHL1  H21C 7641   4.302   5.531   7.925  1.5425  0.1649  1.7252
   70CHL1   C22 7642   4.052   5.568   8.006 -0.4733  0.0265 -0.3170
   70CHL1  H22A 7643   3.945   5.597   7.995 -0.6218 -0.2916  0.2657
   70CHL1  H22B 7644   4.066   5.464   7.970 -1.7671 -0.2372 -0.0891
   70CHL1   C23 7645   4.057   5.577   8.159  0.3341  0.0047 -0.2729
   70CHL1  H23A 7646   3.977   5.506   8.190  0.4984 -0.8245 -1.6140
   70CHL1  H23B 7647   4.148   5.518   8.185  0.3482 -0.4817 -1.3643
   70CHL1   C24 7648   4.047   5.716   8.225  0.0887 -0.8056  0.3592
   70CHL1  H24A 7649   4.135   5.781   8.205 -0.3979  0.6548  2.5436
   70CHL1  H24B 7650   3.960   5.760   8.172 -0.7573 -3.3920 -0.5372
   70CHL1   C25 7651   4.019   5.715   8.379  0.3802 -0.8145 -0.4018
   70CHL1   H25 7652   3.929   5.651   8.391  0.1466 -0.3318  0.5355
   70CHL1   C26 7653   4.127   5.642   8.451  0.1729  0.5146 -0.2027
   70CHL1  H26A 7654   4.119   5.642   8.562  0.8266  1.1037 -0.1514
   70CHL1  H26B 7655   4.133   5.532   8.432 -0.2714  0.1582  1.5976
   70CHL1  H26C 7656   4.218   5.686   8.405 -0.0361  1.1064 -0.0606
   70CHL1   C27 7657   3.998   5.861   8.437  0.1393  0.4211 -0.0158
   70CHL1  H27A 7658   3.931   5.920   8.371 -1.6525  0.7288  2.0018
   70CHL1  H27B 7659   3.953   5.857   8.538  0.8715 -3.1166  0.3180
   70CHL1  H27C 7660   4.095   5.916   8.440 -0.0348  0.7389 -0.1773
   71CHL1    C3 7661   4.394   0.459   6.678 -0.4037  0.8166 -0.2796
   71CHL1    H3 7662   4.342   0.363   6.697 -0.4078  1.2044  1.8795
   71CHL1    O3 7663   4.402   0.478   6.533  0.0567 -0.1777 -1.2340
   71CHL1   H3' 7664   4.311   0.478   6.503  0.2606 -2.0331 -1.9390
   71CHL1    C4 7665   4.313   0.571   6.746 -0.6245  0.2769 -0.6185
   71CHL1   H4A 7666   4.379   0.655   6.714  2.7402 -1.2805  1.5938
   71CHL1   H4B 7667   4.217   0.588   6.693 -0.1152  0.5684 -1.4858
   71CHL1    C5 7668   4.312   0.561   6.896 -0.3810 -0.0542 -0.3278
   71CHL1    C6 7669   4.201   0.569   6.971  0.4034 -0.3679  0.0060
   71CHL1    H6 7670   4.106   0.590   6.919  0.1559  1.3424  1.0471
   71CHL1    C7 7671   4.193   0.565   7.120 -0.1549 -0.0304 -0.0159
   71CHL1   H7A 7672   4.154   0.659   7.162  0.4559  0.2492 -0.0573
   71CHL1   H7B 7673   4.148   0.472   7.161 -1.0318 -0.3460 -1.5947
   71CHL1    C8 7674   4.335   0.569   7.185 -0.4002  0.2709  0.0617
   71CHL1    H8 7675   4.357   0.678   7.185  1.8368 -0.1290  1.4816
   71CHL1   C14 7676   4.327   0.509   7.330 -0.5671 -0.1155  0.5218
   71CHL1   H14 7677   4.315   0.401   7.310  1.9964 -0.5990  1.3039
   71CHL1   C15 7678   4.206   0.558   7.414  0.2306 -0.4551 -0.1651
   71CHL1  H15A 7679   4.195   0.667   7.399  1.4460 -0.6821 -4.0262
   71CHL1  H15B 7680   4.115   0.508   7.375 -0.6724  1.1456 -0.1690
   71CHL1   C16 7681   4.246   0.527   7.565  0.4068 -0.6608 -0.1823
   71CHL1  H16A 7682   4.235   0.629   7.608 -2.8333 -0.4452 -1.2454
   71CHL1  H16B 7683   4.170   0.459   7.609  1.2839 -0.5031  1.6762
   71CHL1   C17 7684   4.389   0.469   7.551  0.0169  0.4982 -0.1798
   71CHL1   H17 7685   4.373   0.361   7.530  0.5872  0.1710  0.9683
   71CHL1   C13 7686   4.457   0.515   7.419  0.7702 -0.4729 -0.1767
   71CHL1   C18 7687   4.510   0.659   7.436 -0.4584  0.1635  0.1100
   71CHL1  H18A 7688   4.446   0.721   7.503  1.9464  1.2003  1.5664
   71CHL1  H18B 7689   4.608   0.642   7.485 -0.5311 -0.1524  0.1495
   71CHL1  H18C 7690   4.531   0.707   7.338  2.3106 -1.7545 -0.3351
   71CHL1   C12 7691   4.555   0.429   7.342 -0.1093  0.6791  0.4763
   71CHL1  H12A 7692   4.659   0.435   7.379  0.3207  0.3800 -0.6544
   71CHL1  H12B 7693   4.515   0.325   7.348 -0.2059  0.8060  3.7531
   71CHL1   C11 7694   4.578   0.469   7.190  0.4129  0.1587 -0.1260
   71CHL1  H11A 7695   4.637   0.563   7.198 -0.2961  0.5725  0.4106
   71CHL1  H11B 7696   4.644   0.397   7.140 -0.1042  1.1610 -2.3688
   71CHL1    C9 7697   4.445   0.490   7.106 -0.2696  0.2619 -0.0138
   71CHL1    H9 7698   4.411   0.384   7.102  1.2908 -0.2160 -2.0383
   71CHL1   C10 7699   4.457   0.532   6.960 -0.3801 -0.6164  0.6531
   71CHL1   C19 7700   4.526   0.664   6.953 -0.4780 -0.6405  0.7050
   71CHL1  H19A 7701   4.563   0.693   6.853 -0.3808  0.3039  1.0023
   71CHL1  H19B 7702   4.466   0.751   6.988  0.3407  0.0095  0.5158
   71CHL1  H19C 7703   4.618   0.662   7.015 -0.4513 -0.3387  0.6792
   71CHL1    C1 7704   4.539   0.427   6.882  0.0522 -0.2576  0.1303
   71CHL1   H1A 7705   4.646   0.426   6.909 -0.1013 -1.6226  0.7781
   71CHL1   H1B 7706   4.519   0.320   6.903  1.5636 -0.6951 -0.5682
   71CHL1    C2 7707   4.530   0.454   6.731 -0.0093  0.1997  0.8102
   71CHL1   H2A 7708   4.592   0.376   6.682 -0.9707 -1.0210  1.4885
   71CHL1   H2B 7709   4.589   0.544   6.705  0.1923  0.1195  0.9853
   71CHL1   C20 7710   4.466   0.477   7.682 -0.6653  0.5326  0.2804
   71CHL1   H20 7711   4.487   0.585   7.696 -0.7149  0.6310 -0.3429
   71CHL1   C21 7712   4.597   0.387   7.664 -0.1054 -0.7982  0.7184
   71CHL1  H21A 7713   4.661   0.383   7.755  0.8853 -0.2039  0.0633
   71CHL1  H21B 7714   4.656   0.441   7.587 -1.6615 -0.6033 -0.3753
   71CHL1  H21C 7715   4.585   0.283   7.627 -0.6474 -0.0303 -1.3552
   71CHL1   C22 7716   4.393   0.428   7.810  0.4551  0.2512 -0.4374
   71CHL1  H22A 7717   4.286   0.457   7.809  0.9769  2.3435 -0.5228
   71CHL1  H22B 7718   4.374   0.320   7.795  0.4387 -0.0193  1.2569
   71CHL1   C23 7719   4.463   0.446   7.943 -0.5689  0.2032  1.0722
   71CHL1  H23A 7720   4.566   0.404   7.936 -1.6078 -2.1875 -1.6896
   71CHL1  H23B 7721   4.486   0.554   7.961  0.6782  0.4154 -1.3895
   71CHL1   C24 7722   4.382   0.391   8.053 -0.9162  0.4937 -0.6999
   71CHL1  H24A 7723   4.293   0.456   8.044  0.2461  1.9538 -2.4432
   71CHL1  H24B 7724   4.362   0.282   8.039  0.0049  0.0890  0.8778
   71CHL1   C25 7725   4.431   0.419   8.199 -0.5517  0.0264  0.2676
   71CHL1   H25 7726   4.350   0.387   8.268  1.7451 -1.3580  2.4929
   71CHL1   C26 7727   4.552   0.333   8.234 -0.2364  0.7708  0.2629
   71CHL1  H26A 7728   4.543   0.226   8.206 -0.7005  1.1673 -1.1685
   71CHL1  H26B 7729   4.638   0.380   8.182 -0.1457  1.8516  1.3265
   71CHL1  H26C 7730   4.577   0.341   8.342 -0.5487 -2.1555  0.6171
   71CHL1   C27 7731   4.463   0.567   8.225  0.2220  0.6265  0.0493
   71CHL1  H27A 7732   4.488   0.589   8.331  1.3120  0.0675 -0.0732
   71CHL1  H27B 7733   4.542   0.613   8.161 -0.4502  0.0919 -1.1941
   71CHL1  H27C 7734   4.374   0.629   8.205 -0.7463  0.2025  2.6637
   72CHL1    C3 7735   5.371   6.196   6.873  0.0802 -0.5006 -0.2265
   72CHL1    H3 7736   5.385   6.299   6.834  0.2465  0.5973  2.4725
   72CHL1    O3 7737   5.357   6.097   6.779  0.2391 -0.3583  0.6299
   72CHL1   H3' 7738   5.263   6.079   6.767 -0.1538  1.8697 -0.1617
   72CHL1    C4 7739   5.482   6.160   6.985 -0.0681 -0.3765 -0.1180
   72CHL1   H4A 7740   5.456   6.062   7.031 -0.4070  0.9428  2.7154
   72CHL1   H4B 7741   5.583   6.149   6.939 -0.5393 -1.5721 -0.9306
   72CHL1    C5 7742   5.487   6.266   7.096  0.1368  0.6972 -0.8493
   72CHL1    C6 7743   5.591   6.344   7.133 -0.4121  0.4979 -0.3080
   72CHL1    H6 7744   5.692   6.326   7.092  0.5295  0.5808  1.8129
   72CHL1    C7 7745   5.586   6.438   7.254  0.5163  0.8130  0.4141
   72CHL1   H7A 7746   5.675   6.420   7.320  0.4347 -1.3929  0.0172
   72CHL1   H7B 7747   5.579   6.544   7.224 -0.3330  0.4151 -0.8649
   72CHL1    C8 7748   5.466   6.401   7.348  0.1728  0.2019  0.0755
   72CHL1    H8 7749   5.484   6.300   7.392 -3.6661 -1.0692 -0.8812
   72CHL1   C14 7750   5.450   6.509   7.462 -0.5982  0.1079 -0.0942
   72CHL1   H14 7751   5.413   6.599   7.407 -2.9011  0.4951  1.8987
   72CHL1   C15 7752   5.577   6.562   7.540  0.0678  0.3993  0.5326
   72CHL1  H15A 7753   5.635   6.470   7.564 -0.3934  0.1554  0.7388
   72CHL1  H15B 7754   5.635   6.639   7.484  1.3212  0.1730  1.4682
   72CHL1   C16 7755   5.518   6.605   7.676  0.0897 -0.1729 -0.5897
   72CHL1  H16A 7756   5.555   6.535   7.753  0.3757  0.6792  0.0613
   72CHL1  H16B 7757   5.540   6.709   7.708 -1.2288 -0.1344  0.2665
   72CHL1   C17 7758   5.364   6.591   7.660  0.3294 -0.4499  0.0098
   72CHL1   H17 7759   5.329   6.681   7.606  1.1336  0.2662  0.6642
   72CHL1   C13 7760   5.343   6.477   7.566  0.5565  0.5096  0.1893
   72CHL1   C18 7761   5.369   6.342   7.622  0.0658 -0.3951  0.4020
   72CHL1  H18A 7762   5.374   6.270   7.537  3.3716  0.6057 -0.3950
   72CHL1  H18B 7763   5.462   6.349   7.682 -1.2978  0.7244  2.5203
   72CHL1  H18C 7764   5.287   6.319   7.693 -0.3883 -0.5581 -0.1634
   72CHL1   C12 7765   5.210   6.473   7.489  0.0077 -0.3489 -0.4099
   72CHL1  H12A 7766   5.134   6.438   7.563  1.2362 -0.8429  0.6454
   72CHL1  H12B 7767   5.176   6.574   7.456 -2.0193 -0.7586  0.2573
   72CHL1   C11 7768   5.209   6.376   7.373 -0.2595  0.6850  0.0433
   72CHL1  H11A 7769   5.196   6.276   7.419  2.3343  1.0743  1.8499
   72CHL1  H11B 7770   5.119   6.394   7.310  0.4002  2.0623 -0.5541
   72CHL1    C9 7771   5.334   6.385   7.275  0.2859  0.1914  1.0746
   72CHL1    H9 7772   5.319   6.485   7.229 -0.5035 -0.1981  0.4661
   72CHL1   C10 7773   5.346   6.276   7.164 -0.9855  0.0606  0.8804
   72CHL1   C19 7774   5.315   6.140   7.238 -0.3223 -0.2961  0.2792
   72CHL1  H19A 7775   5.214   6.132   7.283 -0.0731  1.6765  1.3001
   72CHL1  H19B 7776   5.318   6.053   7.169 -1.5018  0.2484 -0.4906
   72CHL1  H19C 7777   5.390   6.113   7.315 -1.3122  1.4580  1.9573
   72CHL1    C1 7778   5.238   6.316   7.059 -0.4516 -0.3118  0.3295
   72CHL1   H1A 7779   5.138   6.308   7.106 -1.0828 -1.8627 -1.1610
   72CHL1   H1B 7780   5.237   6.423   7.031 -1.0061 -0.1660  0.8884
   72CHL1    C2 7781   5.230   6.222   6.933 -0.1720 -0.4103 -0.3121
   72CHL1   H2A 7782   5.160   6.270   6.861  0.3544 -1.6818 -1.7123
   72CHL1   H2B 7783   5.195   6.120   6.959 -0.0974 -0.1247  1.0133
   72CHL1   C20 7784   5.288   6.591   7.797  0.1433 -0.1064 -0.3973
   72CHL1   H20 7785   5.268   6.490   7.839 -0.4778  0.4928  0.8270
   72CHL1   C21 7786   5.159   6.674   7.768 -0.3043 -0.3823  0.2128
   72CHL1  H21A 7787   5.076   6.680   7.842 -1.6068 -0.8385 -1.1626
   72CHL1  H21B 7788   5.117   6.652   7.668  1.2648 -0.7138 -0.4001
   72CHL1  H21C 7789   5.194   6.779   7.756  1.5426 -0.2659  4.6677
   72CHL1   C22 7790   5.363   6.675   7.909 -0.2498 -0.3830  0.5842
   72CHL1  H22A 7791   5.470   6.643   7.909  0.0203  0.0721 -2.7545
   72CHL1  H22B 7792   5.353   6.778   7.868 -0.4299 -0.5857  0.1181
   72CHL1   C23 7793   5.295   6.653   8.042 -0.1370  0.1328 -0.2186
   72CHL1  H23A 7794   5.191   6.692   8.044  0.1674  0.9980  1.9075
   72CHL1  H23B 7795   5.281   6.544   8.057  0.3042  0.1045 -0.0021
   72CHL1   C24 7796   5.361   6.712   8.165  0.1522  0.6320  0.0969
   72CHL1  H24A 7797   5.453   6.652   8.183  0.4599  1.6277  2.0670
   72CHL1  H24B 7798   5.391   6.815   8.137  0.1183  1.1927  2.0404
   72CHL1   C25 7799   5.274   6.722   8.282 -1.1488  0.1118  0.7244
   72CHL1   H25 7800   5.174   6.761   8.256 -1.8956 -0.9193  1.9556
   72CHL1   C26 7801   5.256   6.595   8.359  0.2758  0.3403 -0.3659
   72CHL1  H26A 7802   5.233   6.515   8.285 -2.0810 -0.4504  1.1028
   72CHL1  H26B 7803   5.351   6.555   8.401  0.6212  1.2483 -0.2528
   72CHL1  H26C 7804   5.177   6.587   8.437  0.4708 -2.5405 -0.3670
   72CHL1   C27 7805   5.340   6.831   8.380  0.3785 -0.3711  0.5687
   72CHL1  H27A 7806   5.276   6.847   8.469 -0.0729 -1.2996  0.4201
   72CHL1  H27B 7807   5.442   6.800   8.411  1.1692 -0.3844 -1.7825
   72CHL1  H27C 7808   5.351   6.928   8.326 -0.4158 -1.2464 -1.2378
   73CHL1    C3 7809   4.077   6.448   6.840 -0.1330 -0.4680  1.2149
   73CHL1    H3 7810   4.001   6.369   6.856 -0.8992  0.0484  0.2948
   73CHL1    O3 7811   4.067   6.493   6.707  0.0980 -0.3461  0.3841
   73CHL1   H3' 7812   4.019   6.425   6.660 -0.3886 -0.1997  0.6555
   73CHL1    C4 7813   4.048   6.563   6.940 -0.4623 -0.1299 -0.2752
   73CHL1   H4A 7814   4.114   6.646   6.908 -0.3490  0.1192  0.5878
   73CHL1   H4B 7815   3.948   6.599   6.909  1.1245  0.0669 -6.3956
   73CHL1    C5 7816   4.066   6.534   7.089  0.4096 -0.3965 -0.3810
   73CHL1    C6 7817   3.965   6.553   7.176  0.4626  0.8436 -0.0825
   73CHL1    H6 7818   3.882   6.618   7.146  0.7797  1.3041  0.0265
   73CHL1    C7 7819   3.966   6.524   7.325 -0.0199  0.5574 -0.0476
   73CHL1   H7A 7820   3.929   6.611   7.382  0.6572  0.1493  1.0390
   73CHL1   H7B 7821   3.891   6.446   7.352 -0.9123  0.9736 -1.2328
   73CHL1    C8 7822   4.115   6.499   7.375  0.3902  0.9967 -0.0775
   73CHL1    H8 7823   4.170   6.596   7.377  0.9612  0.6971  1.8841
   73CHL1   C14 7824   4.108   6.438   7.519  0.6035 -0.0293  0.5642
   73CHL1   H14 7825   4.054   6.341   7.511 -0.7132  0.5840  1.5589
   73CHL1   C15 7826   4.028   6.518   7.624 -0.4294  0.2864 -0.1547
   73CHL1  H15A 7827   4.056   6.623   7.602  0.5461 -0.2721 -1.7779
   73CHL1  H15B 7828   3.919   6.496   7.624 -0.2702 -0.6482  1.2146
   73CHL1   C16 7829   4.094   6.477   7.759  0.4553  0.2536  0.4239
   73CHL1  H16A 7830   4.146   6.561   7.810 -0.2531  1.0414 -0.1261
   73CHL1  H16B 7831   4.014   6.431   7.820 -1.3134  1.7081 -0.6661
   73CHL1   C17 7832   4.209   6.369   7.716 -0.3921 -0.6545  0.1479
   73CHL1   H17 7833   4.166   6.267   7.710  0.6012 -1.0649 -0.1833
   73CHL1   C13 7834   4.250   6.401   7.570 -0.4433 -0.7676 -0.7377
   73CHL1   C18 7835   4.331   6.532   7.579 -0.0657  0.0933 -0.3868
   73CHL1  H18A 7836   4.426   6.517   7.636  0.3639  2.6180 -0.2921
   73CHL1  H18B 7837   4.358   6.571   7.479  1.9901  1.2362  0.5479
   73CHL1  H18C 7838   4.295   6.611   7.649 -0.0377 -1.7713  1.8704
   73CHL1   C12 7839   4.298   6.289   7.480  0.4369 -0.5949 -0.1224
   73CHL1  H12A 7840   4.396   6.254   7.517  0.1790 -2.2698 -0.9544
   73CHL1  H12B 7841   4.232   6.200   7.482  1.1198 -1.3387 -3.7345
   73CHL1   C11 7842   4.313   6.347   7.330 -0.2162  0.4155  0.1178
   73CHL1  H11A 7843   4.402   6.414   7.335  1.1521 -1.4094  1.5218
   73CHL1  H11B 7844   4.343   6.260   7.268 -0.6183  0.5988 -0.3439
   73CHL1    C9 7845   4.186   6.407   7.270  0.0088 -0.8658 -0.5386
   73CHL1    H9 7846   4.106   6.331   7.253 -0.1861 -0.4195 -1.6863
   73CHL1   C10 7847   4.193   6.462   7.124 -0.6690 -0.7031 -0.2986
   73CHL1   C19 7848   4.311   6.564   7.120  0.0038 -0.2560 -0.3596
   73CHL1  H19A 7849   4.314   6.628   7.029  1.4747 -1.4157 -1.1730
   73CHL1  H19B 7850   4.307   6.617   7.217 -4.8165  0.5487 -0.7660
   73CHL1  H19C 7851   4.402   6.501   7.112  0.7001  0.3966  1.8492
   73CHL1    C1 7852   4.219   6.344   7.018  0.5764  0.3646  0.3473
   73CHL1   H1A 7853   4.319   6.298   7.033  1.6920  2.0763 -1.3675
   73CHL1   H1B 7854   4.147   6.262   7.040  1.1066 -0.7308 -1.7085
   73CHL1    C2 7855   4.214   6.385   6.865 -0.0784  0.3084  0.2411
   73CHL1   H2A 7856   4.226   6.294   6.802 -0.2011  1.1048 -0.9812
   73CHL1   H2B 7857   4.295   6.459   6.847 -0.2897  0.4835 -0.0067
   73CHL1   C20 7858   4.319   6.366   7.824  0.3842 -0.3607 -0.7538
   73CHL1   H20 7859   4.375   6.462   7.823  0.8242 -0.4787  2.5704
   73CHL1   C21 7860   4.404   6.250   7.792 -0.0438  0.3540  0.1377
   73CHL1  H21A 7861   4.340   6.161   7.778 -0.5707  0.7679 -0.1171
   73CHL1  H21B 7862   4.472   6.222   7.875  1.5633  0.0165 -1.2320
   73CHL1  H21C 7863   4.461   6.262   7.698  1.6043 -0.9360  0.9196
   73CHL1   C22 7864   4.268   6.354   7.970  0.1698  0.1188 -1.2935
   73CHL1  H22A 7865   4.212   6.441   8.010 -1.6518 -1.0559 -1.1676
   73CHL1  H22B 7866   4.202   6.265   7.964 -0.1225  0.2633 -0.3044
   73CHL1   C23 7867   4.361   6.320   8.090  0.3762 -0.3937  0.8225
   73CHL1  H23A 7868   4.411   6.222   8.077  1.3569  0.3942 -1.9690
   73CHL1  H23B 7869   4.449   6.388   8.084  0.8129 -1.0639 -1.5350
   73CHL1   C24 7870   4.283   6.330   8.219 -0.3574 -0.1186 -0.8093
   73CHL1  H24A 7871   4.256   6.435   8.243  0.2827  0.3703 -2.1127
   73CHL1  H24B 7872   4.186   6.277   8.208 -0.0379 -0.7758 -0.4585
   73CHL1   C25 7873   4.360   6.255   8.330  0.4101 -0.1437 -0.4052
   73CHL1   H25 7874   4.390   6.154   8.295  1.9220 -0.3408  1.3397
   73CHL1   C26 7875   4.488   6.328   8.351 -0.5836  0.4833 -0.3724
   73CHL1  H26A 7876   4.548   6.344   8.259  0.2028 -0.6482 -0.0909
   73CHL1  H26B 7877   4.465   6.425   8.398  0.1359  0.6171 -0.2756
   73CHL1  H26C 7878   4.555   6.284   8.429 -0.1626 -0.0527 -1.0146
   73CHL1   C27 7879   4.274   6.235   8.461 -0.3924  0.5396 -0.5260
   73CHL1  H27A 7880   4.223   6.332   8.478  2.1316  2.0844 -1.2912
   73CHL1  H27B 7881   4.192   6.160   8.454 -0.5116  0.3454  2.0868
   73CHL1  H27C 7882   4.340   6.203   8.544  0.8726  0.8530 -1.3810
   74CHL1    C3 7883   4.882   4.269   7.036 -0.9168  0.5398  0.4223
   74CHL1    H3 7884   4.846   4.186   7.101 -0.2684 -0.2825 -0.2401
   74CHL1    O3 7885   4.853   4.245   6.900  0.1210  0.4826 -0.0282
   74CHL1   H3' 7886   4.930   4.266   6.845 -0.9193  1.0835 -1.3196
   74CHL1    C4 7887   4.817   4.398   7.077 -0.4370 -0.4544  0.1292
   74CHL1   H4A 7888   4.850   4.476   7.005 -0.1103 -2.1305 -1.6097
   74CHL1   H4B 7889   4.708   4.388   7.060 -0.3511 -0.7113 -0.2793
   74CHL1    C5 7890   4.849   4.440   7.222  1.1840 -1.1507 -0.3939
   74CHL1    C6 7891   4.741   4.465   7.300 -0.1058 -0.3400 -0.2808
   74CHL1    H6 7892   4.642   4.449   7.256  0.6868 -0.8169 -1.9755
   74CHL1    C7 7893   4.744   4.499   7.452  0.1709  0.8023  0.3231
   74CHL1   H7A 7894   4.679   4.587   7.472 -0.8688  0.3109 -0.8090
   74CHL1   H7B 7895   4.701   4.413   7.509  1.6072  0.1127  0.4099
   74CHL1    C8 7896   4.891   4.526   7.497  0.5942  0.0869  0.9345
   74CHL1    H8 7897   4.919   4.633   7.482 -0.8752  0.1722 -1.7801
   74CHL1   C14 7898   4.907   4.492   7.647  0.5266  0.0556  0.2417
   74CHL1   H14 7899   4.891   4.382   7.646  2.6059 -0.2923  0.6193
   74CHL1   C15 7900   4.808   4.545   7.746  0.1438  0.4848  0.3755
   74CHL1  H15A 7901   4.784   4.653   7.732  0.0058  0.5519  1.0812
   74CHL1  H15B 7902   4.712   4.492   7.733  1.2540 -1.1867 -1.4543
   74CHL1   C16 7903   4.867   4.517   7.884  0.9508 -0.1485 -0.7824
   74CHL1  H16A 7904   4.841   4.600   7.953  1.4672 -0.7500  0.1575
   74CHL1  H16B 7905   4.828   4.433   7.945  0.8798 -1.3885 -2.4528
   74CHL1   C17 7906   5.023   4.493   7.864 -0.0889  0.0137 -0.7517
   74CHL1   H17 7907   5.042   4.383   7.867  0.4190  0.1172 -0.1046
   74CHL1   C13 7908   5.048   4.518   7.711  0.6626 -0.0226 -0.6717
   74CHL1   C18 7909   5.083   4.668   7.690 -0.1490 -0.3311  0.2496
   74CHL1  H18A 7910   5.179   4.688   7.742  0.0008  0.1022 -0.1849
   74CHL1  H18B 7911   5.112   4.693   7.586 -0.2324 -0.8684  0.0936
   74CHL1  H18C 7912   5.008   4.747   7.713  0.7553  0.0381  2.1021
   74CHL1   C12 7913   5.150   4.424   7.645 -0.2078 -0.3730 -0.5204
   74CHL1  H12A 7914   5.255   4.438   7.677 -0.8350 -1.8968  2.5482
   74CHL1  H12B 7915   5.128   4.322   7.683  0.3467 -0.7862 -1.2968
   74CHL1   C11 7916   5.138   4.452   7.488  0.0856  0.3912 -0.1107
   74CHL1  H11A 7917   5.180   4.550   7.455 -0.6908  0.4796 -0.8894
   74CHL1  H11B 7918   5.206   4.377   7.442 -0.5889  0.4152 -1.1817
   74CHL1    C9 7919   4.994   4.435   7.426 -1.3047 -0.1394 -0.3713
   74CHL1    H9 7920   4.978   4.329   7.454  0.8165  0.1945  2.5630
   74CHL1   C10 7921   4.995   4.435   7.271  0.5173 -0.0664 -0.3028
   74CHL1   C19 7922   5.076   4.559   7.220  0.0818  0.5767 -0.0322
   74CHL1  H19A 7923   5.183   4.553   7.248 -0.5383  0.8078  2.6133
   74CHL1  H19B 7924   5.071   4.561   7.109  1.5136 -2.1866 -0.2428
   74CHL1  H19C 7925   5.038   4.650   7.269 -2.4728 -0.4346  0.0389
   74CHL1    C1 7926   5.059   4.307   7.218  0.2121 -0.2231  0.1064
   74CHL1   H1A 7927   5.167   4.326   7.232  0.3375 -1.7354  1.4021
   74CHL1   H1B 7928   5.035   4.216   7.277 -0.4805  0.1587  0.4133
   74CHL1    C2 7929   5.038   4.284   7.058  0.6658 -0.4669  0.1936
   74CHL1   H2A 7930   5.096   4.191   7.043  1.2456  0.1053 -1.3551
   74CHL1   H2B 7931   5.082   4.374   7.010  0.3323  0.0402  0.8213
   74CHL1   C20 7932   5.104   4.553   7.976 -0.8749 -0.0584 -0.5411
   74CHL1   H20 7933   5.115   4.663   7.967 -2.8544  0.3868  1.4892
   74CHL1   C21 7934   5.240   4.482   7.970  0.3638 -0.4253 -0.4490
   74CHL1  H21A 7935   5.229   4.374   7.991 -0.4160 -0.2293  0.1972
   74CHL1  H21B 7936   5.311   4.529   8.041 -1.4635  1.3323  0.3118
   74CHL1  H21C 7937   5.298   4.496   7.876  0.9807 -0.9712 -0.1594
   74CHL1   C22 7938   5.030   4.541   8.120 -0.0982 -0.4158 -0.0526
   74CHL1  H22A 7939   4.939   4.604   8.110  0.8790  1.0712  0.0688
   74CHL1  H22B 7940   4.995   4.437   8.140 -1.1413 -0.1347 -0.3719
   74CHL1   C23 7941   5.110   4.604   8.236 -0.1892  1.3517  0.0705
   74CHL1  H23A 7942   5.204   4.546   8.233 -0.7215  0.5122 -1.4782
   74CHL1  H23B 7943   5.140   4.711   8.222  0.9926  0.9967 -0.2207
   74CHL1   C24 7944   5.037   4.578   8.371  0.4693  0.5624  0.2851
   74CHL1  H24A 7945   4.934   4.617   8.381  0.2218 -0.3410  1.4679
   74CHL1  H24B 7946   5.022   4.469   8.380 -1.5277  0.8480  0.9721
   74CHL1   C25 7947   5.112   4.628   8.499 -0.0179 -0.0410  0.0806
   74CHL1   H25 7948   5.220   4.605   8.487 -0.2129 -0.8353 -0.2095
   74CHL1   C26 7949   5.109   4.777   8.513  0.5175  0.0736  0.2386
   74CHL1  H26A 7950   5.163   4.815   8.602  1.1613  2.4742 -1.0749
   74CHL1  H26B 7951   5.148   4.810   8.414  1.7976 -0.8607  0.4065
   74CHL1  H26C 7952   5.006   4.816   8.528 -0.3384 -2.6543  2.2911
   74CHL1   C27 7953   5.042   4.560   8.618 -1.0885 -0.2986 -0.1377
   74CHL1  H27A 7954   5.022   4.452   8.602 -1.3039 -0.7069  2.4427
   74CHL1  H27B 7955   5.117   4.575   8.699 -0.8354  1.5711 -0.6612
   74CHL1  H27C 7956   4.945   4.602   8.649  0.0913  1.5918  1.1914
   75CHL1    C3 7957   3.341   2.224   6.990 -0.5223 -0.0887 -0.2638
   75CHL1    H3 7958   3.316   2.118   7.013 -0.9766  0.2307  0.8027
   75CHL1    O3 7959   3.290   2.248   6.861  0.1332 -0.4858  0.0446
   75CHL1   H3' 7960   3.294   2.343   6.860 -0.5321 -0.4403  0.6964
   75CHL1    C4 7961   3.269   2.303   7.096  0.2676  0.1613  0.0828
   75CHL1   H4A 7962   3.282   2.411   7.075 -3.0854  0.8215  0.7116
   75CHL1   H4B 7963   3.160   2.280   7.091  0.3991 -0.5180  0.2316
   75CHL1    C5 7964   3.328   2.272   7.231  0.0769  0.0049  0.1181
   75CHL1    C6 7965   3.251   2.250   7.337  0.1492 -0.3732  0.0824
   75CHL1    H6 7966   3.142   2.239   7.327  0.1143 -0.2309  0.3086
   75CHL1    C7 7967   3.299   2.241   7.479  0.1088  0.2711  0.8120
   75CHL1   H7A 7968   3.217   2.273   7.547 -0.6187 -0.6097  0.3735
   75CHL1   H7B 7969   3.319   2.134   7.501  0.1657 -0.0137 -0.5270
   75CHL1    C8 7970   3.442   2.308   7.491  0.2306  0.0134  0.2343
   75CHL1    H8 7971   3.418   2.416   7.483 -0.6287  0.0209  2.3073
   75CHL1   C14 7972   3.500   2.285   7.630 -0.1382  0.1796 -0.6212
   75CHL1   H14 7973   3.513   2.175   7.645 -0.0461  0.2455 -0.2254
   75CHL1   C15 7974   3.424   2.325   7.753 -0.1200  0.2133 -0.2205
   75CHL1  H15A 7975   3.387   2.429   7.755  0.9807  0.8238 -3.6861
   75CHL1  H15B 7976   3.331   2.264   7.764  0.0897  0.1150  1.0994
   75CHL1   C16 7977   3.525   2.317   7.870 -0.0192 -0.1645  0.1595
   75CHL1  H16A 7978   3.534   2.407   7.934  0.7410  0.3746 -0.6935
   75CHL1  H16B 7979   3.492   2.227   7.927  0.5692 -0.5001 -0.0197
   75CHL1   C17 7980   3.666   2.299   7.813  0.5424 -0.4322  0.1044
   75CHL1   H17 7981   3.694   2.192   7.807 -0.8446 -0.7592 -1.1347
   75CHL1   C13 7982   3.643   2.337   7.655 -0.3189 -0.2365  0.0412
   75CHL1   C18 7983   3.649   2.492   7.639 -0.1631 -0.6365 -0.0437
   75CHL1  H18A 7984   3.615   2.525   7.538  1.1783 -1.4809 -0.8047
   75CHL1  H18B 7985   3.579   2.541   7.710 -0.2376 -0.6267 -0.1228
   75CHL1  H18C 7986   3.755   2.521   7.657  0.1637 -1.4912 -0.5076
   75CHL1   C12 7987   3.734   2.266   7.548  0.1698 -0.1049 -0.6113
   75CHL1  H12A 7988   3.837   2.305   7.547  1.1199 -2.4065 -1.5743
   75CHL1  H12B 7989   3.738   2.157   7.573 -0.7623  0.2604  1.3854
   75CHL1   C11 7990   3.678   2.295   7.402 -0.3081 -0.3354  0.1545
   75CHL1  H11A 7991   3.693   2.403   7.380  0.9551 -0.5197  0.0765
   75CHL1  H11B 7992   3.742   2.234   7.336 -1.2755 -1.4230  0.1864
   75CHL1    C9 7993   3.531   2.252   7.382  0.2584 -0.3563 -0.1315
   75CHL1    H9 7994   3.538   2.143   7.397 -0.2982 -0.9646 -3.5096
   75CHL1   C10 7995   3.478   2.292   7.239  0.4201  0.7193 -0.0310
   75CHL1   C19 7996   3.517   2.442   7.202  0.3820 -0.8533 -0.0947
   75CHL1  H19A 7997   3.628   2.443   7.193  0.3717 -2.3528 -0.6566
   75CHL1  H19B 7998   3.471   2.467   7.104 -2.9568  0.2935  1.6002
   75CHL1  H19C 7999   3.476   2.508   7.281 -0.8476  0.6473 -1.8904
   75CHL1    C1 8000   3.546   2.202   7.133  0.1899  0.1996 -0.3490
   75CHL1   H1A 8001   3.656   2.210   7.145 -0.0130  0.5105  1.5072
   75CHL1   H1B 8002   3.530   2.097   7.166 -0.5978 -0.3466 -2.2907
   75CHL1    C2 8003   3.497   2.225   6.990  0.9402 -0.2796 -0.1219
   75CHL1   H2A 8004   3.525   2.145   6.918  1.0665 -0.7324  0.4195
   75CHL1   H2B 8005   3.546   2.319   6.958  1.9585 -1.2680 -1.6211
   75CHL1   C20 8006   3.780   2.373   7.889 -0.0010  0.8183 -0.0440
   75CHL1   H20 8007   3.763   2.483   7.882 -0.1531  0.6830 -2.3821
   75CHL1   C21 8008   3.922   2.359   7.821 -0.2954 -0.0463 -0.3236
   75CHL1  H21A 8009   3.938   2.256   7.785 -2.4547 -0.3115 -0.6327
   75CHL1  H21B 8010   4.000   2.396   7.892  0.1822 -1.0544 -0.3155
   75CHL1  H21C 8011   3.936   2.417   7.727 -2.8706  1.4703  0.1106
   75CHL1   C22 8012   3.797   2.339   8.042 -0.0744  0.0894  0.0695
   75CHL1  H22A 8013   3.896   2.379   8.073  1.1441 -2.8803  0.3524
   75CHL1  H22B 8014   3.717   2.402   8.087  0.2852  0.5275  0.1027
   75CHL1   C23 8015   3.778   2.191   8.089 -0.4383  0.0234  0.5227
   75CHL1  H23A 8016   3.790   2.174   8.198  0.5873 -2.1356  0.1282
   75CHL1  H23B 8017   3.675   2.157   8.063  0.5632 -3.0238  0.1249
   75CHL1   C24 8018   3.878   2.080   8.040  0.0806 -0.5710  0.2508
   75CHL1  H24A 8019   3.877   2.085   7.929  1.0887  0.8648  0.2898
   75CHL1  H24B 8020   3.976   2.119   8.074  0.4650 -2.5966  1.6150
   75CHL1   C25 8021   3.851   1.944   8.105  0.2042  0.1091 -0.1994
   75CHL1   H25 8022   3.919   1.879   8.046  2.1487  1.5736  0.3162
   75CHL1   C26 8023   3.885   1.933   8.259  0.4515  0.1598 -0.4883
   75CHL1  H26A 8024   3.878   1.827   8.289  0.9123  0.1454 -0.4236
   75CHL1  H26B 8025   3.987   1.966   8.288  0.9771 -1.7202 -0.1043
   75CHL1  H26C 8026   3.824   2.000   8.323 -0.4880 -0.7265 -0.4376
   75CHL1   C27 8027   3.705   1.897   8.078 -0.2629  0.3975 -0.9830
   75CHL1  H27A 8028   3.688   1.903   7.969  0.3968 -1.0151 -1.1825
   75CHL1  H27B 8029   3.688   1.791   8.107 -2.1523  0.8840 -0.1282
   75CHL1  H27C 8030   3.638   1.968   8.131 -0.2514 -0.2902 -0.0215
   76CHL1    C3 8031   2.703   3.666   6.992  0.3360  1.2425  0.0450
   76CHL1    H3 8032   2.804   3.625   7.010  0.0841  0.6830  0.2162
   76CHL1    O3 8033   2.680   3.654   6.853  0.0647 -0.3248 -0.1433
   76CHL1   H3' 8034   2.678   3.558   6.848  1.8286 -0.3967 -0.2820
   76CHL1    C4 8035   2.596   3.586   7.082 -0.4851  0.2192  0.8260
   76CHL1   H4A 8036   2.501   3.635   7.050 -0.7164  1.7318  3.4952
   76CHL1   H4B 8037   2.591   3.482   7.044  2.1741  0.6905 -1.0853
   76CHL1    C5 8038   2.619   3.603   7.226 -1.2534 -0.9036  0.2290
   76CHL1    C6 8039   2.654   3.494   7.300 -0.6442 -0.3081  0.3375
   76CHL1    H6 8040   2.645   3.395   7.252 -3.3359  0.7416 -1.5746
   76CHL1    C7 8041   2.682   3.503   7.444 -0.1586 -0.9534 -0.2193
   76CHL1   H7A 8042   2.620   3.427   7.497 -1.1099 -0.8003 -1.0734
   76CHL1   H7B 8043   2.790   3.487   7.463  0.2752 -0.0615 -1.7881
   76CHL1    C8 8044   2.634   3.649   7.505 -0.3838 -0.2129  0.2932
   76CHL1    H8 8045   2.524   3.638   7.512 -0.1841 -1.1732  3.5516
   76CHL1   C14 8046   2.688   3.657   7.647  1.0920  0.2722  0.1039
   76CHL1   H14 8047   2.798   3.661   7.640  1.0434 -0.7272 -2.4862
   76CHL1   C15 8048   2.646   3.548   7.754  0.2185 -0.2100  0.3352
   76CHL1  H15A 8049   2.544   3.509   7.731  0.4127 -1.0716  0.8891
   76CHL1  H15B 8050   2.707   3.457   7.734 -2.1061 -1.1868 -3.2762
   76CHL1   C16 8051   2.650   3.616   7.889  0.0407 -0.1854  0.8649
   76CHL1  H16A 8052   2.548   3.606   7.930 -0.0756  1.6022  1.1031
   76CHL1  H16B 8053   2.716   3.558   7.957  1.8077  2.8651  1.9485
   76CHL1   C17 8054   2.689   3.757   7.857 -0.1788  0.2133  0.2203
   76CHL1   H17 8055   2.800   3.762   7.849  0.1605 -1.8497  2.5743
   76CHL1   C13 8056   2.642   3.782   7.713  0.5747  0.4234  0.2023
   76CHL1   C18 8057   2.490   3.806   7.722 -0.2158 -0.0160 -0.5190
   76CHL1  H18A 8058   2.443   3.729   7.787 -2.3585  0.1724 -1.7634
   76CHL1  H18B 8059   2.472   3.910   7.759 -0.4335 -0.6136  1.1644
   76CHL1  H18C 8060   2.428   3.790   7.631  0.8933  0.1326 -1.3182
   76CHL1   C12 8061   2.711   3.897   7.631 -0.3951 -0.1945 -0.0840
   76CHL1  H12A 8062   2.692   3.998   7.673 -0.6177 -0.3178  0.1127
   76CHL1  H12B 8063   2.820   3.877   7.628 -0.6269 -1.5100 -0.2499
   76CHL1   C11 8064   2.660   3.893   7.488  0.1143  0.2480  0.1152
   76CHL1  H11A 8065   2.557   3.933   7.497 -1.0826 -2.6290  0.0385
   76CHL1  H11B 8066   2.719   3.961   7.423 -1.4852  1.4952 -0.0948
   76CHL1    C9 8067   2.677   3.763   7.417  0.3593 -0.0624  0.9767
   76CHL1    H9 8068   2.786   3.743   7.424  0.1544 -1.0839  1.4898
   76CHL1   C10 8069   2.620   3.757   7.271  0.0822  0.4627 -0.0789
   76CHL1   C19 8070   2.476   3.824   7.273 -0.9925 -0.4784 -0.7437
   76CHL1  H19A 8071   2.403   3.798   7.194 -1.6717 -0.7927 -0.0292
   76CHL1  H19B 8072   2.422   3.802   7.368 -1.8694 -0.8690 -1.3147
   76CHL1  H19C 8073   2.501   3.932   7.277  2.0790 -1.1193  0.5574
   76CHL1    C1 8074   2.725   3.836   7.182 -0.2653  0.0495  0.3245
   76CHL1   H1A 8075   2.706   3.942   7.210 -1.8411  0.3757 -1.7201
   76CHL1   H1B 8076   2.826   3.803   7.216  0.4304  0.5898 -1.1513
   76CHL1    C2 8077   2.712   3.816   7.032  0.0498 -0.9118 -1.0323
   76CHL1   H2A 8078   2.793   3.860   6.971  0.1101 -1.7432 -1.5649
   76CHL1   H2B 8079   2.620   3.865   6.993  0.4183 -0.0219 -0.8138
   76CHL1   C20 8080   2.643   3.848   7.972  0.7353 -0.2210 -0.1594
   76CHL1   H20 8081   2.532   3.843   7.973  0.6022  1.8158  0.9851
   76CHL1   C21 8082   2.699   3.993   7.953  0.6979 -0.4244 -0.4853
   76CHL1  H21A 8083   2.655   4.044   7.865 -2.2679  1.1866  1.7553
   76CHL1  H21B 8084   2.808   3.975   7.941  1.2218  2.7915 -1.6680
   76CHL1  H21C 8085   2.680   4.059   8.040  2.3734  0.3381 -0.6444
   76CHL1   C22 8086   2.680   3.800   8.116 -0.5822 -0.0318  0.0391
   76CHL1  H22A 8087   2.615   3.869   8.173  2.0540  1.4080  1.4806
   76CHL1  H22B 8088   2.650   3.695   8.136  2.0291 -0.8934 -0.1195
   76CHL1   C23 8089   2.827   3.801   8.158 -0.5797 -1.1279 -0.5707
   76CHL1  H23A 8090   2.886   3.731   8.095  0.5507 -0.7468  0.0451
   76CHL1  H23B 8091   2.873   3.900   8.139 -1.6716 -0.0097  2.0766
   76CHL1   C24 8092   2.861   3.783   8.305  0.8273  0.0363 -0.5504
   76CHL1  H24A 8093   2.967   3.806   8.329  1.2513 -1.7266 -0.6546
   76CHL1  H24B 8094   2.790   3.845   8.364  0.7578 -0.0937 -0.4967
   76CHL1   C25 8095   2.839   3.635   8.351  0.3647  0.7640 -0.3564
   76CHL1   H25 8096   2.760   3.574   8.303 -0.2891  0.0529  1.5373
   76CHL1   C26 8097   2.974   3.561   8.326 -0.4619  0.1112  0.2149
   76CHL1  H26A 8098   3.008   3.580   8.222 -1.4806 -0.3009 -0.2125
   76CHL1  H26B 8099   3.052   3.593   8.397 -0.2318  0.9181 -0.3836
   76CHL1  H26C 8100   2.960   3.454   8.351  0.0381  0.2582  1.1478
   76CHL1   C27 8101   2.814   3.638   8.508 -1.4922 -0.1517  0.2592
   76CHL1  H27A 8102   2.885   3.706   8.559 -3.3749  2.0020  0.1226
   76CHL1  H27B 8103   2.720   3.695   8.521 -2.0941 -0.7560 -1.1724
   76CHL1  H27C 8104   2.809   3.539   8.558 -3.3200  0.4929  1.4399
   77CHL1    C3 8105   6.508   5.855   6.738  0.0885 -0.1387  0.4884
   77CHL1    H3 8106   6.409   5.903   6.720  0.5173 -0.0750 -2.0309
   77CHL1    O3 8107   6.560   5.793   6.625  0.4639  0.2538 -0.0231
   77CHL1   H3' 8108   6.484   5.746   6.592  0.2316  1.2886 -1.0165
   77CHL1    C4 8109   6.612   5.967   6.765  0.5127  0.5357 -0.4213
   77CHL1   H4A 8110   6.712   5.924   6.787 -0.2581  0.1281  2.8328
   77CHL1   H4B 8111   6.622   6.032   6.677  0.5801 -0.8348 -1.4612
   77CHL1    C5 8112   6.569   6.043   6.885  0.3039  0.8542  0.0426
   77CHL1    C6 8113   6.553   6.175   6.879  0.0780 -0.2964 -0.2750
   77CHL1    H6 8114   6.573   6.231   6.787  1.7961  2.0078  1.3883
   77CHL1    C7 8115   6.509   6.260   6.992  1.0690 -0.2643  0.1103
   77CHL1   H7A 8116   6.568   6.354   6.994  2.6273 -1.1887 -0.1357
   77CHL1   H7B 8117   6.405   6.292   6.973  1.3076  0.1879 -0.4500
   77CHL1    C8 8118   6.510   6.189   7.128  0.3847 -0.3694 -0.3146
   77CHL1    H8 8119   6.618   6.183   7.155  0.4640 -3.0038 -0.8867
   77CHL1   C14 8120   6.435   6.261   7.243 -0.7881  0.3255  0.6425
   77CHL1   H14 8121   6.327   6.246   7.226 -0.4730 -0.0079 -1.3623
   77CHL1   C15 8122   6.459   6.411   7.257  0.5935 -0.1778 -0.8083
   77CHL1  H15A 8123   6.557   6.434   7.209  0.2029 -1.8515 -2.5149
   77CHL1  H15B 8124   6.385   6.466   7.195 -0.4080  0.9308  1.2472
   77CHL1   C16 8125   6.428   6.438   7.406 -0.7513 -0.4100  0.5600
   77CHL1  H16A 8126   6.516   6.483   7.456 -1.3457  2.2400 -0.5794
   77CHL1  H16B 8127   6.342   6.509   7.417 -0.8301 -0.1484 -1.3213
   77CHL1   C17 8128   6.397   6.302   7.470 -0.7641  0.3589  0.3225
   77CHL1   H17 8129   6.290   6.280   7.448 -0.7290  0.5654 -0.0445
   77CHL1   C13 8130   6.467   6.202   7.379  0.1387  0.1462 -0.8081
   77CHL1   C18 8131   6.623   6.204   7.410 -0.6736 -0.6898 -0.1671
   77CHL1  H18A 8132   6.636   6.154   7.508  1.8551  0.1281  0.0046
   77CHL1  H18B 8133   6.669   6.134   7.336 -0.4879 -0.7994  0.0512
   77CHL1  H18C 8134   6.668   6.306   7.403 -0.5662 -0.6973  0.3718
   77CHL1   C12 8135   6.413   6.054   7.379  0.0274 -0.5373  0.0070
   77CHL1  H12A 8136   6.437   6.004   7.475  0.0691 -0.1172  0.2179
   77CHL1  H12B 8137   6.302   6.052   7.373 -0.0197  0.2254  0.4881
   77CHL1   C11 8138   6.475   5.977   7.266  0.0858 -0.4032  0.7124
   77CHL1  H11A 8139   6.578   5.954   7.300  0.1734  0.7555  1.3034
   77CHL1  H11B 8140   6.428   5.877   7.274 -0.3894 -0.1721  0.8569
   77CHL1    C9 8141   6.464   6.042   7.128 -0.2641 -0.1999 -0.3300
   77CHL1    H9 8142   6.357   6.048   7.099 -0.3842 -1.1070 -0.1287
   77CHL1   C10 8143   6.538   5.959   7.013 -0.2637  0.6099 -0.5591
   77CHL1   C19 8144   6.672   5.915   7.069 -0.8298 -0.1398  0.1893
   77CHL1  H19A 8145   6.711   6.003   7.125 -3.0199  0.1979  1.3026
   77CHL1  H19B 8146   6.655   5.829   7.137  0.4816 -0.3974  0.2269
   77CHL1  H19C 8147   6.749   5.874   7.000  1.9098  3.7855  0.5381
   77CHL1    C1 8148   6.444   5.840   6.975  0.5138  0.3252  0.6626
   77CHL1   H1A 8149   6.448   5.768   7.060 -1.3359 -1.4404 -0.6587
   77CHL1   H1B 8150   6.343   5.879   6.952  0.7140  1.0037  0.9188
   77CHL1    C2 8151   6.492   5.756   6.854 -0.6639 -0.2835  0.1258
   77CHL1   H2A 8152   6.418   5.676   6.830  0.1240 -0.9152 -0.2347
   77CHL1   H2B 8153   6.589   5.709   6.879 -0.2683  0.3357 -0.2283
   77CHL1   C20 8154   6.421   6.299   7.621 -0.5603 -0.1919  0.6557
   77CHL1   H20 8155   6.531   6.309   7.640 -0.9909  3.2912  2.0973
   77CHL1   C21 8156   6.377   6.164   7.675  0.3610 -0.1141  0.0284
   77CHL1  H21A 8157   6.449   6.083   7.653 -1.3112 -1.2695 -1.5008
   77CHL1  H21B 8158   6.286   6.130   7.621  0.2832  2.4949 -1.6841
   77CHL1  H21C 8159   6.364   6.172   7.785 -0.6581 -1.4803  0.0374
   77CHL1   C22 8160   6.349   6.414   7.700 -1.1049 -0.0107  0.7079
   77CHL1  H22A 8161   6.362   6.507   7.642  1.1141 -0.1609  0.8532
   77CHL1  H22B 8162   6.239   6.402   7.695 -1.3082  1.5197  1.0219
   77CHL1   C23 8163   6.403   6.443   7.842 -0.2822  0.2328 -0.8671
   77CHL1  H23A 8164   6.408   6.347   7.898  0.8560  1.3356  1.0185
   77CHL1  H23B 8165   6.507   6.481   7.846  1.7370 -4.5657 -0.6882
   77CHL1   C24 8166   6.299   6.530   7.912 -0.8575 -0.1116  0.3171
   77CHL1  H24A 8167   6.288   6.625   7.855 -1.3537  1.0075  2.1750
   77CHL1  H24B 8168   6.196   6.488   7.917 -0.9315  0.1375  1.1363
   77CHL1   C25 8169   6.343   6.584   8.048 -0.0082 -0.2136  0.3971
   77CHL1   H25 8170   6.443   6.630   8.040 -0.3362  1.2109  3.1684
   77CHL1   C26 8171   6.255   6.699   8.097  0.2391  0.0394 -0.6273
   77CHL1  H26A 8172   6.265   6.779   8.021  1.8972 -0.8390 -1.3887
   77CHL1  H26B 8173   6.151   6.669   8.119  0.8273 -1.4013  0.3921
   77CHL1  H26C 8174   6.298   6.735   8.193 -2.2557  2.0843 -0.1829
   77CHL1   C27 8175   6.337   6.473   8.156 -0.6214 -0.2521 -0.0702
   77CHL1  H27A 8176   6.396   6.383   8.130 -1.9215 -1.3181  0.5457
   77CHL1  H27B 8177   6.370   6.518   8.252 -0.6067  2.4714 -1.2450
   77CHL1  H27C 8178   6.229   6.447   8.162 -1.6362  3.5157  1.1325
   78CHL1    C3 8179   6.201   2.337   6.599 -0.5753 -0.3917 -0.4889
   78CHL1    H3 8180   6.183   2.235   6.638  0.7773  0.2679  2.1231
   78CHL1    O3 8181   6.223   2.332   6.461 -0.5780 -0.3725  0.3925
   78CHL1   H3' 8182   6.214   2.423   6.432  2.5444 -0.4599 -1.3358
   78CHL1    C4 8183   6.079   2.433   6.626 -0.1612  0.5417  0.3370
   78CHL1   H4A 8184   6.095   2.531   6.575  0.9343 -0.8853 -2.2205
   78CHL1   H4B 8185   5.995   2.381   6.575  0.4525 -0.9468  0.7941
   78CHL1    C5 8186   6.057   2.455   6.772 -0.0315  0.2044 -0.6905
   78CHL1    C6 8187   5.939   2.436   6.836 -0.2367  0.1787  0.0238
   78CHL1    H6 8188   5.842   2.413   6.789 -0.7657  1.4936  0.4312
   78CHL1    C7 8189   5.918   2.448   6.984  0.2406  0.6358  0.3363
   78CHL1   H7A 8190   5.824   2.490   7.025 -1.0423 -1.9803  0.2714
   78CHL1   H7B 8191   5.939   2.351   7.033  0.1505  1.0525  1.2172
   78CHL1    C8 8192   6.027   2.542   7.052  0.2712  0.2491  0.1544
   78CHL1    H8 8193   6.004   2.646   7.021  2.6870  0.7848 -0.0429
   78CHL1   C14 8194   6.026   2.530   7.207  0.1144 -0.2910  0.1524
   78CHL1   H14 8195   6.050   2.424   7.232 -0.9679 -0.1225  2.1420
   78CHL1   C15 8196   5.892   2.542   7.279  0.4748 -0.0015  0.1130
   78CHL1  H15A 8197   5.852   2.642   7.252  2.9828  0.4133 -2.7068
   78CHL1  H15B 8198   5.817   2.463   7.259  1.0492 -0.1390 -1.7551
   78CHL1   C16 8199   5.923   2.568   7.426 -0.0346 -0.3219 -0.5351
   78CHL1  H16A 8200   5.890   2.670   7.454 -0.1016 -0.4108 -0.2832
   78CHL1  H16B 8201   5.878   2.495   7.497  2.9389 -2.2402 -0.4666
   78CHL1   C17 8202   6.083   2.564   7.427  0.3605 -0.0344 -1.0745
   78CHL1   H17 8203   6.104   2.455   7.419  1.2166  0.1986 -2.2477
   78CHL1   C13 8204   6.130   2.601   7.283 -0.1177  0.1477 -1.0719
   78CHL1   C18 8205   6.106   2.753   7.267  0.1666 -0.5582 -0.4176
   78CHL1  H18A 8206   6.159   2.815   7.342 -0.7479  0.7540 -0.8283
   78CHL1  H18B 8207   6.131   2.778   7.162  0.1518  0.3282 -0.2174
   78CHL1  H18C 8208   6.003   2.792   7.279  0.8040  1.1131 -0.0828
   78CHL1   C12 8209   6.274   2.569   7.231 -0.9444  0.8018 -0.5237
   78CHL1  H12A 8210   6.348   2.647   7.256 -2.0645  1.4424  0.9657
   78CHL1  H12B 8211   6.312   2.478   7.282  1.0294  2.5684  1.3325
   78CHL1   C11 8212   6.281   2.552   7.079  0.2248  0.4142  0.0060
   78CHL1  H11A 8213   6.301   2.659   7.056  2.3016  0.9394  3.4781
   78CHL1  H11B 8214   6.370   2.487   7.061 -0.8578 -1.3405  0.7223
   78CHL1    C9 8215   6.163   2.489   7.007 -0.1819  0.3482 -0.2109
   78CHL1    H9 8216   6.168   2.384   7.044  0.6086  0.0469 -1.1563
   78CHL1   C10 8217   6.181   2.495   6.852 -0.2572  0.0298  0.4024
   78CHL1   C19 8218   6.213   2.644   6.815 -0.1899 -0.4693  0.3799
   78CHL1  H19A 8219   6.314   2.673   6.849 -0.1648 -0.6083  0.4245
   78CHL1  H19B 8220   6.210   2.679   6.710  2.9232  1.7691  0.9350
   78CHL1  H19C 8221   6.146   2.713   6.871 -0.9268  0.0575 -1.1007
   78CHL1    C1 8222   6.311   2.412   6.815 -0.5107 -0.5744  0.0653
   78CHL1   H1A 8223   6.399   2.463   6.859  0.2609 -0.7205 -1.2615
   78CHL1   H1B 8224   6.308   2.310   6.858  1.5439 -1.0753 -0.8435
   78CHL1    C2 8225   6.330   2.389   6.664 -0.1918  0.3440  0.5907
   78CHL1   H2A 8226   6.404   2.307   6.648 -3.1451 -2.4762  0.3634
   78CHL1   H2B 8227   6.375   2.476   6.611 -1.5690  0.2414 -0.8325
   78CHL1   C20 8228   6.160   2.632   7.543 -0.0575 -0.1164  0.0904
   78CHL1   H20 8229   6.156   2.743   7.540  3.8102  0.1221 -0.7110
   78CHL1   C21 8230   6.319   2.610   7.550  0.8254 -0.4320 -0.2834
   78CHL1  H21A 8231   6.360   2.645   7.647 -1.9112 -2.2528  1.6827
   78CHL1  H21B 8232   6.356   2.668   7.463  0.3941 -0.1039 -0.2543
   78CHL1  H21C 8233   6.343   2.503   7.532 -0.8337 -0.3736 -3.7891
   78CHL1   C22 8234   6.098   2.587   7.678  0.8053 -0.3020 -0.0464
   78CHL1  H22A 8235   6.009   2.523   7.662  0.5437  0.2824 -0.9859
   78CHL1  H22B 8236   6.164   2.523   7.741 -0.4223 -0.4123  1.1683
   78CHL1   C23 8237   6.050   2.709   7.773 -0.0055 -0.3950 -0.6829
   78CHL1  H23A 8238   6.127   2.787   7.791  0.0326 -0.4922 -0.4317
   78CHL1  H23B 8239   5.962   2.770   7.741 -1.4504 -1.8835  0.3243
   78CHL1   C24 8240   6.024   2.659   7.915  0.0664 -0.3461  0.2848
   78CHL1  H24A 8241   5.946   2.580   7.913  0.6243 -0.9380  1.0704
   78CHL1  H24B 8242   6.110   2.613   7.968 -0.9439 -1.5580  0.9268
   78CHL1   C25 8243   5.988   2.769   8.022  0.3500  0.1502 -0.0342
   78CHL1   H25 8244   5.907   2.824   7.970  0.4405 -0.6175 -1.0188
   78CHL1   C26 8245   5.935   2.698   8.151  0.6126  0.2809 -0.5068
   78CHL1  H26A 8246   5.906   2.770   8.230 -2.6652 -0.8868 -0.5068
   78CHL1  H26B 8247   5.848   2.636   8.120  0.7217 -0.3267  0.3913
   78CHL1  H26C 8248   6.013   2.627   8.186  1.3869  1.2671 -0.2016
   78CHL1   C27 8249   6.104   2.866   8.041 -0.5398 -0.0023 -0.7410
   78CHL1  H27A 8250   6.093   2.904   8.145  0.7285 -2.6311  0.4382
   78CHL1  H27B 8251   6.195   2.803   8.044  0.1700  0.9889 -0.8408
   78CHL1  H27C 8252   6.103   2.939   7.957 -1.9416  1.1688  0.2580
   79CHL1    C3 8253   5.354   2.512   7.034  0.2953  0.3772  0.3372
   79CHL1    H3 8254   5.280   2.594   7.037  0.7937  0.8425 -0.0071
   79CHL1    O3 8255   5.343   2.465   6.901 -0.7353  0.3427  0.4381
   79CHL1   H3' 8256   5.324   2.543   6.849  1.6878  0.9434  0.3586
   79CHL1    C4 8257   5.492   2.568   7.061  0.0634 -0.7894 -0.6551
   79CHL1   H4A 8258   5.565   2.485   7.046 -0.9475 -2.1337  1.4217
   79CHL1   H4B 8259   5.508   2.650   6.987  1.0392 -0.2418  0.1316
   79CHL1    C5 8260   5.497   2.622   7.205 -0.2219  0.6296  0.2815
   79CHL1    C6 8261   5.522   2.750   7.243  0.3201  0.0102  0.6316
   79CHL1    H6 8262   5.541   2.821   7.161  1.2796  0.5454  1.2907
   79CHL1    C7 8263   5.530   2.810   7.379 -0.5083 -0.3485 -0.3849
   79CHL1   H7A 8264   5.620   2.875   7.382  0.6101 -1.8187  2.9566
   79CHL1   H7B 8265   5.443   2.878   7.394 -1.9534 -1.9254 -1.2650
   79CHL1    C8 8266   5.533   2.703   7.494  0.1303  0.6615 -0.0026
   79CHL1    H8 8267   5.634   2.657   7.498 -0.5074 -0.8838 -0.9936
   79CHL1   C14 8268   5.489   2.769   7.621 -0.7427 -0.6305 -0.2894
   79CHL1   H14 8269   5.390   2.816   7.599  0.0821  0.6936 -1.3721
   79CHL1   C15 8270   5.589   2.876   7.669 -0.7604 -0.6081  0.4479
   79CHL1  H15A 8271   5.688   2.826   7.655 -0.0969  0.7092  0.2620
   79CHL1  H15B 8272   5.581   2.972   7.614 -1.3811  0.0723  1.6896
   79CHL1   C16 8273   5.554   2.882   7.818 -0.1950  0.0933  0.7954
   79CHL1  H16A 8274   5.650   2.852   7.866 -0.6864  0.8404  2.2979
   79CHL1  H16B 8275   5.526   2.983   7.855 -0.8101 -0.2191  1.2055
   79CHL1   C17 8276   5.443   2.779   7.855 -0.0125 -0.1493 -0.3881
   79CHL1   H17 8277   5.346   2.826   7.829  0.9615  2.6982  0.7954
   79CHL1   C13 8278   5.470   2.679   7.748  0.2577  0.6388 -0.3748
   79CHL1   C18 8279   5.593   2.594   7.784 -0.8935  0.2104 -0.0190
   79CHL1  H18A 8280   5.683   2.646   7.824  2.1874 -3.6968 -1.2437
   79CHL1  H18B 8281   5.564   2.530   7.870 -0.6153 -1.3073 -1.0115
   79CHL1  H18C 8282   5.629   2.531   7.700  0.9484  1.3107 -0.1229
   79CHL1   C12 8283   5.361   2.582   7.711  0.9471 -0.7220 -0.7056
   79CHL1  H12A 8284   5.371   2.496   7.781  1.1842 -0.7891 -0.8216
   79CHL1  H12B 8285   5.259   2.625   7.722  0.9818 -1.0458  1.2476
   79CHL1   C11 8286   5.379   2.508   7.574 -0.2386 -0.2333 -0.5124
   79CHL1  H11A 8287   5.456   2.430   7.591 -1.7147 -1.8052 -0.7810
   79CHL1  H11B 8288   5.284   2.459   7.544 -1.4077  1.1328  0.7859
   79CHL1    C9 8289   5.427   2.597   7.462 -0.8764  0.2472  0.8223
   79CHL1    H9 8290   5.343   2.665   7.438 -0.3059  0.7216  0.1210
   79CHL1   C10 8291   5.457   2.527   7.320  0.2586 -0.0123 -0.7292
   79CHL1   C19 8292   5.567   2.414   7.345 -0.0652 -0.0434  0.5724
   79CHL1  H19A 8293   5.534   2.326   7.405  0.9603  0.4880  1.9799
   79CHL1  H19B 8294   5.609   2.376   7.250  0.9037 -0.7148  1.2558
   79CHL1  H19C 8295   5.649   2.460   7.404 -0.9912  0.5870  1.4178
   79CHL1    C1 8296   5.312   2.461   7.277  0.2169  0.9134 -0.5482
   79CHL1   H1A 8297   5.283   2.384   7.352 -3.7846  0.4960 -2.2894
   79CHL1   H1B 8298   5.240   2.545   7.289 -0.0827  0.5382  0.3632
   79CHL1    C2 8299   5.304   2.405   7.139  0.1649 -0.4795 -0.0877
   79CHL1   H2A 8300   5.200   2.370   7.121 -0.0319  0.5258 -0.9995
   79CHL1   H2B 8301   5.372   2.317   7.135 -0.0265 -0.6265 -0.1365
   79CHL1   C20 8302   5.438   2.738   8.004  0.1693 -0.4125 -0.0464
   79CHL1   H20 8303   5.505   2.655   8.033  1.5161  0.4089 -0.7481
   79CHL1   C21 8304   5.298   2.685   8.039 -0.8418  0.4784 -0.3016
   79CHL1  H21A 8305   5.224   2.767   8.026 -0.5456  0.9936  1.1400
   79CHL1  H21B 8306   5.279   2.663   8.146 -1.0961  2.9694  0.2262
   79CHL1  H21C 8307   5.255   2.610   7.969 -0.8130  0.0548  0.1347
   79CHL1   C22 8308   5.475   2.858   8.095 -0.0518  0.0464 -0.9926
   79CHL1  H22A 8309   5.581   2.887   8.079  0.4856 -0.1751  1.6991
   79CHL1  H22B 8310   5.418   2.953   8.084  1.7147  1.9703  3.8053
   79CHL1   C23 8311   5.477   2.833   8.249 -0.0648  0.8613 -0.3775
   79CHL1  H23A 8312   5.379   2.795   8.286  1.1553 -0.3565  1.7977
   79CHL1  H23B 8313   5.538   2.741   8.263 -1.9307 -0.2474  1.1535
   79CHL1   C24 8314   5.520   2.946   8.346  0.0432 -0.0419 -0.3973
   79CHL1  H24A 8315   5.626   2.969   8.321  0.6559 -0.4296  1.7091
   79CHL1  H24B 8316   5.462   3.035   8.312 -0.9385 -0.3781  0.3470
   79CHL1   C25 8317   5.492   2.911   8.493 -0.1255  0.1700  0.4976
   79CHL1   H25 8318   5.408   2.838   8.495 -0.5170  0.5697 -0.7160
   79CHL1   C26 8319   5.617   2.851   8.565  0.1901  0.0294  0.1722
   79CHL1  H26A 8320   5.696   2.929   8.561 -0.8702  1.1078 -1.5154
   79CHL1  H26B 8321   5.578   2.828   8.666 -2.6450 -0.0991 -0.8479
   79CHL1  H26C 8322   5.642   2.759   8.508  0.2674 -0.5274  1.0900
   79CHL1   C27 8323   5.437   3.031   8.577 -0.0256  0.6557 -0.4532
   79CHL1  H27A 8324   5.344   3.070   8.529  0.8630  1.4943 -1.5458
   79CHL1  H27B 8325   5.405   2.988   8.674  0.4488  1.9255  0.2806
   79CHL1  H27C 8326   5.504   3.119   8.592 -1.4718  1.4791  1.7141
   80CHL1    C3 8327   5.131   1.111   6.981 -0.1570 -0.1910  0.6477
   80CHL1    H3 8328   5.217   1.181   6.972  0.8125 -1.1992  1.6716
   80CHL1    O3 8329   5.091   1.059   6.851  0.0346 -0.3849  0.3556
   80CHL1   H3' 8330   5.107   1.122   6.781  0.8846 -1.1977 -0.1900
   80CHL1    C4 8331   5.170   0.998   7.082 -0.4200  0.6975  0.1069
   80CHL1   H4A 8332   5.086   0.926   7.081  1.8296 -2.1049 -1.7465
   80CHL1   H4B 8333   5.263   0.945   7.052 -1.0383  0.5315 -1.6202
   80CHL1    C5 8334   5.191   1.045   7.230  0.5714 -0.5057  0.7696
   80CHL1    C6 8335   5.315   1.038   7.288  0.5055 -0.6110  0.0314
   80CHL1    H6 8336   5.394   0.979   7.240  0.5003 -0.4089 -0.2272
   80CHL1    C7 8337   5.333   1.093   7.430  0.4492  1.0008  0.6017
   80CHL1   H7A 8338   5.389   1.018   7.491 -0.3861  1.9566  2.6322
   80CHL1   H7B 8339   5.393   1.186   7.427 -0.6155  1.6772 -0.3737
   80CHL1    C8 8340   5.203   1.110   7.510 -0.8726 -0.3323 -1.2347
   80CHL1    H8 8341   5.154   1.011   7.521 -1.6996  0.0077 -1.8104
   80CHL1   C14 8342   5.228   1.189   7.639  0.1296  0.5261  0.2122
   80CHL1   H14 8343   5.270   1.288   7.612  0.2339  0.5990  0.6326
   80CHL1   C15 8344   5.328   1.137   7.741 -0.4696  0.6972 -0.4041
   80CHL1  H15A 8345   5.319   1.027   7.730  0.1978  0.7137 -1.1840
   80CHL1  H15B 8346   5.435   1.165   7.729 -0.2497 -0.4763 -1.3195
   80CHL1   C16 8347   5.278   1.181   7.880  0.4481  0.2196  0.7697
   80CHL1  H16A 8348   5.235   1.093   7.933 -0.6072  0.1361 -0.1905
   80CHL1  H16B 8349   5.368   1.232   7.921  1.3037  1.6182 -2.5398
   80CHL1   C17 8350   5.156   1.276   7.851 -0.0278 -0.4359  0.3413
   80CHL1   H17 8351   5.190   1.377   7.820 -2.0357  0.5364  1.0934
   80CHL1   C13 8352   5.094   1.215   7.720 -0.3267 -0.8944  0.2200
   80CHL1   C18 8353   5.025   1.088   7.755 -0.2267  0.3704 -0.6940
   80CHL1  H18A 8354   5.087   1.011   7.804  0.2745  0.8051 -0.6414
   80CHL1  H18B 8355   4.932   1.106   7.814  0.3332  0.0585  0.3045
   80CHL1  H18C 8356   4.976   1.041   7.667 -1.7981 -0.6521  0.6602
   80CHL1   C12 8357   5.017   1.312   7.630  0.2472 -0.2003 -0.1243
   80CHL1  H12A 8358   4.916   1.338   7.667 -1.2151 -0.4228 -3.5904
   80CHL1  H12B 8359   5.071   1.409   7.615 -0.9053  0.3315 -1.0084
   80CHL1   C11 8360   4.987   1.246   7.498  1.0596 -0.0886 -0.9123
   80CHL1  H11A 8361   4.915   1.166   7.525  1.2740  0.4635  1.5423
   80CHL1  H11B 8362   4.929   1.309   7.427 -0.6624  1.4490  1.6990
   80CHL1    C9 8363   5.108   1.192   7.421  0.3639 -0.4831 -0.7253
   80CHL1    H9 8364   5.161   1.286   7.397 -0.6299  1.0574  2.4208
   80CHL1   C10 8365   5.072   1.124   7.286  1.0177 -0.1149  0.4640
   80CHL1   C19 8366   4.968   1.017   7.316  0.0440  0.6178  0.0346
   80CHL1  H19A 8367   4.998   0.954   7.403 -0.3259 -0.1524 -0.3798
   80CHL1  H19B 8368   4.870   1.067   7.332 -0.8479 -0.7757 -0.8053
   80CHL1  H19C 8369   4.938   0.960   7.225 -3.2883  1.5435  0.4091
   80CHL1    C1 8370   5.025   1.235   7.183  0.0949  0.4980  0.0716
   80CHL1   H1A 8371   4.931   1.285   7.214 -1.0065  0.4697 -2.9278
   80CHL1   H1B 8372   5.108   1.309   7.185  1.1986 -0.7010  0.3296
   80CHL1    C2 8373   5.008   1.195   7.036  0.0303 -0.2636 -0.3859
   80CHL1   H2A 8374   5.009   1.283   6.969 -0.8747  0.1827  0.1755
   80CHL1   H2B 8375   4.917   1.131   7.032 -0.4631  0.3768  0.3454
   80CHL1   C20 8376   5.060   1.308   7.971  0.1341 -0.5677 -0.6672
   80CHL1   H20 8377   5.039   1.210   8.020 -1.0702  0.5463  1.1801
   80CHL1   C21 8378   4.915   1.368   7.941 -0.0216 -0.0469 -0.3280
   80CHL1  H21A 8379   4.858   1.406   8.028 -0.6602 -0.3744 -0.5909
   80CHL1  H21B 8380   4.858   1.291   7.884 -0.7470  0.3493 -0.1520
   80CHL1  H21C 8381   4.936   1.455   7.874  1.7523  1.9565  2.6295
   80CHL1   C22 8382   5.136   1.390   8.086  0.4311 -0.3566  0.6118
   80CHL1  H22A 8383   5.064   1.416   8.167  1.2575  0.8742  0.9805
   80CHL1  H22B 8384   5.203   1.314   8.132  0.2811 -0.4778  0.6310
   80CHL1   C23 8385   5.204   1.526   8.035 -0.0833 -0.6477  0.0885
   80CHL1  H23A 8386   5.297   1.500   7.979 -0.2822 -0.4254 -0.3476
   80CHL1  H23B 8387   5.133   1.565   7.959  1.4639 -2.8793 -2.7660
   80CHL1   C24 8388   5.235   1.629   8.146 -0.5419 -0.5166 -0.2839
   80CHL1  H24A 8389   5.135   1.663   8.179 -0.2996 -1.5835  1.7063
   80CHL1  H24B 8390   5.285   1.568   8.225  0.2981 -1.6373 -1.6175
   80CHL1   C25 8391   5.339   1.741   8.105 -0.1141  0.0591  0.1681
   80CHL1   H25 8392   5.443   1.707   8.084  0.8505  2.0177  1.4412
   80CHL1   C26 8393   5.283   1.824   7.992  0.1865 -0.2410  0.8340
   80CHL1  H26A 8394   5.197   1.883   8.032  2.0654  0.6890  3.9342
   80CHL1  H26B 8395   5.359   1.901   7.965 -0.4061  0.1871  0.3783
   80CHL1  H26C 8396   5.242   1.774   7.902 -0.5888  2.4058 -0.4037
   80CHL1   C27 8397   5.356   1.829   8.232  0.5296  0.3377  0.4992
   80CHL1  H27A 8398   5.258   1.861   8.274  1.2407  1.2018  1.5869
   80CHL1  H27B 8399   5.417   1.782   8.312  1.2614  0.3443 -0.0543
   80CHL1  H27C 8400   5.412   1.921   8.205 -0.6808  0.9228 -0.0988
   81CHL1    C3 8401   2.961   5.604   6.721 -0.1743 -0.9040 -0.0122
   81CHL1    H3 8402   2.979   5.713   6.706 -1.1611 -0.9840 -1.9989
   81CHL1    O3 8403   2.972   5.559   6.591 -0.6174 -0.2952  1.2488
   81CHL1   H3' 8404   2.964   5.463   6.597 -2.1643 -0.2466  0.5142
   81CHL1    C4 8405   3.062   5.529   6.810 -0.1888 -0.4568  0.4604
   81CHL1   H4A 8406   3.052   5.419   6.807 -0.8895 -0.3908 -0.0580
   81CHL1   H4B 8407   3.160   5.552   6.763 -1.1430  0.2804 -1.2750
   81CHL1    C5 8408   3.049   5.573   6.950 -0.2256  0.0154 -0.2866
   81CHL1    C6 8409   3.158   5.625   7.012 -0.2512 -0.6326 -0.2985
   81CHL1    H6 8410   3.255   5.637   6.963  0.1521  0.6947  0.7705
   81CHL1    C7 8411   3.148   5.663   7.156 -0.1304 -0.6538  0.7835
   81CHL1   H7A 8412   3.249   5.655   7.202  1.0334  0.6263 -1.3983
   81CHL1   H7B 8413   3.130   5.772   7.161 -0.3617 -0.6552  0.0151
   81CHL1    C8 8414   3.033   5.582   7.233 -0.4029  0.4623  0.1946
   81CHL1    H8 8415   3.071   5.478   7.237  1.7192  1.2097  0.7753
   81CHL1   C14 8416   3.020   5.637   7.374 -0.6858 -0.5704  0.3860
   81CHL1   H14 8417   2.993   5.744   7.365  0.7561 -0.1725  0.5297
   81CHL1   C15 8418   3.145   5.639   7.466 -0.7372 -0.3874 -0.1744
   81CHL1  H15A 8419   3.204   5.546   7.459 -0.4046 -0.1458 -0.5903
   81CHL1  H15B 8420   3.210   5.725   7.437  0.0074 -0.9174 -0.0954
   81CHL1   C16 8421   3.092   5.665   7.600  0.5663  0.0043  0.0215
   81CHL1  H16A 8422   3.136   5.591   7.670 -2.5577 -0.7970  1.3119
   81CHL1  H16B 8423   3.115   5.771   7.622 -0.7734  0.5799 -1.1976
   81CHL1   C17 8424   2.936   5.652   7.596  0.1213  0.0932  0.2565
   81CHL1   H17 8425   2.893   5.754   7.585 -0.2381  0.0154  0.8833
   81CHL1   C13 8426   2.905   5.582   7.461 -0.5090 -0.0150  0.4937
   81CHL1   C18 8427   2.930   5.436   7.474  0.6811 -0.3373  0.1350
   81CHL1  H18A 8428   2.840   5.385   7.517  0.4420 -1.0765 -1.1952
   81CHL1  H18B 8429   2.933   5.384   7.376 -1.4085  0.8938 -0.6572
   81CHL1  H18C 8430   3.017   5.425   7.542  0.3842  0.6984  0.7057
   81CHL1   C12 8431   2.770   5.615   7.382 -0.1323  0.2215 -0.0104
   81CHL1  H12A 8432   2.692   5.562   7.441  1.0560 -0.0482  1.3491
   81CHL1  H12B 8433   2.749   5.723   7.394  2.1338  0.5835  1.1087
   81CHL1   C11 8434   2.774   5.563   7.237  0.1764  0.2102  0.2843
   81CHL1  H11A 8435   2.773   5.453   7.244 -0.7587  0.3228  3.2186
   81CHL1  H11B 8436   2.686   5.596   7.177  0.8349  2.5369  0.4979
   81CHL1    C9 8437   2.905   5.602   7.154  0.1369  0.1880  0.3748
   81CHL1    H9 8438   2.894   5.711   7.139 -1.0210  0.0466  0.1522
   81CHL1   C10 8439   2.908   5.543   7.014 -0.6951  0.1481 -0.2506
   81CHL1   C19 8440   2.891   5.383   7.012  0.3784 -0.6605 -0.7893
   81CHL1  H19A 8441   2.798   5.352   7.062  0.4398 -0.7186 -0.7124
   81CHL1  H19B 8442   2.891   5.344   6.908  0.0075  0.4231 -1.2194
   81CHL1  H19C 8443   2.984   5.348   7.061  1.5442 -0.6033 -2.8380
   81CHL1    C1 8444   2.799   5.611   6.924 -0.6126  0.3800  0.4004
   81CHL1   H1A 8445   2.699   5.568   6.946 -0.2515 -0.1999  0.9194
   81CHL1   H1B 8446   2.790   5.720   6.941 -3.0491 -0.1040  2.9585
   81CHL1    C2 8447   2.818   5.580   6.770  0.5757 -0.1446  0.9557
   81CHL1   H2A 8448   2.741   5.632   6.709 -1.2007 -0.2561  2.9882
   81CHL1   H2B 8449   2.801   5.470   6.765  2.3955 -0.4373  0.4745
   81CHL1   C20 8450   2.873   5.600   7.729 -0.6132 -0.4534 -0.6854
   81CHL1   H20 8451   2.925   5.503   7.741  0.6317  0.3275  0.5510
   81CHL1   C21 8452   2.716   5.573   7.712  0.0508  0.1410 -0.6810
   81CHL1  H21A 8453   2.661   5.657   7.665 -0.2700  0.1116 -0.3647
   81CHL1  H21B 8454   2.674   5.563   7.815 -3.2486  0.7137 -1.8427
   81CHL1  H21C 8455   2.694   5.478   7.659 -0.2176 -0.5431  0.6005
   81CHL1   C22 8456   2.915   5.696   7.845 -0.5866  0.1445  0.7669
   81CHL1  H22A 8457   3.025   5.702   7.861 -0.2637 -2.0817 -0.2837
   81CHL1  H22B 8458   2.869   5.792   7.815 -2.8254 -1.6312 -1.9493
   81CHL1   C23 8459   2.859   5.658   7.982  0.1512 -0.3272  0.0105
   81CHL1  H23A 8460   2.751   5.671   7.963  0.7528  1.2805 -2.8399
   81CHL1  H23B 8461   2.884   5.552   8.003 -4.6305 -1.4396  1.3126
   81CHL1   C24 8462   2.916   5.742   8.087  0.0088 -0.2930 -0.3885
   81CHL1  H24A 8463   3.026   5.734   8.092  0.0298 -0.6472 -1.2442
   81CHL1  H24B 8464   2.885   5.849   8.086 -2.4832 -0.9008  1.0289
   81CHL1   C25 8465   2.888   5.688   8.231 -0.3783  0.1024  0.9701
   81CHL1   H25 8466   2.932   5.587   8.240 -0.4090  0.2030  2.6617
   81CHL1   C26 8467   2.962   5.780   8.331  0.3734 -0.0488 -0.1591
   81CHL1  H26A 8468   3.071   5.768   8.312  0.1138  0.1516 -1.9905
   81CHL1  H26B 8469   2.917   5.881   8.322 -0.4918 -0.0589  2.9325
   81CHL1  H26C 8470   2.933   5.748   8.434  4.7487  1.3729  1.7367
   81CHL1   C27 8471   2.744   5.697   8.278  0.3612 -0.1402  0.5974
   81CHL1  H27A 8472   2.732   5.660   8.382  0.1418  0.7825  0.9033
   81CHL1  H27B 8473   2.722   5.806   8.281  1.3670  0.0762  0.5390
   81CHL1  H27C 8474   2.670   5.650   8.210  1.2663  1.0642 -1.3198
   82CHL1    C3 8475   5.681   2.072   6.866 -0.0857 -0.1145  0.7993
   82CHL1    H3 8476   5.705   2.179   6.846  2.4514 -0.5784  1.0093
   82CHL1    O3 8477   5.624   2.028   6.747  0.3129  0.5798 -0.3093
   82CHL1   H3' 8478   5.617   1.932   6.746 -0.5978  0.6210  0.6290
   82CHL1    C4 8479   5.809   1.981   6.900  1.4923  0.0221  0.6403
   82CHL1   H4A 8480   5.778   1.875   6.902  1.4129  0.0507  0.9050
   82CHL1   H4B 8481   5.867   2.006   6.808  4.1980  0.6994  2.4234
   82CHL1    C5 8482   5.878   2.020   7.027 -0.7341  0.0372  0.0935
   82CHL1    C6 8483   6.014   2.045   7.028  0.2057 -0.3491  0.3631
   82CHL1    H6 8484   6.070   2.030   6.935 -0.1002  3.6026 -0.6451
   82CHL1    C7 8485   6.076   2.081   7.164 -0.5135 -0.0385 -0.2054
   82CHL1   H7A 8486   6.158   2.010   7.189 -0.0120  0.9125  0.9453
   82CHL1   H7B 8487   6.102   2.188   7.169  1.3945 -0.5216  1.5651
   82CHL1    C8 8488   5.998   2.046   7.289 -0.2094  0.0118 -0.4569
   82CHL1    H8 8489   6.002   1.936   7.302 -0.5617 -0.0642 -0.9507
   82CHL1   C14 8490   6.060   2.118   7.404  0.0956  0.0035 -0.0660
   82CHL1   H14 8491   6.052   2.221   7.363 -2.6048  1.0093  2.5557
   82CHL1   C15 8492   6.207   2.083   7.435 -0.8310  0.3571 -0.3678
   82CHL1  H15A 8493   6.208   1.972   7.438 -0.3766  0.2180 -2.9048
   82CHL1  H15B 8494   6.283   2.113   7.359  0.8912  0.1350  1.2068
   82CHL1   C16 8495   6.226   2.136   7.578  1.1968  0.4819  0.6532
   82CHL1  H16A 8496   6.268   2.046   7.626  1.0724  0.6632  1.1077
   82CHL1  H16B 8497   6.302   2.217   7.576  1.8464 -0.1181  0.5601
   82CHL1   C17 8498   6.082   2.173   7.634 -0.1389 -0.0970 -0.1755
   82CHL1   H17 8499   6.083   2.284   7.625  0.5441 -0.1135 -0.3776
   82CHL1   C13 8500   5.983   2.101   7.536 -0.2190  0.1471 -0.1074
   82CHL1   C18 8501   5.969   1.949   7.567  0.1572  0.2966 -0.2701
   82CHL1  H18A 8502   6.061   1.887   7.567  0.5965  0.9463 -0.7566
   82CHL1  H18B 8503   5.925   1.936   7.668  0.8286 -0.1972 -0.0386
   82CHL1  H18C 8504   5.894   1.895   7.505 -0.9683  0.4184  0.9368
   82CHL1   C12 8505   5.845   2.162   7.521  0.4612  0.1939 -0.2670
   82CHL1  H12A 8506   5.776   2.156   7.607 -0.3816  1.4465 -0.8327
   82CHL1  H12B 8507   5.847   2.270   7.497  0.6105  0.2181 -0.1523
   82CHL1   C11 8508   5.764   2.097   7.402  0.8249 -0.1646  0.8387
   82CHL1  H11A 8509   5.730   1.994   7.427  0.7089 -0.4670 -0.4869
   82CHL1  H11B 8510   5.669   2.150   7.377  0.2595 -1.4461  0.1672
   82CHL1    C9 8511   5.854   2.101   7.272  0.2559  0.3127  0.3155
   82CHL1    H9 8512   5.856   2.206   7.236 -1.3068  1.0290  2.1228
   82CHL1   C10 8513   5.782   2.030   7.155 -0.0505  0.4962 -0.0437
   82CHL1   C19 8514   5.748   1.882   7.189  0.4859  0.7565 -0.6066
   82CHL1  H19A 8515   5.681   1.844   7.109  0.2402  1.3957 -0.7119
   82CHL1  H19B 8516   5.837   1.817   7.196 -1.4972 -2.0596  0.3381
   82CHL1  H19C 8517   5.701   1.869   7.289  2.2022  0.5100  0.2003
   82CHL1    C1 8518   5.648   2.107   7.124 -0.5721  0.2699  1.5005
   82CHL1   H1A 8519   5.573   2.086   7.203 -0.9693  2.1859  1.6707
   82CHL1   H1B 8520   5.668   2.216   7.129 -0.4322  0.4603 -1.4247
   82CHL1    C2 8521   5.579   2.081   6.986  0.1068 -0.6135 -1.1413
   82CHL1   H2A 8522   5.500   2.157   6.967 -0.8848 -0.4762  2.8009
   82CHL1   H2B 8523   5.523   1.986   7.001 -1.2454  0.4139  0.6292
   82CHL1   C20 8524   6.083   2.133   7.781 -0.7167 -1.3959 -0.2582
   82CHL1   H20 8525   6.110   2.027   7.797  2.0299 -0.7805 -0.3243
   82CHL1   C21 8526   5.944   2.156   7.834 -0.4290 -0.4380 -0.0562
   82CHL1  H21A 8527   5.933   2.143   7.944 -0.4942  3.7110  0.5735
   82CHL1  H21B 8528   5.870   2.094   7.778 -1.1410  0.3395 -0.0041
   82CHL1  H21C 8529   5.913   2.260   7.810  1.0509 -0.4312 -2.1701
   82CHL1   C22 8530   6.184   2.228   7.859 -0.9008  0.2408 -0.0847
   82CHL1  H22A 8531   6.283   2.222   7.810 -0.9755  2.6203 -0.6613
   82CHL1  H22B 8532   6.151   2.334   7.861 -0.7231  0.3135 -0.8853
   82CHL1   C23 8533   6.193   2.190   8.008  0.4055 -0.5281 -0.4821
   82CHL1  H23A 8534   6.265   2.259   8.057  1.1974 -0.7300 -1.3202
   82CHL1  H23B 8535   6.090   2.205   8.046  0.8406  0.8046  0.2238
   82CHL1   C24 8536   6.241   2.045   8.040 -0.4331  0.5300 -1.0831
   82CHL1  H24A 8537   6.177   1.968   7.992 -1.5433 -0.7099  2.1682
   82CHL1  H24B 8538   6.347   2.041   8.005  0.1100  4.3395 -0.3019
   82CHL1   C25 8539   6.218   2.028   8.194 -0.1299 -0.1574 -0.5704
   82CHL1   H25 8540   6.112   2.054   8.215 -0.8042 -1.0267 -2.6377
   82CHL1   C26 8541   6.234   1.875   8.224  0.1123 -0.5663 -0.0544
   82CHL1  H26A 8542   6.203   1.860   8.330 -0.1445  1.3503  0.1786
   82CHL1  H26B 8543   6.170   1.807   8.163 -1.7590 -1.5959  2.8267
   82CHL1  H26C 8544   6.342   1.855   8.208  0.1925  1.5613 -3.0387
   82CHL1   C27 8545   6.334   2.087   8.282  0.0911 -0.4038 -0.7620
   82CHL1  H27A 8546   6.434   2.066   8.240  1.4185  2.0264  0.9495
   82CHL1  H27B 8547   6.322   2.198   8.284 -0.8789 -0.4373 -2.3150
   82CHL1  H27C 8548   6.330   2.043   8.383 -1.8045 -1.4110 -1.2283
   83CHL1    C3 8549   5.230   1.472   6.850 -0.4944 -0.2769  0.2687
   83CHL1    H3 8550   5.180   1.377   6.879  0.7917 -1.1817 -0.3618
   83CHL1    O3 8551   5.192   1.486   6.710 -0.6991 -0.3670  0.4986
   83CHL1   H3' 8552   5.212   1.580   6.701 -0.6618 -0.2558  1.5621
   83CHL1    C4 8553   5.189   1.600   6.922 -0.1051  0.1876 -0.2435
   83CHL1   H4A 8554   5.236   1.691   6.878  0.0626 -0.3608 -1.2393
   83CHL1   H4B 8555   5.082   1.606   6.892 -0.2533 -1.9498 -0.3510
   83CHL1    C5 8556   5.226   1.602   7.066 -0.8202  0.3222 -0.3326
   83CHL1    C6 8557   5.136   1.615   7.165  0.1152  0.3376 -0.2078
   83CHL1    H6 8558   5.029   1.636   7.148 -0.0937  1.3500  2.0495
   83CHL1    C7 8559   5.175   1.608   7.311 -1.0133  0.0852  0.0216
   83CHL1   H7A 8560   5.130   1.691   7.370  1.1140  1.6305 -0.4410
   83CHL1   H7B 8561   5.134   1.515   7.357 -0.8827  0.5247  1.0543
   83CHL1    C8 8562   5.332   1.623   7.328 -0.4257 -0.0042 -0.2818
   83CHL1    H8 8563   5.353   1.731   7.317 -0.5141  0.1200  0.6428
   83CHL1   C14 8564   5.368   1.590   7.469 -0.0440  0.5183  0.1829
   83CHL1   H14 8565   5.316   1.494   7.488  2.3405 -0.8382  0.2715
   83CHL1   C15 8566   5.315   1.665   7.594  0.4455  0.2666  0.5553
   83CHL1  H15A 8567   5.326   1.773   7.571  0.3366 -0.1300 -1.4742
   83CHL1  H15B 8568   5.206   1.649   7.611  0.2366 -0.9282 -1.6058
   83CHL1   C16 8569   5.397   1.613   7.716  0.6447 -0.1249 -0.2820
   83CHL1  H16A 8570   5.429   1.707   7.765  1.8480 -0.8858  0.4345
   83CHL1  H16B 8571   5.355   1.538   7.787  1.1929 -0.9695 -0.8301
   83CHL1   C17 8572   5.515   1.543   7.656 -0.7882  0.4288 -0.2337
   83CHL1   H17 8573   5.493   1.434   7.644  1.9661 -0.1390 -0.8033
   83CHL1   C13 8574   5.523   1.586   7.507  0.1691  0.2448  0.0388
   83CHL1   C18 8575   5.579   1.729   7.496  1.3173  0.6714 -0.3987
   83CHL1  H18A 8576   5.555   1.789   7.587 -2.4280 -0.3087 -0.5806
   83CHL1  H18B 8577   5.689   1.726   7.482  1.3495  2.9342 -1.0777
   83CHL1  H18C 8578   5.534   1.788   7.413  2.5811  0.5992 -1.1476
   83CHL1   C12 8579   5.601   1.490   7.405  0.2524  0.1589 -0.0774
   83CHL1  H12A 8580   5.710   1.494   7.424  0.5468 -0.6507 -1.4596
   83CHL1  H12B 8581   5.559   1.387   7.406 -1.4796  0.8406 -0.0910
   83CHL1   C11 8582   5.565   1.539   7.263 -0.3516 -0.0783 -0.0628
   83CHL1  H11A 8583   5.589   1.645   7.240 -2.3170  0.5416  0.5439
   83CHL1  H11B 8584   5.620   1.469   7.197  0.9743 -1.1401  2.0751
   83CHL1    C9 8585   5.413   1.538   7.231  1.3207  0.2204 -0.4611
   83CHL1    H9 8586   5.380   1.436   7.260 -3.4070  0.7315 -2.9784
   83CHL1   C10 8587   5.374   1.565   7.085 -0.3307  0.3343 -0.0366
   83CHL1   C19 8588   5.456   1.686   7.029 -0.6286 -0.4600 -0.1285
   83CHL1  H19A 8589   5.466   1.761   7.110 -1.0596 -0.6911  0.1447
   83CHL1  H19B 8590   5.557   1.646   7.004  0.2162 -0.1889  2.5183
   83CHL1  H19C 8591   5.418   1.734   6.937 -0.0303 -1.4115 -0.8847
   83CHL1    C1 8592   5.409   1.427   7.011  0.1812  0.8161  0.0802
   83CHL1   H1A 8593   5.513   1.401   7.040 -1.4557 -2.8661  3.7054
   83CHL1   H1B 8594   5.342   1.346   7.049 -1.3252  1.9572 -0.0274
   83CHL1    C2 8595   5.383   1.447   6.863 -0.1418  0.5374  0.1090
   83CHL1   H2A 8596   5.420   1.357   6.810 -0.7496 -0.3189  1.1101
   83CHL1   H2B 8597   5.444   1.535   6.830 -0.6770  1.4946  1.5552
   83CHL1   C20 8598   5.642   1.535   7.738 -0.0844 -0.7221 -0.2093
   83CHL1   H20 8599   5.726   1.507   7.671 -0.4499  0.1552 -1.0536
   83CHL1   C21 8600   5.637   1.417   7.838 -0.1093 -0.1903  0.4895
   83CHL1  H21A 8601   5.627   1.313   7.799  0.8092  0.5643 -1.9477
   83CHL1  H21B 8602   5.541   1.438   7.891  0.0934  0.4590  0.6064
   83CHL1  H21C 8603   5.724   1.428   7.906  0.0884  2.5537 -0.1132
   83CHL1   C22 8604   5.688   1.669   7.815  0.2775  0.2192  0.4132
   83CHL1  H22A 8605   5.653   1.758   7.758 -2.4904 -0.4216  0.9495
   83CHL1  H22B 8606   5.626   1.661   7.907 -0.6574 -0.2736 -0.2423
   83CHL1   C23 8607   5.844   1.689   7.851  0.2100 -0.5780  0.5113
   83CHL1  H23A 8608   5.876   1.602   7.913  1.8234  0.6918  1.5274
   83CHL1  H23B 8609   5.912   1.695   7.763  2.5569  0.8876  2.2942
   83CHL1   C24 8610   5.855   1.816   7.943  0.4232 -0.0656  0.5942
   83CHL1  H24A 8611   5.961   1.832   7.971 -0.3684  0.9061  3.3324
   83CHL1  H24B 8612   5.815   1.909   7.897 -2.3312 -0.6234  1.6575
   83CHL1   C25 8613   5.766   1.804   8.074 -0.3289  0.0103 -0.1852
   83CHL1   H25 8614   5.659   1.806   8.041 -0.4514  0.9889  0.2497
   83CHL1   C26 8615   5.773   1.685   8.166 -0.3639 -1.0172  0.0532
   83CHL1  H26A 8616   5.875   1.693   8.209 -0.5310  2.1904  0.0426
   83CHL1  H26B 8617   5.697   1.676   8.246 -1.4552 -3.2124 -1.0982
   83CHL1  H26C 8618   5.754   1.586   8.118 -2.2617 -1.9930  2.5922
   83CHL1   C27 8619   5.783   1.936   8.155  0.4509  0.1582 -0.9736
   83CHL1  H27A 8620   5.784   2.029   8.094  0.1072  1.2022  0.5738
   83CHL1  H27B 8621   5.711   1.940   8.239  2.2325 -0.7733  0.6932
   83CHL1  H27C 8622   5.878   1.931   8.212 -0.7649  1.2303  1.2447
   84CHL1    C3 8623   0.198   6.242   6.834  0.3993  0.4764  0.1676
   84CHL1    H3 8624   0.302   6.203   6.826  0.1834  0.0568 -0.7850
   84CHL1    O3 8625   0.162   6.251   6.697  0.8608 -0.0958 -0.1906
   84CHL1   H3' 8626   0.075   6.292   6.697  0.7705 -0.2817 -0.5604
   84CHL1    C4 8627   0.112   6.149   6.912  0.7476  0.2546  0.0462
   84CHL1   H4A 8628   0.006   6.181   6.901 -0.0617 -2.1082  0.1867
   84CHL1   H4B 8629   0.110   6.049   6.862 -0.5435  0.9206 -1.3300
   84CHL1    C5 8630   0.156   6.146   7.056 -0.1887 -0.1253  0.1437
   84CHL1    C6 8631   0.186   6.028   7.113  0.0316  0.1624 -0.0457
   84CHL1    H6 8632   0.171   5.930   7.067 -0.3543 -0.0654  0.5457
   84CHL1    C7 8633   0.222   6.028   7.262  0.2596  1.1241 -0.1819
   84CHL1   H7A 8634   0.170   5.938   7.301  2.5120 -1.2598 -2.2638
   84CHL1   H7B 8635   0.331   6.012   7.274  0.0172  0.2310  0.9913
   84CHL1    C8 8636   0.186   6.151   7.341 -0.1043  0.3329  0.1104
   84CHL1    H8 8637   0.075   6.156   7.346 -0.2117 -1.1209 -0.4570
   84CHL1   C14 8638   0.244   6.148   7.477  0.1142  0.0196 -0.0623
   84CHL1   H14 8639   0.354   6.153   7.464  0.2462 -0.5822  0.7629
   84CHL1   C15 8640   0.217   6.028   7.561 -0.4113  0.2824 -0.6389
   84CHL1  H15A 8641   0.114   5.986   7.553 -0.3545  0.1250 -0.5542
   84CHL1  H15B 8642   0.270   5.938   7.523  0.5860 -0.6838  2.7128
   84CHL1   C16 8643   0.252   6.062   7.705  0.4535  0.0692  0.5294
   84CHL1  H16A 8644   0.154   6.064   7.756 -0.5180 -0.2431 -1.2503
   84CHL1  H16B 8645   0.340   6.010   7.749  3.1722  2.5847 -1.4813
   84CHL1   C17 8646   0.284   6.217   7.700 -0.3484  0.0284  0.7739
   84CHL1   H17 8647   0.395   6.215   7.692  0.1261 -0.7898  5.1086
   84CHL1   C13 8648   0.209   6.267   7.561  0.1271 -0.2876 -0.0094
   84CHL1   C18 8649   0.060   6.279   7.587 -0.0163  0.3855 -0.0540
   84CHL1  H18A 8650   0.011   6.181   7.569  1.2217 -0.5545  1.4185
   84CHL1  H18B 8651   0.032   6.317   7.687  0.8710  0.7338  0.0673
   84CHL1  H18C 8652   0.020   6.350   7.511 -2.7420  0.1303  1.0179
   84CHL1   C12 8653   0.273   6.390   7.487 -0.3101  0.2761 -0.4608
   84CHL1  H12A 8654   0.263   6.489   7.537  2.5075  0.2023  0.4424
   84CHL1  H12B 8655   0.381   6.374   7.467 -0.7702  0.9930 -4.5341
   84CHL1   C11 8656   0.214   6.407   7.342 -0.3535 -0.2515 -1.4821
   84CHL1  H11A 8657   0.107   6.433   7.354 -0.4872 -1.5286  0.5012
   84CHL1  H11B 8658   0.266   6.493   7.296 -2.1630  2.2738  0.8935
   84CHL1    C9 8659   0.228   6.280   7.264 -0.0764  0.1594 -0.3908
   84CHL1    H9 8660   0.337   6.258   7.258 -0.0335  0.0683  0.5639
   84CHL1   C10 8661   0.167   6.280   7.121 -0.7818 -0.1426 -0.4324
   84CHL1   C19 8662   0.025   6.347   7.132 -0.5550 -0.1942  0.0117
   84CHL1  H19A 8663  -0.039   6.340   7.042 -0.5127 -0.3473 -0.0069
   84CHL1  H19B 8664  -0.028   6.290   7.212  1.0280 -2.7958 -0.6909
   84CHL1  H19C 8665   0.026   6.453   7.165 -2.5155 -0.3559  0.7925
   84CHL1    C1 8666   0.267   6.375   7.036 -0.0089  0.2144  0.4304
   84CHL1   H1A 8667   0.293   6.477   7.071  2.8856  0.2676 -1.4993
   84CHL1   H1B 8668   0.365   6.324   7.025 -0.6042 -0.8487 -0.1154
   84CHL1    C2 8669   0.210   6.385   6.895 -0.1175  0.7261  0.0450
   84CHL1   H2A 8670   0.290   6.440   6.841  0.3215  0.6993  0.6463
   84CHL1   H2B 8671   0.113   6.438   6.887 -0.1171  1.2931  2.6823
   84CHL1   C20 8672   0.253   6.295   7.825 -0.2174  0.6301  0.5369
   84CHL1   H20 8673   0.144   6.299   7.849 -0.4530  1.6416 -0.6148
   84CHL1   C21 8674   0.316   6.432   7.824  0.0761 -0.1403  0.2991
   84CHL1  H21A 8675   0.279   6.492   7.910 -0.6725 -0.1072 -0.0388
   84CHL1  H21B 8676   0.292   6.493   7.734 -0.4603 -2.2145 -1.0354
   84CHL1  H21C 8677   0.427   6.433   7.831  0.0143  0.5176  1.4032
   84CHL1   C22 8678   0.318   6.226   7.954  0.6088  0.3280 -0.5123
   84CHL1  H22A 8679   0.293   6.118   7.948  0.0744  0.3129  1.5419
   84CHL1  H22B 8680   0.429   6.233   7.953  0.5714  1.1493  0.3583
   84CHL1   C23 8681   0.265   6.284   8.080 -0.2579 -0.1760  0.0554
   84CHL1  H23A 8682   0.296   6.389   8.097  0.0086  0.0180 -1.4360
   84CHL1  H23B 8683   0.155   6.281   8.088 -0.3521  0.2325 -0.9608
   84CHL1   C24 8684   0.308   6.196   8.199 -0.9080 -0.3471  0.5072
   84CHL1  H24A 8685   0.281   6.091   8.178 -1.7220  0.1001 -0.7434
   84CHL1  H24B 8686   0.419   6.192   8.210 -0.6771 -1.3152 -1.7146
   84CHL1   C25 8687   0.248   6.244   8.333  0.2790  0.0432 -0.1253
   84CHL1   H25 8688   0.140   6.259   8.309  0.5757  2.4514 -0.1600
   84CHL1   C26 8689   0.257   6.133   8.438  0.0994 -0.1010 -0.1002
   84CHL1  H26A 8690   0.219   6.038   8.397 -0.4157  0.0954 -0.0884
   84CHL1  H26B 8691   0.365   6.116   8.458  0.5164  1.9832 -0.3290
   84CHL1  H26C 8692   0.199   6.156   8.530  0.3624 -0.1544  0.0773
   84CHL1   C27 8693   0.307   6.375   8.376 -0.0918  0.1458 -0.7901
   84CHL1  H27A 8694   0.290   6.453   8.298  2.6171 -0.3045 -1.9479
   84CHL1  H27B 8695   0.260   6.391   8.475  1.7425  0.0768  0.1294
   84CHL1  H27C 8696   0.414   6.370   8.403  0.0559  1.1549 -1.1309
   85CHL1    C3 8697   6.549   5.233   6.781 -0.4183  0.1149  0.1634
   85CHL1    H3 8698   6.556   5.333   6.732 -3.2487  0.0751 -0.4970
   85CHL1    O3 8699   6.523   5.132   6.680 -0.1118 -0.0469  0.0818
   85CHL1   H3' 8700   6.439   5.156   6.642 -0.3454  0.4158  0.8673
   85CHL1    C4 8701   6.673   5.209   6.868  0.2798 -0.2872  1.0799
   85CHL1   H4A 8702   6.663   5.104   6.903 -0.8168 -1.0842 -1.3773
   85CHL1   H4B 8703   6.763   5.219   6.804 -0.1306  0.6103  0.6307
   85CHL1    C5 8704   6.677   5.311   6.981  0.7027  0.2070  0.2427
   85CHL1    C6 8705   6.777   5.391   6.995 -0.1975  0.1446 -0.6565
   85CHL1    H6 8706   6.860   5.380   6.923 -0.0397  1.5327 -0.7146
   85CHL1    C7 8707   6.796   5.489   7.108  0.3795  0.6250 -0.1161
   85CHL1   H7A 8708   6.905   5.489   7.129  0.9108  0.4997 -2.5779
   85CHL1   H7B 8709   6.766   5.592   7.078 -0.1765  0.8471  1.1246
   85CHL1    C8 8710   6.711   5.451   7.235 -0.2550  0.3844 -0.0283
   85CHL1    H8 8711   6.759   5.360   7.277  0.2787  1.1017  0.9493
   85CHL1   C14 8712   6.708   5.567   7.327  0.1412  0.0852 -0.5658
   85CHL1   H14 8713   6.656   5.648   7.271  0.7664 -0.1439 -1.5190
   85CHL1   C15 8714   6.842   5.627   7.379 -0.8200 -0.3541 -0.1549
   85CHL1  H15A 8715   6.917   5.551   7.411 -1.0991 -0.8892 -0.7428
   85CHL1  H15B 8716   6.883   5.698   7.304 -0.5999  1.0001  1.1974
   85CHL1   C16 8717   6.804   5.709   7.506  0.2820 -0.5595 -0.3850
   85CHL1  H16A 8718   6.867   5.696   7.597 -0.8839  0.1752  0.5567
   85CHL1  H16B 8719   6.816   5.817   7.484 -3.8903  0.0948 -0.2440
   85CHL1   C17 8720   6.651   5.690   7.528  0.1503 -0.5264  0.3496
   85CHL1   H17 8721   6.602   5.771   7.471  1.6009 -1.5410 -2.5494
   85CHL1   C13 8722   6.623   5.552   7.458  0.1798  0.2695 -0.2206
   85CHL1   C18 8723   6.677   5.428   7.540  0.4619 -0.2476 -1.3970
   85CHL1  H18A 8724   6.680   5.338   7.474 -0.7869  0.4165 -2.4095
   85CHL1  H18B 8725   6.770   5.448   7.597  1.2024 -2.1192 -1.8580
   85CHL1  H18C 8726   6.595   5.410   7.612 -0.9218  2.3721 -2.1923
   85CHL1   C12 8727   6.481   5.526   7.413 -0.1733 -0.4642 -0.2037
   85CHL1  H12A 8728   6.415   5.494   7.497  2.2537 -2.6200  1.0233
   85CHL1  H12B 8729   6.442   5.615   7.360 -0.8421 -0.7027 -0.1242
   85CHL1   C11 8730   6.476   5.414   7.307 -0.3128  0.0653 -0.6290
   85CHL1  H11A 8731   6.510   5.321   7.357  0.6211  0.7170 -0.0273
   85CHL1  H11B 8732   6.370   5.391   7.280 -0.6122  2.4300 -1.7755
   85CHL1    C9 8733   6.575   5.420   7.184  0.3888 -0.1367 -0.2851
   85CHL1    H9 8734   6.543   5.517   7.143 -0.1340  0.2406  0.9504
   85CHL1   C10 8735   6.557   5.310   7.078 -0.4926 -0.0512 -0.5335
   85CHL1   C19 8736   6.557   5.168   7.141  0.8120  0.0899  0.0986
   85CHL1  H19A 8737   6.547   5.083   7.070 -0.5523 -0.8890  1.3896
   85CHL1  H19B 8738   6.647   5.143   7.202 -0.5774 -1.7745  1.5244
   85CHL1  H19C 8739   6.468   5.155   7.207  0.9368 -0.8453  0.0893
   85CHL1    C1 8740   6.439   5.339   6.990 -0.2516 -0.0478  0.3260
   85CHL1   H1A 8741   6.343   5.332   7.046 -1.8436 -0.8211 -2.3414
   85CHL1   H1B 8742   6.457   5.439   6.946  0.0002  0.1465  0.8498
   85CHL1    C2 8743   6.426   5.237   6.874 -0.1452 -0.6452  0.0493
   85CHL1   H2A 8744   6.337   5.278   6.823  0.0460  0.5295  0.6249
   85CHL1   H2B 8745   6.396   5.135   6.905  1.6626 -1.0107  0.7049
   85CHL1   C20 8746   6.608   5.699   7.678 -0.2154  0.2194 -0.3780
   85CHL1   H20 8747   6.663   5.626   7.741 -1.2030  1.3203  1.8844
   85CHL1   C21 8748   6.459   5.672   7.698 -0.0251  0.2379  0.2697
   85CHL1  H21A 8749   6.403   5.727   7.619  1.9344  0.5932 -0.9369
   85CHL1  H21B 8750   6.428   5.713   7.796 -1.2973  0.9415 -0.4001
   85CHL1  H21C 8751   6.432   5.565   7.688  0.1276  0.3776 -2.7985
   85CHL1   C22 8752   6.656   5.840   7.739 -0.6072 -0.2702 -0.1986
   85CHL1  H22A 8753   6.760   5.861   7.709 -0.5955 -0.1460 -0.0728
   85CHL1  H22B 8754   6.591   5.914   7.687  2.9809  1.3331 -2.8151
   85CHL1   C23 8755   6.644   5.854   7.891  0.6896 -0.6723 -0.4746
   85CHL1  H23A 8756   6.537   5.861   7.922 -0.2808 -4.4406 -2.3691
   85CHL1  H23B 8757   6.684   5.760   7.935 -0.2982 -0.4487  1.0017
   85CHL1   C24 8758   6.725   5.973   7.950  0.0358  0.3386 -0.0289
   85CHL1  H24A 8759   6.824   5.931   7.976 -0.9594 -2.1514 -0.0206
   85CHL1  H24B 8760   6.728   6.057   7.878 -1.5055  1.9171  1.6217
   85CHL1   C25 8761   6.686   6.020   8.092  0.1088  0.2393 -0.7425
   85CHL1   H25 8762   6.603   5.955   8.126  0.5617 -0.1473 -0.3629
   85CHL1   C26 8763   6.804   6.011   8.192  0.0754 -0.0443  0.4136
   85CHL1  H26A 8764   6.880   6.084   8.158 -1.5053  0.9921 -1.0360
   85CHL1  H26B 8765   6.782   6.056   8.291  1.9717  1.9748 -0.0157
   85CHL1  H26C 8766   6.840   5.906   8.193 -0.8781 -0.3830  1.5197
   85CHL1   C27 8767   6.638   6.167   8.095  0.3863 -0.8588 -0.1547
   85CHL1  H27A 8768   6.718   6.231   8.052 -0.0854 -0.4097 -0.3682
   85CHL1  H27B 8769   6.549   6.185   8.032  0.7443  1.8097 -0.0026
   85CHL1  H27C 8770   6.626   6.202   8.200 -0.7621 -1.0708 -0.2010
   86CHL1    C3 8771   2.544   6.378   6.814  0.4578  0.7331  0.2186
   86CHL1    H3 8772   2.508   6.275   6.835 -1.5268  0.4469 -3.7178
   86CHL1    O3 8773   2.533   6.402   6.672  0.3979  0.7118  0.4340
   86CHL1   H3' 8774   2.584   6.483   6.662  0.9950  0.1288 -1.9672
   86CHL1    C4 8775   2.451   6.474   6.883  0.2901  0.6188  0.3200
   86CHL1   H4A 8776   2.470   6.572   6.836  0.1040  2.1861  3.2635
   86CHL1   H4B 8777   2.343   6.461   6.861  0.2004  1.1054  0.4582
   86CHL1    C5 8778   2.479   6.474   7.032 -0.1798  0.0119 -0.6803
   86CHL1    C6 8779   2.378   6.459   7.118 -0.5064 -0.3395  0.0134
   86CHL1    H6 8780   2.277   6.449   7.074 -0.2596 -3.1946 -0.1164
   86CHL1    C7 8781   2.387   6.465   7.268 -0.5484  0.4683 -0.5547
   86CHL1   H7A 8782   2.308   6.542   7.284 -1.9183 -1.2677  1.5188
   86CHL1   H7B 8783   2.355   6.368   7.311 -2.4305  0.1717 -2.4286
   86CHL1    C8 8784   2.518   6.528   7.316 -0.2190  0.0185  0.2720
   86CHL1    H8 8785   2.518   6.637   7.297 -2.9264  0.1122  0.3972
   86CHL1   C14 8786   2.535   6.497   7.465  0.3133 -0.4404 -0.0611
   86CHL1   H14 8787   2.542   6.387   7.474 -1.8688 -0.7142 -0.9498
   86CHL1   C15 8788   2.417   6.526   7.565  0.7645  0.7287 -0.6160
   86CHL1  H15A 8789   2.375   6.629   7.557 -3.2185 -0.5637  0.8305
   86CHL1  H15B 8790   2.327   6.460   7.560  0.9821  0.2846  0.7656
   86CHL1   C16 8791   2.486   6.522   7.706  0.4058 -0.3356 -0.1253
   86CHL1  H16A 8792   2.475   6.622   7.753  1.6789 -1.0418  1.7626
   86CHL1  H16B 8793   2.449   6.434   7.762 -1.6686 -1.6684 -3.2922
   86CHL1   C17 8794   2.638   6.506   7.673  0.1711  0.1370  0.1453
   86CHL1   H17 8795   2.675   6.401   7.678  1.9162  0.7461  1.0529
   86CHL1   C13 8796   2.657   6.561   7.526  0.6555 -0.3798  0.6385
   86CHL1   C18 8797   2.634   6.719   7.515  0.2426 -0.2045  0.2141
   86CHL1  H18A 8798   2.636   6.746   7.408 -0.0910  2.8461  0.8919
   86CHL1  H18B 8799   2.539   6.765   7.550 -0.3103 -0.9236 -0.2943
   86CHL1  H18C 8800   2.722   6.771   7.558 -0.3216  0.7817  0.1924
   86CHL1   C12 8801   2.781   6.514   7.447  0.1255  0.5103  0.7731
   86CHL1  H12A 8802   2.878   6.557   7.477  1.2749 -0.9841 -0.6131
   86CHL1  H12B 8803   2.791   6.406   7.470  0.6046  0.2649 -0.4869
   86CHL1   C11 8804   2.766   6.536   7.296  0.6274  0.1709  0.1734
   86CHL1  H11A 8805   2.771   6.645   7.276 -3.4608  0.0638 -2.5480
   86CHL1  H11B 8806   2.851   6.486   7.245 -0.7939 -1.6251 -0.5472
   86CHL1    C9 8807   2.638   6.473   7.239 -0.0202  0.2541  0.1840
   86CHL1    H9 8808   2.636   6.365   7.263  0.9926  0.3604  0.8287
   86CHL1   C10 8809   2.623   6.494   7.079 -0.4770 -0.3417  0.1357
   86CHL1   C19 8810   2.659   6.640   7.047  0.0604 -0.7082  0.5531
   86CHL1  H19A 8811   2.602   6.716   7.105  1.3404  2.3796 -1.9183
   86CHL1  H19B 8812   2.767   6.657   7.070  0.1019  0.8605 -0.5972
   86CHL1  H19C 8813   2.641   6.660   6.939 -0.0353 -0.8459  0.5434
   86CHL1    C1 8814   2.724   6.409   7.001 -0.1425  0.0358  0.5643
   86CHL1   H1A 8815   2.829   6.437   7.023 -0.2253  1.3955 -0.6622
   86CHL1   H1B 8816   2.705   6.307   7.041 -1.3061 -0.0176 -0.0785
   86CHL1    C2 8817   2.698   6.395   6.849  0.4495 -0.2244  0.8374
   86CHL1   H2A 8818   2.743   6.302   6.808 -1.7093 -2.1357  2.5454
   86CHL1   H2B 8819   2.730   6.487   6.795  2.7778 -1.0675  0.6623
   86CHL1   C20 8820   2.725   6.568   7.784 -1.1306 -0.3297 -0.5700
   86CHL1   H20 8821   2.738   6.678   7.786 -0.7231 -0.3739  1.5836
   86CHL1   C21 8822   2.863   6.497   7.772  0.3400  0.0251  0.5906
   86CHL1  H21A 8823   2.940   6.556   7.827 -1.4642  0.8337  2.3377
   86CHL1  H21B 8824   2.902   6.483   7.668  0.6395 -0.2577  0.7384
   86CHL1  H21C 8825   2.863   6.396   7.817  0.4408 -0.4382 -0.4086
   86CHL1   C22 8826   2.667   6.532   7.926 -0.1422  0.0602 -0.0351
   86CHL1  H22A 8827   2.569   6.575   7.953 -0.1554 -1.0392  1.8387
   86CHL1  H22B 8828   2.671   6.421   7.924  2.1357  0.0698 -2.8076
   86CHL1   C23 8829   2.762   6.574   8.048  0.3675 -0.3745  0.9980
   86CHL1  H23A 8830   2.867   6.542   8.030  0.1629 -1.9326  2.2894
   86CHL1  H23B 8831   2.759   6.684   8.055  1.6789 -0.1493 -0.9491
   86CHL1   C24 8832   2.707   6.516   8.178  0.2241  0.1886 -0.4411
   86CHL1  H24A 8833   2.610   6.569   8.182  0.8287  1.5313 -2.3891
   86CHL1  H24B 8834   2.690   6.406   8.179  0.2718  0.1278  2.4972
   86CHL1   C25 8835   2.789   6.548   8.300 -0.4284 -0.3954 -0.7430
   86CHL1   H25 8836   2.886   6.493   8.299 -0.2627 -0.2011  1.1004
   86CHL1   C26 8837   2.828   6.694   8.320  0.2208  0.1523 -0.2265
   86CHL1  H26A 8838   2.904   6.707   8.401  0.4836  1.6691 -0.6717
   86CHL1  H26B 8839   2.883   6.741   8.235 -1.1040 -0.2801 -1.3489
   86CHL1  H26C 8840   2.735   6.751   8.342  0.6215  1.0013 -0.6952
   86CHL1   C27 8841   2.717   6.499   8.429  0.0020  0.3766  0.6302
   86CHL1  H27A 8842   2.701   6.393   8.457  0.3480  0.9156  3.0741
   86CHL1  H27B 8843   2.762   6.549   8.517 -0.0887  0.4256  0.6490
   86CHL1  H27C 8844   2.613   6.537   8.417 -0.3363 -0.8237 -0.4936
   87CHL1    C3 8845   2.401   5.658   6.666 -0.1725 -0.0086 -0.0614
   87CHL1    H3 8846   2.505   5.653   6.704 -0.2212  1.2153  0.2629
   87CHL1    O3 8847   2.396   5.645   6.525  0.0402 -0.7557  0.5200
   87CHL1   H3' 8848   2.340   5.570   6.502 -1.9463  1.0592 -0.9707
   87CHL1    C4 8849   2.323   5.539   6.729 -0.6082  0.0028 -0.2699
   87CHL1   H4A 8850   2.217   5.549   6.696 -0.9347  0.1057  0.7912
   87CHL1   H4B 8851   2.373   5.445   6.697 -0.6893 -0.0382 -0.2761
   87CHL1    C5 8852   2.334   5.547   6.879 -0.5172  0.5570 -0.5584
   87CHL1    C6 8853   2.374   5.442   6.951  0.0577 -0.2608  0.1085
   87CHL1    H6 8854   2.396   5.347   6.902  1.8286  0.9907 -1.6717
   87CHL1    C7 8855   2.394   5.451   7.096 -0.6303 -0.3223 -0.4090
   87CHL1   H7A 8856   2.367   5.353   7.141 -0.8957 -0.7133 -1.4061
   87CHL1   H7B 8857   2.502   5.470   7.115 -0.5079 -2.0165  0.8386
   87CHL1    C8 8858   2.310   5.564   7.159  0.1850 -0.3222 -0.0077
   87CHL1    H8 8859   2.204   5.533   7.163  0.3664 -0.9487 -0.0174
   87CHL1   C14 8860   2.355   5.584   7.303  0.8536  0.0913  0.4112
   87CHL1   H14 8861   2.460   5.621   7.301  2.1000 -3.0784  0.8206
   87CHL1   C15 8862   2.365   5.454   7.391 -0.4321 -0.2783 -0.0302
   87CHL1  H15A 8863   2.284   5.381   7.370  0.2375 -0.2678 -3.2342
   87CHL1  H15B 8864   2.457   5.402   7.355 -0.0240 -0.2088  0.8912
   87CHL1   C16 8865   2.366   5.506   7.535 -0.3853  0.7914 -0.0854
   87CHL1  H16A 8866   2.291   5.463   7.605 -1.1832  0.6066 -1.0384
   87CHL1  H16B 8867   2.461   5.490   7.591 -0.1103  2.2707 -0.0980
   87CHL1   C17 8868   2.344   5.660   7.525  0.1361 -0.1171 -0.3394
   87CHL1   H17 8869   2.441   5.712   7.522  0.1689 -0.1974 -0.7033
   87CHL1   C13 8870   2.278   5.687   7.387 -0.2612  0.2439 -0.4127
   87CHL1   C18 8871   2.127   5.655   7.384 -0.3462 -0.0247 -0.0626
   87CHL1  H18A 8872   2.095   5.556   7.422 -0.8641 -0.4105 -1.4491
   87CHL1  H18B 8873   2.086   5.728   7.458 -0.1831  0.5725 -0.5553
   87CHL1  H18C 8874   2.070   5.684   7.293  0.5514  1.9922 -0.0484
   87CHL1   C12 8875   2.309   5.826   7.318 -0.1172 -0.0134 -0.4690
   87CHL1  H12A 8876   2.234   5.902   7.348  1.6586  0.9338  1.8918
   87CHL1  H12B 8877   2.414   5.857   7.336 -0.3935  2.1272 -2.1470
   87CHL1   C11 8878   2.275   5.814   7.161  0.1448 -0.6013  0.2855
   87CHL1  H11A 8879   2.165   5.818   7.154  0.2860  2.1006 -1.8251
   87CHL1  H11B 8880   2.312   5.906   7.112  1.0401 -0.4251  1.2363
   87CHL1    C9 8881   2.333   5.694   7.088  0.7803 -0.4960  0.5362
   87CHL1    H9 8882   2.443   5.712   7.095  0.7351 -0.8692  2.9268
   87CHL1   C10 8883   2.290   5.684   6.935  0.2611 -0.0150 -0.2910
   87CHL1   C19 8884   2.141   5.701   6.924  0.8763  0.0984  0.1887
   87CHL1  H19A 8885   2.108   5.663   6.825  1.0773 -1.6481  0.7469
   87CHL1  H19B 8886   2.084   5.651   7.006  0.8383 -0.3449 -0.1011
   87CHL1  H19C 8887   2.116   5.809   6.930  2.7048  0.4766  2.1829
   87CHL1    C1 8888   2.371   5.795   6.856  0.0280 -0.3653  0.5019
   87CHL1   H1A 8889   2.331   5.894   6.887 -0.1550 -0.0010 -0.8570
   87CHL1   H1B 8890   2.474   5.789   6.896  0.3505  1.2514 -0.0157
   87CHL1    C2 8891   2.359   5.799   6.709 -0.4536 -0.0329  0.0706
   87CHL1   H2A 8892   2.420   5.869   6.647  0.6225 -0.6882  0.3569
   87CHL1   H2B 8893   2.254   5.810   6.675  0.0749  1.2406 -1.2623
   87CHL1   C20 8894   2.286   5.713   7.653 -0.2874 -0.4968 -0.3512
   87CHL1   H20 8895   2.179   5.682   7.652  0.4124 -3.2872  0.7574
   87CHL1   C21 8896   2.276   5.868   7.631  0.8394  0.3772 -1.0370
   87CHL1  H21A 8897   2.198   5.895   7.556  1.5029 -1.2602 -2.3773
   87CHL1  H21B 8898   2.376   5.915   7.617  1.0685  1.3369  2.8177
   87CHL1  H21C 8899   2.244   5.913   7.727 -0.0836 -1.8421 -0.2395
   87CHL1   C22 8900   2.351   5.678   7.788 -0.7220 -0.3631 -0.7500
   87CHL1  H22A 8901   2.376   5.570   7.783 -2.1050 -0.7024 -0.6063
   87CHL1  H22B 8902   2.450   5.730   7.798  0.0829 -2.0148  0.3055
   87CHL1   C23 8903   2.272   5.711   7.920  0.8232  0.0661  0.1589
   87CHL1  H23A 8904   2.260   5.819   7.945  0.3017 -0.0796  0.5404
   87CHL1  H23B 8905   2.177   5.655   7.909  2.5179 -2.7588 -1.5931
   87CHL1   C24 8906   2.341   5.635   8.032 -0.4781 -0.4113  0.0204
   87CHL1  H24A 8907   2.370   5.535   7.993 -0.5594 -0.6621  0.5964
   87CHL1  H24B 8908   2.434   5.690   8.058 -0.4430 -0.2006 -0.5288
   87CHL1   C25 8909   2.270   5.606   8.165  1.3246 -0.1538 -0.0764
   87CHL1   H25 8910   2.166   5.597   8.127  1.3775  1.8881 -0.8084
   87CHL1   C26 8911   2.329   5.481   8.246  0.1473 -0.1811  0.1619
   87CHL1  H26A 8912   2.424   5.510   8.294  0.5774 -0.1268 -0.6945
   87CHL1  H26B 8913   2.247   5.458   8.317 -2.3588  3.0570 -1.4057
   87CHL1  H26C 8914   2.359   5.400   8.175  1.0909 -0.1576  0.5280
   87CHL1   C27 8915   2.273   5.736   8.248  0.3052 -0.2140 -0.2467
   87CHL1  H27A 8916   2.224   5.812   8.185  0.9652  0.6203  0.2316
   87CHL1  H27B 8917   2.212   5.720   8.340 -0.3816 -0.1994 -0.6943
   87CHL1  H27C 8918   2.381   5.756   8.268 -0.0874  0.2857  1.6255
   88CHL1    C3 8919   6.077   4.825   7.120 -0.1529 -0.4367 -0.4983
   88CHL1    H3 8920   6.078   4.742   7.194 -0.4732  1.1195  1.3164
   88CHL1    O3 8921   6.075   4.768   6.989 -0.2172 -0.1155  0.7359
   88CHL1   H3' 8922   6.170   4.754   6.980  0.0841  1.3723  1.3842
   88CHL1    C4 8923   5.956   4.920   7.142 -0.0376  0.1001  0.6986
   88CHL1   H4A 8924   5.953   5.003   7.068 -0.4119 -0.0329  0.5668
   88CHL1   H4B 8925   5.863   4.862   7.127  0.2582 -0.6301  1.6146
   88CHL1    C5 8926   5.977   4.970   7.282 -0.0617  0.0459  0.2319
   88CHL1    C6 8927   5.883   4.951   7.369  1.1839 -0.7520  0.1769
   88CHL1    H6 8928   5.788   4.901   7.343 -0.1481  1.8755 -0.4050
   88CHL1    C7 8929   5.878   5.018   7.505  0.5370  0.4008 -0.2556
   88CHL1   H7A 8930   5.782   5.075   7.514 -0.0067 -0.2500 -1.6093
   88CHL1   H7B 8931   5.882   4.940   7.583  0.2161  1.7544  1.1732
   88CHL1    C8 8932   5.988   5.129   7.541 -0.0453  0.1061  0.6885
   88CHL1    H8 8933   5.959   5.225   7.493  4.0568  1.5861  0.7761
   88CHL1   C14 8934   6.009   5.153   7.685  0.2995  0.5735  0.4926
   88CHL1   H14 8935   6.062   5.061   7.718  1.3958  0.3182 -1.7479
   88CHL1   C15 8936   5.883   5.177   7.769 -0.3850 -1.0697 -0.3012
   88CHL1  H15A 8937   5.821   5.259   7.728 -0.8415 -1.2572  0.0081
   88CHL1  H15B 8938   5.820   5.089   7.795 -1.3723 -0.9396 -2.1049
   88CHL1   C16 8939   5.952   5.226   7.894 -0.1234  0.2620 -0.5849
   88CHL1  H16A 8940   5.885   5.299   7.943 -1.0101 -0.8332 -0.1147
   88CHL1  H16B 8941   5.949   5.149   7.974  1.3575  1.6758  0.8861
   88CHL1   C17 8942   6.099   5.269   7.870 -0.1599 -0.0249 -0.4948
   88CHL1   H17 8943   6.162   5.183   7.901 -1.5073 -2.5937 -4.1119
   88CHL1   C13 8944   6.111   5.263   7.715 -0.6703  0.2516  0.1975
   88CHL1   C18 8945   6.054   5.396   7.654 -0.3904  0.2749 -0.3918
   88CHL1  H18A 8946   6.066   5.420   7.546 -0.1953  0.5914 -0.2968
   88CHL1  H18B 8947   5.948   5.409   7.684 -0.7038 -1.2834 -0.7148
   88CHL1  H18C 8948   6.098   5.478   7.713  0.1504 -0.9068  0.9090
   88CHL1   C12 8949   6.247   5.220   7.656  0.3732  0.1978  0.5253
   88CHL1  H12A 8950   6.329   5.295   7.666  1.2584 -0.7614  0.6434
   88CHL1  H12B 8951   6.273   5.122   7.701  1.4078 -0.3120 -1.0575
   88CHL1   C11 8952   6.238   5.184   7.503  0.2706 -0.5179 -0.2764
   88CHL1  H11A 8953   6.218   5.275   7.443 -2.6074 -0.4543  0.6456
   88CHL1  H11B 8954   6.337   5.133   7.494  2.1897  2.6370  1.1861
   88CHL1    C9 8955   6.119   5.085   7.473  0.4836 -0.3070  0.1674
   88CHL1    H9 8956   6.147   4.992   7.528 -1.0399 -0.1591  1.2452
   88CHL1   C10 8957   6.103   5.052   7.324 -0.0490  0.0956  0.6674
   88CHL1   C19 8958   6.100   5.183   7.241  0.2417 -0.1270 -0.0473
   88CHL1  H19A 8959   6.021   5.249   7.284  0.6652 -1.4891  3.1653
   88CHL1  H19B 8960   6.198   5.236   7.236 -0.1182  0.5361 -0.2423
   88CHL1  H19C 8961   6.060   5.164   7.140 -3.7177 -2.2640  1.7044
   88CHL1    C1 8962   6.216   4.974   7.267  0.5343  0.5614 -0.9981
   88CHL1   H1A 8963   6.293   5.054   7.269 -0.7728  1.8893  1.3096
   88CHL1   H1B 8964   6.247   4.901   7.344 -1.2083  0.5363 -0.2654
   88CHL1    C2 8965   6.205   4.902   7.135 -0.0329 -0.8113 -0.4313
   88CHL1   H2A 8966   6.285   4.825   7.132  1.6410  0.7282  1.6133
   88CHL1   H2B 8967   6.215   4.978   7.055  0.1116 -3.6947 -3.3575
   88CHL1   C20 8968   6.141   5.392   7.959 -0.2729  0.1383  0.3474
   88CHL1   H20 8969   6.085   5.481   7.922  0.6733  1.0761  1.0824
   88CHL1   C21 8970   6.291   5.420   7.952 -0.8111  0.4393 -1.0913
   88CHL1  H21A 8971   6.313   5.440   7.845 -0.6781  0.5008 -1.0527
   88CHL1  H21B 8972   6.339   5.333   8.001 -2.3428  1.0817  1.7751
   88CHL1  H21C 8973   6.324   5.508   8.011 -0.5152  0.6085 -1.5054
   88CHL1   C22 8974   6.097   5.386   8.105 -0.6874  0.3074 -0.4076
   88CHL1  H22A 8975   6.007   5.323   8.120  2.1355 -3.6408  1.6690
   88CHL1  H22B 8976   6.172   5.333   8.168  0.4755  2.3247 -0.0174
   88CHL1   C23 8977   6.065   5.518   8.171 -0.5027  0.5974  0.8841
   88CHL1  H23A 8978   6.142   5.587   8.131  0.2183  0.0845  1.3706
   88CHL1  H23B 8979   5.968   5.553   8.129 -0.4930  0.5501  0.8233
   88CHL1   C24 8980   6.067   5.502   8.326  0.1031  0.2857 -0.0571
   88CHL1  H24A 8981   6.008   5.413   8.358  0.6541  0.0537  0.3430
   88CHL1  H24B 8982   6.176   5.484   8.344 -0.0450 -0.8720 -0.2422
   88CHL1   C25 8983   6.000   5.621   8.406 -0.3425 -0.0970 -0.5849
   88CHL1   H25 8984   6.043   5.618   8.508  2.2598 -1.8526 -1.6306
   88CHL1   C26 8985   6.027   5.758   8.344  0.8217  0.0967  0.3768
   88CHL1  H26A 8986   6.004   5.834   8.421  0.6272 -1.1118  1.5421
   88CHL1  H26B 8987   6.130   5.765   8.304  1.0362  0.1559  0.9319
   88CHL1  H26C 8988   5.961   5.782   8.258  1.9997 -0.0324 -0.5833
   88CHL1   C27 8989   5.848   5.596   8.416  0.3747 -0.0309  0.0224
   88CHL1  H27A 8990   5.810   5.616   8.314  0.4192  0.8300  0.1635
   88CHL1  H27B 8991   5.817   5.495   8.449  0.7836 -0.2797 -0.3541
   88CHL1  H27C 8992   5.808   5.678   8.480 -3.2554  0.2257 -2.2829
   89CHL1    C3 8993   3.304   0.380   7.025  0.0693  0.1318  0.4707
   89CHL1    H3 8994   3.400   0.325   7.039  0.1687  0.1403 -0.1794
   89CHL1    O3 8995   3.272   0.366   6.893  0.1475 -0.1977  0.3697
   89CHL1   H3' 8996   3.177   0.354   6.887  0.0679  0.8743 -1.4527
   89CHL1    C4 8997   3.192   0.323   7.105 -0.6436 -0.3646 -0.1445
   89CHL1   H4A 8998   3.097   0.373   7.078 -0.3684 -0.9637 -2.4321
   89CHL1   H4B 8999   3.185   0.213   7.101  0.2141 -0.4058 -2.9891
   89CHL1    C5 9000   3.222   0.350   7.252  0.5938  0.3451 -0.8823
   89CHL1    C6 9001   3.252   0.251   7.341  0.1644  0.9551  0.0784
   89CHL1    H6 9002   3.263   0.149   7.303 -0.4506  1.4233 -1.3913
   89CHL1    C7 9003   3.273   0.269   7.490 -0.0188  0.2476 -0.0036
   89CHL1   H7A 9004   3.242   0.179   7.548  0.9828  0.8495  1.5077
   89CHL1   H7B 9005   3.382   0.283   7.507  0.6777  0.0057 -3.5494
   89CHL1    C8 9006   3.223   0.407   7.549 -0.2485  0.3327 -0.7474
   89CHL1    H8 9007   3.112   0.406   7.542 -0.2307 -1.5023 -1.6124
   89CHL1   C14 9008   3.280   0.427   7.683 -0.5516  0.0341 -0.2318
   89CHL1   H14 9009   3.390   0.434   7.670 -0.6239  1.1789 -0.3721
   89CHL1   C15 9010   3.268   0.310   7.784  0.0911 -0.1481 -0.5597
   89CHL1  H15A 9011   3.174   0.251   7.782  0.1804 -0.2847 -2.6590
   89CHL1  H15B 9012   3.347   0.236   7.761  0.3743  0.2023 -0.7241
   89CHL1   C16 9013   3.292   0.377   7.926 -0.0022  0.1419  0.4070
   89CHL1  H16A 9014   3.201   0.370   7.989 -0.3313 -0.8324 -0.1382
   89CHL1  H16B 9015   3.379   0.326   7.972  0.9077  1.1357 -0.1510
   89CHL1   C17 9016   3.317   0.525   7.891  0.4150  0.1057  0.0245
   89CHL1   H17 9017   3.424   0.528   7.861  0.0259 -0.9886 -1.5809
   89CHL1   C13 9018   3.243   0.555   7.754 -0.4438  0.4751 -0.6796
   89CHL1   C18 9019   3.092   0.557   7.769 -0.3041  0.1813  0.5202
   89CHL1  H18A 9020   3.051   0.646   7.822 -2.9209  1.9586 -3.9547
   89CHL1  H18B 9021   3.044   0.559   7.669  1.0230  0.9346 -0.1377
   89CHL1  H18C 9022   3.056   0.466   7.820  0.4777 -0.2385  0.3419
   89CHL1   C12 9023   3.298   0.676   7.669  0.0566  0.0394 -0.0558
   89CHL1  H12A 9024   3.261   0.773   7.708  0.9475 -0.7574  3.0007
   89CHL1  H12B 9025   3.409   0.674   7.680  0.1018 -1.0067 -0.6218
   89CHL1   C11 9026   3.246   0.659   7.521 -0.4810  0.2074  0.5656
   89CHL1  H11A 9027   3.137   0.681   7.513 -0.3258  0.5816 -0.9261
   89CHL1  H11B 9028   3.297   0.734   7.456  1.0864 -2.2239 -1.1878
   89CHL1    C9 9029   3.266   0.518   7.453 -0.0892 -0.2277  0.0690
   89CHL1    H9 9030   3.376   0.515   7.443  0.0590  0.4103  1.3189
   89CHL1   C10 9031   3.223   0.495   7.307  0.2833  0.0685  0.6793
   89CHL1   C19 9032   3.076   0.546   7.291 -0.2349  0.7217 -0.4798
   89CHL1  H19A 9033   2.998   0.487   7.343 -0.6505  2.6655  1.2304
   89CHL1  H19B 9034   3.064   0.653   7.321 -0.8108  0.1347  1.5073
   89CHL1  H19C 9035   3.052   0.543   7.182 -0.8127 -0.9958 -0.3347
   89CHL1    C1 9036   3.333   0.560   7.213  1.1578 -0.5122 -0.0611
   89CHL1   H1A 9037   3.317   0.669   7.224  2.2834 -0.4100  0.7741
   89CHL1   H1B 9038   3.435   0.536   7.250  2.1635  0.7787 -1.8035
   89CHL1    C2 9039   3.318   0.529   7.057 -0.1434 -0.2901 -0.3668
   89CHL1   H2A 9040   3.398   0.576   6.997 -0.7314  0.6493 -0.4299
   89CHL1   H2B 9041   3.230   0.580   7.013 -0.1690  2.1235  2.1967
   89CHL1   C20 9042   3.305   0.630   8.001  0.0918 -0.2141  0.8266
   89CHL1   H20 9043   3.307   0.734   7.962  0.7172  0.1927  1.9263
   89CHL1   C21 9044   3.435   0.618   8.079  0.1008  0.4183  0.1797
   89CHL1  H21A 9045   3.454   0.516   8.119 -1.1538 -0.1452 -0.5876
   89CHL1  H21B 9046   3.427   0.684   8.168 -1.6609  1.4198 -0.6719
   89CHL1  H21C 9047   3.527   0.655   8.029  2.1922 -1.2045  2.5478
   89CHL1   C22 9048   3.187   0.620   8.096  0.3458  0.1620  0.0696
   89CHL1  H22A 9049   3.090   0.597   8.047 -0.1150 -0.3728  1.1877
   89CHL1  H22B 9050   3.206   0.537   8.167 -3.3924 -1.0155 -0.0639
   89CHL1   C23 9051   3.151   0.748   8.179  0.0789 -0.6296 -1.2035
   89CHL1  H23A 9052   3.243   0.785   8.229 -0.4135 -0.1058 -0.6737
   89CHL1  H23B 9053   3.114   0.837   8.122  0.0510  0.5188  0.5441
   89CHL1   C24 9054   3.039   0.729   8.292  0.0703 -0.1758  0.0182
   89CHL1  H24A 9055   3.027   0.826   8.345 -3.0960 -0.0337 -0.8079
   89CHL1  H24B 9056   2.946   0.699   8.239 -0.9200 -0.3025  1.7597
   89CHL1   C25 9057   3.058   0.615   8.395  0.1222 -0.0814  0.7029
   89CHL1   H25 9058   3.056   0.517   8.342  0.4393  0.1310  0.2880
   89CHL1   C26 9059   3.196   0.616   8.454  0.6234  1.2037  0.5280
   89CHL1  H26A 9060   3.231   0.698   8.519  0.6320  3.0326 -1.6550
   89CHL1  H26B 9061   3.217   0.514   8.492  1.6053  0.0571 -2.6801
   89CHL1  H26C 9062   3.276   0.603   8.377 -0.6564  0.1638 -0.6942
   89CHL1   C27 9063   2.943   0.602   8.492  0.4894  0.0002 -0.2526
   89CHL1  H27A 9064   2.839   0.617   8.456 -0.1263  3.8364  2.5060
   89CHL1  H27B 9065   2.955   0.505   8.544 -0.8656 -0.0619 -0.0044
   89CHL1  H27C 9066   2.958   0.685   8.564  0.9122  0.6716 -1.0915
   90CHL1    C3 9067   2.547   0.725   7.005  0.2233 -0.8478  0.9591
   90CHL1    H3 9068   2.644   0.778   7.010 -0.3443  0.2586  0.7699
   90CHL1    O3 9069   2.524   0.695   6.869 -0.1835  0.0707 -0.3598
   90CHL1   H3' 9070   2.505   0.778   6.825 -2.5823  0.4083  1.1232
   90CHL1    C4 9071   2.566   0.593   7.081 -0.5001  0.2752 -0.6787
   90CHL1   H4A 9072   2.469   0.545   7.054  0.0640 -0.3436 -1.6707
   90CHL1   H4B 9073   2.646   0.532   7.035  0.3919  1.1269 -0.2750
   90CHL1    C5 9074   2.571   0.603   7.236  0.2794 -0.2061 -0.1475
   90CHL1    C6 9075   2.672   0.542   7.302  0.3329  0.2185 -0.4339
   90CHL1    H6 9076   2.759   0.491   7.260  0.4328 -1.1154  1.3102
   90CHL1    C7 9077   2.682   0.554   7.449 -0.3811  0.6556  0.4353
   90CHL1   H7A 9078   2.671   0.451   7.490 -2.0809  0.8858  0.6406
   90CHL1   H7B 9079   2.784   0.591   7.472  0.2905 -1.7910  1.7648
   90CHL1    C8 9080   2.579   0.639   7.523  0.0807 -0.3950  0.2233
   90CHL1    H8 9081   2.491   0.576   7.550 -0.1016 -0.5443 -0.7098
   90CHL1   C14 9082   2.634   0.693   7.657  0.6278  0.4874  0.1727
   90CHL1   H14 9083   2.722   0.757   7.631  1.1607  0.4639  1.8259
   90CHL1   C15 9084   2.683   0.595   7.756 -0.5626  0.2578  0.0546
   90CHL1  H15A 9085   2.592   0.532   7.762 -1.6588  1.8372  1.0880
   90CHL1  H15B 9086   2.777   0.540   7.734 -1.0871 -1.1011  1.0746
   90CHL1   C16 9087   2.696   0.669   7.889 -0.4127 -0.4832  0.3756
   90CHL1  H16A 9088   2.643   0.608   7.966  0.2225 -1.1060  0.3322
   90CHL1  H16B 9089   2.804   0.671   7.915 -0.0309 -4.8890 -0.0992
   90CHL1   C17 9090   2.622   0.801   7.871  0.0769  0.1565  0.0341
   90CHL1   H17 9091   2.709   0.867   7.851  0.3979 -0.8755 -2.2481
   90CHL1   C13 9092   2.543   0.788   7.740  0.3138 -0.2039  0.1584
   90CHL1   C18 9093   2.410   0.714   7.772  0.3653 -0.0111  0.3950
   90CHL1  H18A 9094   2.417   0.627   7.840 -1.5440 -0.2528  0.3077
   90CHL1  H18B 9095   2.342   0.789   7.818  1.2440  0.2779  1.2808
   90CHL1  H18C 9096   2.364   0.678   7.678  1.7071  0.5281 -0.5073
   90CHL1   C12 9097   2.517   0.906   7.654  1.2710 -0.0882 -0.5055
   90CHL1  H12A 9098   2.447   0.968   7.714  0.8764 -1.0205  0.0140
   90CHL1  H12B 9099   2.601   0.974   7.628  2.1702 -0.7532  0.5694
   90CHL1   C11 9100   2.451   0.871   7.517 -0.0580 -0.6864 -0.2592
   90CHL1  H11A 9101   2.350   0.824   7.517  0.5586 -2.1584  1.5022
   90CHL1  H11B 9102   2.455   0.966   7.460  2.3841  0.2183  1.2558
   90CHL1    C9 9103   2.533   0.762   7.433  0.4091  0.6663  0.9214
   90CHL1    H9 9104   2.628   0.816   7.414  0.0760  0.5849 -1.1492
   90CHL1   C10 9105   2.474   0.711   7.300  0.1329  0.4489 -0.3172
   90CHL1   C19 9106   2.333   0.646   7.327  0.5643 -0.4584 -0.1760
   90CHL1  H19A 9107   2.294   0.586   7.241  0.1889 -0.3302 -0.0937
   90CHL1  H19B 9108   2.331   0.578   7.414 -0.1762 -0.1602  0.0446
   90CHL1  H19C 9109   2.249   0.711   7.357 -0.2698 -1.4413 -0.3228
   90CHL1    C1 9110   2.454   0.838   7.204  0.3229 -0.1058  0.1965
   90CHL1   H1A 9111   2.374   0.903   7.247  1.3353  1.7999 -0.6803
   90CHL1   H1B 9112   2.541   0.906   7.207  1.0772 -1.0287 -0.2103
   90CHL1    C2 9113   2.426   0.808   7.056  0.1960 -0.0511  0.4652
   90CHL1   H2A 9114   2.410   0.894   6.987  1.9172 -0.4825 -0.5235
   90CHL1   H2B 9115   2.339   0.738   7.055  1.5514 -1.7937 -0.6925
   90CHL1   C20 9116   2.544   0.846   8.001  0.8165 -0.5430 -0.0088
   90CHL1   H20 9117   2.467   0.768   8.019  0.4396 -0.1420  0.1583
   90CHL1   C21 9118   2.473   0.982   7.987  0.4417  0.2141 -0.3277
   90CHL1  H21A 9119   2.544   1.060   7.951  1.6010 -0.9827 -0.7124
   90CHL1  H21B 9120   2.420   1.015   8.079  1.1887  0.0846  0.1582
   90CHL1  H21C 9121   2.398   0.977   7.905 -1.2016 -1.0603  1.1612
   90CHL1   C22 9122   2.640   0.860   8.124  0.0238  0.0881  0.3608
   90CHL1  H22A 9123   2.704   0.769   8.120  1.7934  1.3103 -0.0041
   90CHL1  H22B 9124   2.705   0.946   8.099  0.5819 -0.3986  0.1022
   90CHL1   C23 9125   2.572   0.874   8.264  0.1881  0.1496  0.4400
   90CHL1  H23A 9126   2.505   0.962   8.270 -2.7596 -1.9668  1.0306
   90CHL1  H23B 9127   2.504   0.787   8.278  0.4484  0.0508  1.1092
   90CHL1   C24 9128   2.673   0.861   8.376 -1.2666 -0.2941 -0.5669
   90CHL1  H24A 9129   2.687   0.753   8.398 -0.7705 -0.3179 -0.9836
   90CHL1  H24B 9130   2.769   0.895   8.333 -1.1210  1.2793  0.8879
   90CHL1   C25 9131   2.653   0.943   8.505 -0.1124 -0.0642 -0.2479
   90CHL1   H25 9132   2.559   0.899   8.545 -0.2215  1.3833  1.1714
   90CHL1   C26 9133   2.762   0.919   8.603 -0.0414 -0.0211  0.2558
   90CHL1  H26A 9134   2.755   0.968   8.702  0.5621  2.0426 -0.6530
   90CHL1  H26B 9135   2.766   0.815   8.639 -1.3050 -0.6622 -1.3230
   90CHL1  H26C 9136   2.852   0.954   8.548 -0.8701  1.3467 -0.3139
   90CHL1   C27 9137   2.638   1.096   8.479 -0.2351  0.3941 -0.8167
   90CHL1  H27A 9138   2.727   1.139   8.429  1.4231 -1.6876  0.1852
   90CHL1  H27B 9139   2.543   1.108   8.421  0.8488  3.4972 -2.1586
   90CHL1  H27C 9140   2.622   1.154   8.572 -0.9618 -0.5725 -0.3085
   91CHL1    C3 9141   4.237   3.558   6.901 -0.6882 -1.0114  0.2340
   91CHL1    H3 9142   4.340   3.601   6.905 -0.5048 -0.7087 -3.8737
   91CHL1    O3 9143   4.210   3.511   6.776 -0.2831  0.5676  0.4339
   91CHL1   H3' 9144   4.259   3.430   6.761  0.5849  1.2743 -0.7412
   91CHL1    C4 9145   4.220   3.449   7.007 -0.4113 -0.7543 -0.5239
   91CHL1   H4A 9146   4.120   3.403   6.990 -0.2206 -1.0661 -0.8097
   91CHL1   H4B 9147   4.297   3.371   6.988  0.1537 -0.6839  1.3346
   91CHL1    C5 9148   4.237   3.505   7.149 -0.1344 -0.2060  0.3674
   91CHL1    C6 9149   4.335   3.473   7.229 -0.3359 -0.7996  0.2260
   91CHL1    H6 9150   4.414   3.400   7.202 -0.4744 -0.1845 -2.0118
   91CHL1    C7 9151   4.356   3.522   7.372  0.2449  0.2466  0.3042
   91CHL1   H7A 9152   4.386   3.432   7.430  1.3490  1.3248  1.4459
   91CHL1   H7B 9153   4.447   3.586   7.371  0.8978 -0.6158  1.6627
   91CHL1    C8 9154   4.240   3.603   7.427 -0.1869  0.1694 -0.8248
   91CHL1    H8 9155   4.159   3.535   7.461  1.0947 -0.4238  1.1660
   91CHL1   C14 9156   4.291   3.689   7.542  0.5838 -0.0890  0.1001
   91CHL1   H14 9157   4.365   3.758   7.495  0.2152  1.0733  1.1639
   91CHL1   C15 9158   4.363   3.635   7.667 -0.4315  0.0722 -0.0355
   91CHL1  H15A 9159   4.325   3.532   7.686  0.0958  0.0643  1.0151
   91CHL1  H15B 9160   4.469   3.632   7.636 -0.7127 -0.4623 -0.9841
   91CHL1   C16 9161   4.340   3.730   7.788 -0.0991 -0.0342 -0.2848
   91CHL1  H16A 9162   4.288   3.667   7.863  1.1329 -1.7983 -0.8636
   91CHL1  H16B 9163   4.441   3.758   7.823  0.1622  0.8248 -1.6364
   91CHL1   C17 9164   4.258   3.842   7.729  0.3633 -0.8173  0.0637
   91CHL1   H17 9165   4.328   3.911   7.677 -0.9637  0.9999  0.5847
   91CHL1   C13 9166   4.184   3.773   7.609  0.6610 -0.3968 -0.1784
   91CHL1   C18 9167   4.065   3.677   7.660  0.4682  0.0805 -0.0939
   91CHL1  H18A 9168   4.100   3.624   7.751  0.0699  1.2745  0.7759
   91CHL1  H18B 9169   3.981   3.742   7.692  0.6917  0.6988 -0.7200
   91CHL1  H18C 9170   4.026   3.600   7.591 -1.0916 -1.5564  2.4753
   91CHL1   C12 9171   4.126   3.873   7.506 -0.3846 -0.3879 -0.7231
   91CHL1  H12A 9172   4.048   3.934   7.555  0.7909  0.2909  0.3791
   91CHL1  H12B 9173   4.210   3.939   7.475  0.1964 -1.6048 -1.8356
   91CHL1   C11 9174   4.075   3.796   7.378 -0.8560 -0.3419  0.4880
   91CHL1  H11A 9175   3.984   3.741   7.410 -1.7411  1.1200  0.6213
   91CHL1  H11B 9176   4.051   3.879   7.308 -2.3595 -0.8612  0.3517
   91CHL1    C9 9177   4.183   3.697   7.323  0.3006  0.0974 -0.7224
   91CHL1    H9 9178   4.272   3.759   7.300 -0.0476  0.2875 -1.5766
   91CHL1   C10 9179   4.146   3.623   7.190  0.7606 -0.1622  0.0728
   91CHL1   C19 9180   4.002   3.562   7.205 -0.9210 -0.3619  0.7223
   91CHL1  H19A 9181   3.973   3.499   7.118  0.2688  0.2137 -0.1087
   91CHL1  H19B 9182   3.987   3.497   7.294  1.9583 -1.2309  0.6574
   91CHL1  H19C 9183   3.927   3.644   7.212  0.3582  1.3443 -3.0709
   91CHL1    C1 9184   4.152   3.725   7.074  0.2348 -0.8517  0.3951
   91CHL1   H1A 9185   4.065   3.793   7.092 -0.0486 -0.6823 -1.4309
   91CHL1   H1B 9186   4.247   3.783   7.077  0.5364 -1.2448 -0.9332
   91CHL1    C2 9187   4.131   3.665   6.931  0.0992 -1.2843 -1.0551
   91CHL1   H2A 9188   4.148   3.743   6.854  0.0570  1.0570  1.2162
   91CHL1   H2B 9189   4.027   3.629   6.917 -0.6401 -0.1654  1.1411
   91CHL1   C20 9190   4.179   3.928   7.826  0.2959  0.5154  0.1618
   91CHL1   H20 9191   4.108   3.987   7.764  1.8865  1.5189 -0.7611
   91CHL1   C21 9192   4.280   4.031   7.877 -0.5001 -0.3007  0.1778
   91CHL1  H21A 9193   4.351   3.973   7.941 -1.0728  1.8749  3.0299
   91CHL1  H21B 9194   4.246   4.107   7.952  1.7614  0.6113  0.3660
   91CHL1  H21C 9195   4.329   4.075   7.787  0.4821  0.5050  1.0704
   91CHL1   C22 9196   4.106   3.854   7.945 -1.0299 -0.1149 -0.7120
   91CHL1  H22A 9197   4.049   3.768   7.905 -1.2521  0.0647 -0.7838
   91CHL1  H22B 9198   4.194   3.816   8.002  0.6416  2.3038 -1.5208
   91CHL1   C23 9199   4.014   3.928   8.040  0.0985  0.1516 -0.3903
   91CHL1  H23A 9200   4.068   4.018   8.077  0.6899 -0.4219  0.1658
   91CHL1  H23B 9201   3.917   3.944   7.988 -0.6608 -2.7541 -0.0687
   91CHL1   C24 9202   3.974   3.843   8.161  0.1644  0.3302 -0.3022
   91CHL1  H24A 9203   3.935   3.741   8.144 -0.4015  0.5870 -0.6026
   91CHL1  H24B 9204   4.056   3.827   8.234 -1.0828 -0.1968  1.0290
   91CHL1   C25 9205   3.858   3.896   8.255  0.3109  0.4906 -0.7254
   91CHL1   H25 9206   3.891   3.997   8.289  3.5813 -0.0989 -1.8123
   91CHL1   C26 9207   3.729   3.903   8.178  0.4711 -0.0050  0.1732
   91CHL1  H26A 9208   3.692   3.804   8.145  1.3355 -1.2292  2.6412
   91CHL1  H26B 9209   3.654   3.943   8.249 -0.6343 -1.8213  0.0722
   91CHL1  H26C 9210   3.742   3.967   8.088 -0.4265 -0.6292 -0.4138
   91CHL1   C27 9211   3.849   3.801   8.378 -0.7095  0.2419 -0.0079
   91CHL1  H27A 9212   3.808   3.702   8.351 -0.8699  0.2315  0.2752
   91CHL1  H27B 9213   3.950   3.799   8.424  0.6769  0.3243 -2.8043
   91CHL1  H27C 9214   3.768   3.843   8.441 -1.1309  0.3839 -0.6360
   92CHL1    C3 9215   4.276   4.586   7.030  0.0462  0.4944 -0.5775
   92CHL1    H3 9216   4.384   4.563   7.041 -0.4125 -0.9316  1.6057
   92CHL1    O3 9217   4.221   4.568   6.898  0.4877  1.0837 -0.0764
   92CHL1   H3' 9218   4.213   4.472   6.890 -1.8022  1.3101 -1.4882
   92CHL1    C4 9219   4.191   4.493   7.116 -0.1079  0.0209  0.3292
   92CHL1   H4A 9220   4.088   4.529   7.096  1.3887  2.6611 -3.6841
   92CHL1   H4B 9221   4.202   4.389   7.078  0.8828 -0.3625  1.5862
   92CHL1    C5 9222   4.217   4.486   7.267 -0.2274 -0.4437 -0.4297
   92CHL1    C6 9223   4.252   4.377   7.334 -0.2315 -0.2985 -0.2791
   92CHL1    H6 9224   4.259   4.280   7.284  3.1012  0.0528 -0.7073
   92CHL1    C7 9225   4.290   4.379   7.477  0.1128  0.2067 -0.2006
   92CHL1   H7A 9226   4.219   4.305   7.519 -2.3409  1.1625 -2.4406
   92CHL1   H7B 9227   4.393   4.342   7.500  1.0198  3.2535  1.1462
   92CHL1    C8 9228   4.263   4.513   7.549 -0.4507  1.0417  0.1597
   92CHL1    H8 9229   4.153   4.511   7.562 -0.6463 -0.7304 -1.3757
   92CHL1   C14 9230   4.326   4.515   7.690 -0.3328 -0.5405  0.1674
   92CHL1   H14 9231   4.435   4.525   7.675 -0.2734  0.1143  0.9423
   92CHL1   C15 9232   4.309   4.398   7.791 -0.5518 -0.4721  0.0059
   92CHL1  H15A 9233   4.209   4.358   7.765 -0.5666  0.0507 -0.7687
   92CHL1  H15B 9234   4.383   4.319   7.769  0.7583  0.6539  0.2207
   92CHL1   C16 9235   4.329   4.451   7.931  0.0484 -0.2302  0.6449
   92CHL1  H16A 9236   4.233   4.450   7.987 -0.3412  1.1814  0.0554
   92CHL1  H16B 9237   4.405   4.393   7.987 -0.4885 -2.8220 -1.1267
   92CHL1   C17 9238   4.356   4.601   7.911  0.7815  0.2130 -0.4286
   92CHL1   H17 9239   4.462   4.605   7.880 -0.0240  0.5864 -3.4455
   92CHL1   C13 9240   4.284   4.635   7.776  0.1469 -0.4766  0.5665
   92CHL1   C18 9241   4.132   4.649   7.804  0.0752 -0.1896 -0.3971
   92CHL1  H18A 9242   4.107   4.725   7.882  1.7779  1.1486 -1.0814
   92CHL1  H18B 9243   4.080   4.660   7.707 -1.0042 -0.5529  0.1272
   92CHL1  H18C 9244   4.104   4.548   7.840 -0.5708  0.3522  0.6914
   92CHL1   C12 9245   4.335   4.762   7.693  0.1813  0.2982  0.5389
   92CHL1  H12A 9246   4.295   4.855   7.739 -1.9502 -0.3242  0.0464
   92CHL1  H12B 9247   4.446   4.760   7.691  0.1871 -0.7275  0.9437
   92CHL1   C11 9248   4.284   4.767   7.546 -0.1915  0.5352 -0.3191
   92CHL1  H11A 9249   4.176   4.792   7.557 -0.2018  0.0090  1.0369
   92CHL1  H11B 9250   4.323   4.854   7.490 -3.1135  2.3159  0.2123
   92CHL1    C9 9251   4.298   4.636   7.471 -0.6679  0.3200  1.2886
   92CHL1    H9 9252   4.404   4.614   7.446 -0.9401  0.5960 -0.2408
   92CHL1   C10 9253   4.228   4.630   7.328 -0.4491 -0.6104 -0.5792
   92CHL1   C19 9254   4.078   4.672   7.353 -0.9087  0.2604  0.0816
   92CHL1  H19A 9255   4.024   4.602   7.420 -1.9553  0.7293 -0.2351
   92CHL1  H19B 9256   4.084   4.776   7.392  2.4481  0.2578 -0.2130
   92CHL1  H19C 9257   4.019   4.680   7.259 -1.1609 -1.2109  0.0902
   92CHL1    C1 9258   4.297   4.734   7.231  0.1123 -0.0027  0.1812
   92CHL1   H1A 9259   4.282   4.839   7.264 -0.9060  0.1033 -0.5981
   92CHL1   H1B 9260   4.407   4.719   7.244 -0.0039 -0.1491  1.0598
   92CHL1    C2 9261   4.250   4.728   7.088 -0.4659 -0.3714  0.4587
   92CHL1   H2A 9262   4.299   4.803   7.022 -1.1094  0.1711  0.5818
   92CHL1   H2B 9263   4.142   4.749   7.075 -0.2692  0.8592  0.6994
   92CHL1   C20 9264   4.331   4.689   8.032 -0.5407  0.0639 -0.7985
   92CHL1   H20 9265   4.225   4.674   8.061 -0.5172  1.6665  0.1665
   92CHL1   C21 9266   4.357   4.836   8.009  0.0440 -0.8052  0.3641
   92CHL1  H21A 9267   4.456   4.866   7.970 -1.2728  1.1575 -1.7706
   92CHL1  H21B 9268   4.348   4.887   8.107 -0.5647 -1.2079  0.5245
   92CHL1  H21C 9269   4.276   4.874   7.942  0.4601 -1.7315 -0.6833
   92CHL1   C22 9270   4.403   4.634   8.157 -0.3513 -0.3737 -0.0953
   92CHL1  H22A 9271   4.393   4.713   8.234 -1.7995  0.3634 -0.9858
   92CHL1  H22B 9272   4.357   4.539   8.191  0.6846 -0.6946  0.4257
   92CHL1   C23 9273   4.561   4.622   8.142  0.0316  0.5661  0.7931
   92CHL1  H23A 9274   4.580   4.525   8.092 -1.5126  0.2639  0.7564
   92CHL1  H23B 9275   4.599   4.713   8.090  1.5610 -0.5524 -0.1322
   92CHL1   C24 9276   4.633   4.624   8.279 -0.2994 -0.1055 -0.6552
   92CHL1  H24A 9277   4.579   4.557   8.348 -1.8736  0.7209 -1.0476
   92CHL1  H24B 9278   4.742   4.606   8.265 -0.1865 -0.8909  1.0638
   92CHL1   C25 9279   4.635   4.764   8.344  0.0524  0.9766  0.1361
   92CHL1   H25 9280   4.531   4.801   8.352 -0.1092  0.4285  0.6295
   92CHL1   C26 9281   4.690   4.754   8.484 -0.6378 -0.1076  0.1586
   92CHL1  H26A 9282   4.799   4.731   8.488  0.3030  3.7839  1.2072
   92CHL1  H26B 9283   4.689   4.856   8.529  2.2604  0.1328 -0.1115
   92CHL1  H26C 9284   4.632   4.683   8.546  0.3039 -0.9449  0.1128
   92CHL1   C27 9285   4.717   4.861   8.267 -0.3429 -0.2171 -0.3302
   92CHL1  H27A 9286   4.720   4.960   8.318 -1.3991  0.5832 -1.7597
   92CHL1  H27B 9287   4.822   4.828   8.253 -0.4351  0.3722 -3.0115
   92CHL1  H27C 9288   4.670   4.879   8.168 -0.7071  2.9605  0.3254
   93CHL1    C3 9289   0.335   3.014   6.797  0.5161  0.9733  0.7669
   93CHL1    H3 9290   0.419   3.081   6.767  1.9393 -1.3132 -0.6701
   93CHL1    O3 9291   0.257   2.977   6.684  0.0575 -0.2150  1.0798
   93CHL1   H3' 9292   0.227   3.062   6.652 -1.0216 -0.5126  1.2551
   93CHL1    C4 9293   0.392   2.893   6.863 -0.8546 -0.6118 -0.0873
   93CHL1   H4A 9294   0.311   2.819   6.883 -0.2765 -0.3792  3.9000
   93CHL1   H4B 9295   0.469   2.848   6.796  1.9045 -1.5431  3.4192
   93CHL1    C5 9296   0.460   2.938   6.992 -0.3851  0.1246 -0.1795
   93CHL1    C6 9297   0.596   2.923   7.009  0.8347  0.2621 -0.5744
   93CHL1    H6 9298   0.643   2.862   6.930 -2.2054 -0.6824 -1.8122
   93CHL1    C7 9299   0.677   2.981   7.129  0.1228  0.3980  0.2568
   93CHL1   H7A 9300   0.746   2.906   7.173 -2.1721 -2.0783 -0.0888
   93CHL1   H7B 9301   0.721   3.077   7.096 -0.8450  0.0371 -2.3635
   93CHL1    C8 9302   0.582   3.016   7.249  0.0554 -0.4516  0.0264
   93CHL1    H8 9303   0.552   2.918   7.291  2.7186 -1.7327 -0.8174
   93CHL1   C14 9304   0.661   3.106   7.353  0.2786  0.5835 -0.4955
   93CHL1   H14 9305   0.679   3.201   7.299  1.1587  1.1099  0.6751
   93CHL1   C15 9306   0.800   3.054   7.399  0.4764  0.4673 -0.4462
   93CHL1  H15A 9307   0.805   2.945   7.418  1.4755  0.0139 -2.9364
   93CHL1  H15B 9308   0.887   3.057   7.330  1.4667 -1.9162  0.5912
   93CHL1   C16 9309   0.821   3.127   7.534 -0.3548  0.3473 -0.1271
   93CHL1  H16A 9310   0.839   3.055   7.617 -0.3195  1.3535  0.7645
   93CHL1  H16B 9311   0.902   3.203   7.533  0.0131  0.0205  1.3749
   93CHL1   C17 9312   0.686   3.210   7.562 -0.5240  0.3221 -0.1646
   93CHL1   H17 9313   0.699   3.316   7.530  0.1941 -0.1151 -1.3850
   93CHL1   C13 9314   0.576   3.135   7.475 -0.3449 -0.4875 -0.5646
   93CHL1   C18 9315   0.527   3.007   7.544  0.8030  0.1474 -0.0528
   93CHL1  H18A 9316   0.468   3.020   7.637 -0.4014 -3.1361 -0.2245
   93CHL1  H18B 9317   0.464   2.945   7.476  0.7916  0.7651 -0.6196
   93CHL1  H18C 9318   0.614   2.941   7.565  1.4509 -0.0648 -2.9317
   93CHL1   C12 9319   0.452   3.224   7.432 -0.1388 -0.2529  0.4973
   93CHL1  H12A 9320   0.396   3.249   7.524 -1.8886  0.6314 -0.7540
   93CHL1  H12B 9321   0.489   3.325   7.404 -1.4963  1.0974  3.2130
   93CHL1   C11 9322   0.375   3.158   7.314  0.4563  0.2184 -1.3420
   93CHL1  H11A 9323   0.323   3.073   7.362 -1.3848  2.4256  0.8561
   93CHL1  H11B 9324   0.287   3.219   7.285 -1.5550 -1.6534  0.4950
   93CHL1    C9 9325   0.463   3.098   7.196 -0.2572 -0.2480 -0.1692
   93CHL1    H9 9326   0.517   3.190   7.166  1.8060 -0.7568  1.7307
   93CHL1   C10 9327   0.377   3.032   7.081 -0.1661  0.1643 -0.3045
   93CHL1   C19 9328   0.276   2.928   7.151  0.6677  0.4004  0.1966
   93CHL1  H19A 9329   0.201   2.978   7.217  0.7454 -0.6157  1.0790
   93CHL1  H19B 9330   0.224   2.862   7.078  0.7061 -0.4209  0.8883
   93CHL1  H19C 9331   0.336   2.861   7.216  2.8308  0.8190 -1.3001
   93CHL1    C1 9332   0.302   3.152   7.017 -0.2452 -0.0553  0.3762
   93CHL1   H1A 9333   0.221   3.195   7.079 -0.4005  1.2673 -0.7026
   93CHL1   H1B 9334   0.368   3.241   7.010 -3.3917  2.3485 -1.4501
   93CHL1    C2 9335   0.245   3.105   6.881  0.6804  0.5129 -0.4290
   93CHL1   H2A 9336   0.211   3.198   6.831 -0.7930 -0.1777 -0.7627
   93CHL1   H2B 9337   0.149   3.053   6.904 -0.2837  2.2860 -0.3273
   93CHL1   C20 9338   0.652   3.223   7.708 -0.1457  0.3830  0.3915
   93CHL1   H20 9339   0.632   3.129   7.763  1.1346 -0.2128 -0.1197
   93CHL1   C21 9340   0.531   3.323   7.731 -0.1684 -0.3430  0.0970
   93CHL1  H21A 9341   0.535   3.358   7.836 -0.0352  2.6065 -0.7826
   93CHL1  H21B 9342   0.436   3.268   7.717 -1.2161  0.9508  1.7040
   93CHL1  H21C 9343   0.539   3.415   7.670  3.0876 -1.0801 -0.8156
   93CHL1   C22 9344   0.776   3.274   7.795  0.0504  0.2731  0.1789
   93CHL1  H22A 9345   0.737   3.283   7.899  0.2461  0.4142  0.2396
   93CHL1  H22B 9346   0.860   3.203   7.805 -0.0516  0.3389  1.5921
   93CHL1   C23 9347   0.825   3.403   7.745  0.0164 -0.0912 -0.4339
   93CHL1  H23A 9348   0.891   3.384   7.658  1.0394 -1.9492  0.6650
   93CHL1  H23B 9349   0.754   3.480   7.709 -1.5022 -0.3078  1.8812
   93CHL1   C24 9350   0.913   3.469   7.860  0.1837 -0.1087  0.0649
   93CHL1  H24A 9351   0.859   3.462   7.956  1.5573 -0.8340  0.8123
   93CHL1  H24B 9352   1.007   3.411   7.872  0.7973 -0.2145 -3.8279
   93CHL1   C25 9353   0.941   3.618   7.840 -0.9613 -0.0717  0.2618
   93CHL1   H25 9354   0.843   3.670   7.847 -0.0226  2.2201 -1.8476
   93CHL1   C26 9355   1.032   3.675   7.949  0.3683  0.0347 -0.3205
   93CHL1  H26A 9356   1.004   3.639   8.050 -1.3593  0.6368 -0.5514
   93CHL1  H26B 9357   1.133   3.634   7.929  0.8294  0.6103  0.7376
   93CHL1  H26C 9358   1.032   3.786   7.952 -1.0300  0.1520 -2.5799
   93CHL1   C27 9359   1.003   3.646   7.696  0.1094  0.0082 -0.4128
   93CHL1  H27A 9360   1.097   3.592   7.675  0.3323 -0.5266  1.7280
   93CHL1  H27B 9361   0.937   3.620   7.610  0.8726  0.8611 -1.2752
   93CHL1  H27C 9362   1.026   3.754   7.692  0.5741 -0.0537  0.4477
   94CHL1    C3 9363   1.135   6.053   6.688  0.5965  0.4927 -0.6291
   94CHL1    H3 9364   1.246   6.052   6.687  0.6773 -2.0223  1.1624
   94CHL1    O3 9365   1.091   6.046   6.554  0.0642 -0.2789  0.3858
   94CHL1   H3' 9366   1.166   6.064   6.497 -0.5151 -2.2383 -1.1169
   94CHL1    C4 9367   1.085   5.929   6.770 -0.4769 -0.0722  0.1701
   94CHL1   H4A 9368   0.977   5.919   6.745 -0.6420 -0.0013  0.8410
   94CHL1   H4B 9369   1.135   5.845   6.718 -0.0894  0.6443 -0.6473
   94CHL1    C5 9370   1.123   5.928   6.921 -0.2809  0.2693 -0.6118
   94CHL1    C6 9371   1.184   5.828   6.980 -0.7904  0.2762 -0.4206
   94CHL1    H6 9372   1.195   5.734   6.924 -0.8381 -0.0348  0.0802
   94CHL1    C7 9373   1.226   5.821   7.125 -0.6882  0.7315  0.1616
   94CHL1   H7A 9374   1.187   5.722   7.156 -0.0198 -0.1403 -1.6438
   94CHL1   H7B 9375   1.337   5.826   7.122 -0.5788 -1.3318 -1.0258
   94CHL1    C8 9376   1.162   5.937   7.208  0.1553 -0.2937  0.4640
   94CHL1    H8 9377   1.058   5.905   7.233 -0.0481 -0.5620 -0.6487
   94CHL1   C14 9378   1.218   5.942   7.352  0.4432  0.4095 -0.1792
   94CHL1   H14 9379   1.321   5.978   7.334 -0.2255  2.5392 -0.0014
   94CHL1   C15 9380   1.228   5.812   7.439 -0.1694 -0.1179  0.2965
   94CHL1  H15A 9381   1.132   5.758   7.436 -0.0953 -0.3124  1.2557
   94CHL1  H15B 9382   1.297   5.732   7.405  0.0975  0.3095 -0.1823
   94CHL1   C16 9383   1.273   5.861   7.575 -0.2539 -0.7876 -0.2137
   94CHL1  H16A 9384   1.211   5.811   7.652 -2.3940 -1.4544 -2.2607
   94CHL1  H16B 9385   1.383   5.848   7.586  0.3690  2.0024 -2.1796
   94CHL1   C17 9386   1.243   6.019   7.571  0.2216  0.2246  0.2207
   94CHL1   H17 9387   1.339   6.071   7.554 -0.6377  2.1681  1.0468
   94CHL1   C13 9388   1.155   6.045   7.444 -0.2317 -0.3886  0.4742
   94CHL1   C18 9389   1.008   6.021   7.468  0.0190 -0.5908 -0.5943
   94CHL1  H18A 9390   0.947   6.016   7.375 -2.7162  1.7708  0.9037
   94CHL1  H18B 9391   0.998   5.931   7.532 -0.4242  0.7841  1.3700
   94CHL1  H18C 9392   0.957   6.108   7.516  0.6812  0.6438 -2.0339
   94CHL1   C12 9393   1.177   6.179   7.373 -0.5237 -0.2789 -0.2791
   94CHL1  H12A 9394   1.133   6.263   7.431  3.7732  1.7526  0.4703
   94CHL1  H12B 9395   1.287   6.193   7.379 -0.3583 -1.8951  2.3855
   94CHL1   C11 9396   1.119   6.191   7.230 -0.1616  0.7357  0.3227
   94CHL1  H11A 9397   1.008   6.195   7.237 -0.1432  0.2740  0.9380
   94CHL1  H11B 9398   1.143   6.287   7.180  1.5889  0.2193  0.0932
   94CHL1    C9 9399   1.156   6.072   7.135  0.2562  0.5917 -0.1385
   94CHL1    H9 9400   1.264   6.092   7.115  0.3679  0.4346  0.2961
   94CHL1   C10 9401   1.092   6.056   6.995 -0.3792  0.0465  0.2201
   94CHL1   C19 9402   0.940   6.055   7.029 -0.3716 -0.5864  0.5958
   94CHL1  H19A 9403   0.892   6.049   6.929  0.9698 -3.8588  0.0105
   94CHL1  H19B 9404   0.896   5.968   7.081 -3.1497  0.4002  0.0943
   94CHL1  H19C 9405   0.907   6.143   7.089 -1.1318 -0.1513 -0.4257
   94CHL1    C1 9406   1.130   6.180   6.907 -0.3801 -0.2025  0.4607
   94CHL1   H1A 9407   1.105   6.276   6.958  1.7429  0.9112 -0.5028
   94CHL1   H1B 9408   1.240   6.171   6.909 -0.2051  1.5648  2.5147
   94CHL1    C2 9409   1.082   6.178   6.761 -0.2539  0.7915  0.2374
   94CHL1   H2A 9410   1.118   6.266   6.704  1.6858  0.1479  0.4164
   94CHL1   H2B 9411   0.972   6.191   6.764 -0.2570  0.9279 -0.3622
   94CHL1   C20 9412   1.189   6.082   7.694  0.5057  0.1524  0.1593
   94CHL1   H20 9413   1.090   6.040   7.722  1.6442 -1.0474  2.7324
   94CHL1   C21 9414   1.161   6.233   7.693  0.1936 -0.0865  0.4542
   94CHL1  H21A 9415   1.242   6.303   7.663 -0.1495  0.7885  1.5037
   94CHL1  H21B 9416   1.141   6.272   7.795  4.1495  2.5549  0.4537
   94CHL1  H21C 9417   1.079   6.254   7.621 -0.9168  1.5036  2.0754
   94CHL1   C22 9418   1.282   6.034   7.811 -0.1489 -0.3103 -0.1577
   94CHL1  H22A 9419   1.384   6.010   7.774 -0.1674 -1.4531  0.4860
   94CHL1  H22B 9420   1.300   6.127   7.870 -0.9122 -0.6384  0.6203
   94CHL1   C23 9421   1.232   5.933   7.911 -0.4929  0.2509 -0.1857
   94CHL1  H23A 9422   1.147   5.993   7.952  0.1108  2.2637 -1.6782
   94CHL1  H23B 9423   1.188   5.846   7.859  0.7902 -0.3199 -0.3358
   94CHL1   C24 9424   1.332   5.887   8.022  0.6440  0.0088 -0.1229
   94CHL1  H24A 9425   1.401   5.815   7.971  1.5585  2.0589 -1.9851
   94CHL1  H24B 9426   1.392   5.968   8.069 -0.7355  0.8596  0.2250
   94CHL1   C25 9427   1.240   5.820   8.133 -0.9495  0.5502 -0.6405
   94CHL1   H25 9428   1.152   5.886   8.146 -0.0013  1.7794 -0.2437
   94CHL1   C26 9429   1.207   5.677   8.093  0.2060 -0.5300  0.3404
   94CHL1  H26A 9430   1.121   5.672   8.023 -0.6906 -3.5262  1.4999
   94CHL1  H26B 9431   1.299   5.633   8.049  0.7288 -1.9044  2.6280
   94CHL1  H26C 9432   1.174   5.622   8.184 -0.5471 -0.8780 -0.1348
   94CHL1   C27 9433   1.317   5.815   8.265  0.2184 -0.5376  0.0466
   94CHL1  H27A 9434   1.357   5.918   8.270  1.3736 -0.9392 -0.4624
   94CHL1  H27B 9435   1.254   5.782   8.351  0.5423  1.4459  1.0850
   94CHL1  H27C 9436   1.403   5.744   8.258 -1.0369 -1.9777 -2.6422
   95CHL1    C3 9437   0.562   4.656   6.775 -0.3326  0.0994  0.0128
   95CHL1    H3 9438   0.453   4.671   6.786 -0.7016 -1.3522 -1.2747
   95CHL1    O3 9439   0.580   4.610   6.641 -0.4120 -0.2000 -0.2437
   95CHL1   H3' 9440   0.664   4.564   6.641 -0.5343 -0.4258 -0.4565
   95CHL1    C4 9441   0.656   4.777   6.815 -0.4049 -0.9627 -0.2606
   95CHL1   H4A 9442   0.759   4.755   6.778  0.5581  0.6139  1.3461
   95CHL1   H4B 9443   0.619   4.861   6.752 -2.6843 -0.1816  1.9646
   95CHL1    C5 9444   0.650   4.820   6.953  0.2154  0.2006 -0.1339
   95CHL1    C6 9445   0.645   4.947   6.982 -0.9004  0.0549  0.2887
   95CHL1    H6 9446   0.642   5.029   6.908 -0.7686  0.0143  0.2375
   95CHL1    C7 9447   0.637   5.000   7.126 -1.1396  0.5006  0.7823
   95CHL1   H7A 9448   0.696   5.094   7.133  0.1062 -0.1930 -0.0786
   95CHL1   H7B 9449   0.533   5.028   7.153 -1.9529 -2.1140  0.7081
   95CHL1    C8 9450   0.693   4.896   7.225  0.3013  0.3152 -0.4358
   95CHL1    H8 9451   0.804   4.892   7.223  0.4635  0.6198  2.7222
   95CHL1   C14 9452   0.652   4.938   7.361 -0.3836 -0.3840  0.5408
   95CHL1   H14 9453   0.541   4.945   7.356 -0.2823  2.7101  0.3541
   95CHL1   C15 9454   0.694   5.079   7.409 -0.2993 -0.0228 -0.1383
   95CHL1  H15A 9455   0.802   5.102   7.399 -0.1991 -0.7342 -0.8471
   95CHL1  H15B 9456   0.630   5.148   7.351 -0.2233 -0.8575 -1.2544
   95CHL1   C16 9457   0.662   5.068   7.561 -0.0908 -0.0112  0.3582
   95CHL1  H16A 9458   0.759   5.091   7.611  0.7250  0.5270 -1.3919
   95CHL1  H16B 9459   0.572   5.128   7.584 -0.9810 -0.4965 -1.6992
   95CHL1   C17 9460   0.630   4.918   7.586  0.9149  0.2523  0.6026
   95CHL1   H17 9461   0.521   4.906   7.565  0.7869 -1.2882  1.8889
   95CHL1   C13 9462   0.690   4.840   7.478 -0.2998 -0.7604  0.5875
   95CHL1   C18 9463   0.839   4.834   7.489  0.4177 -0.2756 -0.1569
   95CHL1  H18A 9464   0.900   4.927   7.503  1.1772 -0.7073 -0.5511
   95CHL1  H18B 9465   0.867   4.771   7.577  0.0107  0.9038  0.8560
   95CHL1  H18C 9466   0.874   4.784   7.397 -2.2201 -1.8798 -0.3868
   95CHL1   C12 9467   0.630   4.706   7.448  0.8473  0.4549 -0.0213
   95CHL1  H12A 9468   0.665   4.633   7.524 -2.2115 -0.5448  0.5473
   95CHL1  H12B 9469   0.520   4.711   7.462  0.9018 -0.6903  0.9640
   95CHL1   C11 9470   0.670   4.644   7.310  0.4288 -0.5162 -0.2882
   95CHL1  H11A 9471   0.780   4.629   7.311  0.5337 -0.1368 -2.2304
   95CHL1  H11B 9472   0.622   4.544   7.301  0.5401 -0.3854 -3.2503
   95CHL1    C9 9473   0.636   4.750   7.201  0.2671 -0.5736 -0.0757
   95CHL1    H9 9474   0.529   4.769   7.225  0.8584 -0.4090  2.8270
   95CHL1   C10 9475   0.663   4.702   7.053  0.3995  0.3032  0.0498
   95CHL1   C19 9476   0.802   4.632   7.047 -0.6058  0.2043 -0.1354
   95CHL1  H19A 9477   0.833   4.562   7.128 -1.4786  0.5227  0.4821
   95CHL1  H19B 9478   0.827   4.584   6.950 -1.2236 -1.3780  0.4563
   95CHL1  H19C 9479   0.877   4.713   7.060 -0.1447 -0.0840 -0.8894
   95CHL1    C1 9480   0.559   4.592   7.015  0.3280 -0.6061  0.4737
   95CHL1   H1A 9481   0.564   4.506   7.085  0.0043 -0.6718  0.4164
   95CHL1   H1B 9482   0.455   4.627   7.032 -0.1185 -1.0990 -1.0980
   95CHL1    C2 9483   0.577   4.534   6.872 -0.1357  0.2285 -0.0620
   95CHL1   H2A 9484   0.496   4.460   6.853 -2.4177  2.1070  1.6480
   95CHL1   H2B 9485   0.679   4.493   6.856  0.5978  1.6888  0.6774
   95CHL1   C20 9486   0.639   4.872   7.730 -0.3785 -0.3543  0.7052
   95CHL1   H20 9487   0.662   4.763   7.731 -1.1809 -0.5277  1.7666
   95CHL1   C21 9488   0.495   4.892   7.782  0.3355 -0.4707 -0.5486
   95CHL1  H21A 9489   0.420   4.823   7.739  0.0772 -0.4673 -0.1079
   95CHL1  H21B 9490   0.455   4.996   7.782  1.2699 -0.0385  1.8026
   95CHL1  H21C 9491   0.503   4.873   7.891  0.3872 -0.2522 -0.5126
   95CHL1   C22 9492   0.757   4.928   7.813  0.4202  0.7924  0.1903
   95CHL1  H22A 9493   0.849   4.924   7.752 -0.0289 -0.7281 -0.4287
   95CHL1  H22B 9494   0.737   5.034   7.843 -0.2176  0.4819  0.8877
   95CHL1   C23 9495   0.784   4.845   7.938 -0.2558 -0.7834 -0.7931
   95CHL1  H23A 9496   0.694   4.857   8.002  1.4152  1.2114  1.3836
   95CHL1  H23B 9497   0.799   4.742   7.898 -1.3539 -0.5630 -1.8065
   95CHL1   C24 9498   0.908   4.885   8.006 -0.4062 -0.4071 -0.3419
   95CHL1  H24A 9499   0.991   4.858   7.939 -1.1354 -0.1958 -1.3500
   95CHL1  H24B 9500   0.914   4.995   8.021 -1.0690 -0.1326 -1.9532
   95CHL1   C25 9501   0.935   4.813   8.143  0.6933  0.0517 -0.1144
   95CHL1   H25 9502   0.925   4.704   8.121 -1.8918  0.2394 -0.0775
   95CHL1   C26 9503   1.080   4.837   8.199 -0.2066 -0.1058  0.2767
   95CHL1  H26A 9504   1.159   4.847   8.121  1.4607  0.8905  1.9962
   95CHL1  H26B 9505   1.079   4.930   8.260 -1.1132  0.0246  0.0644
   95CHL1  H26C 9506   1.101   4.758   8.273 -1.4785 -1.3102 -0.6024
   95CHL1   C27 9507   0.828   4.840   8.248 -0.0993 -0.3206 -0.4139
   95CHL1  H27A 9508   0.799   4.947   8.258 -2.9498 -1.0051 -0.4873
   95CHL1  H27B 9509   0.726   4.812   8.214  0.3463 -1.7515 -0.6586
   95CHL1  H27C 9510   0.859   4.791   8.343 -0.6313  1.6799  0.8682
   96CHL1    C3 9511   2.159   4.216   6.615  1.3562 -0.9309  0.4779
   96CHL1    H3 9512   2.053   4.192   6.639  0.0436  1.4258 -2.3970
   96CHL1    O3 9513   2.166   4.227   6.474 -0.0580 -0.5060  0.6450
   96CHL1   H3' 9514   2.137   4.140   6.444 -2.0580 -0.5238  2.3714
   96CHL1    C4 9515   2.205   4.354   6.684 -0.0814  0.7989 -1.0274
   96CHL1   H4A 9516   2.312   4.373   6.663 -0.1795  3.2175  0.3294
   96CHL1   H4B 9517   2.143   4.435   6.641 -1.2584 -0.7936 -2.4526
   96CHL1    C5 9518   2.193   4.345   6.835 -0.2052  1.1316 -0.8183
   96CHL1    C6 9519   2.128   4.440   6.911  0.2535  1.1441  0.7547
   96CHL1    H6 9520   2.085   4.529   6.862 -1.8169 -0.6136 -0.7733
   96CHL1    C7 9521   2.117   4.436   7.063 -0.6393 -0.1269 -0.2645
   96CHL1   H7A 9522   2.136   4.532   7.115 -0.0135  0.5939 -1.7580
   96CHL1   H7B 9523   2.015   4.403   7.092 -0.6485  1.7386  2.1228
   96CHL1    C8 9524   2.218   4.339   7.128  0.1814 -0.2354 -0.0736
   96CHL1    H8 9525   2.319   4.386   7.118  0.6094 -0.9379  0.8125
   96CHL1   C14 9526   2.181   4.327   7.271  0.4156 -0.0015 -0.0789
   96CHL1   H14 9527   2.078   4.284   7.269  0.0932  0.6104  1.6776
   96CHL1   C15 9528   2.184   4.461   7.354  0.2673  0.4761  0.2310
   96CHL1  H15A 9529   2.274   4.513   7.313  1.0189 -1.2825 -0.4134
   96CHL1  H15B 9530   2.091   4.515   7.324  0.6033  0.0816 -1.6683
   96CHL1   C16 9531   2.184   4.424   7.503  0.0011 -0.4805  0.2559
   96CHL1  H16A 9532   2.265   4.465   7.567 -1.0940 -0.1090  1.4468
   96CHL1  H16B 9533   2.094   4.462   7.555  1.1298  0.6780  1.4453
   96CHL1   C17 9534   2.207   4.266   7.495  0.1737  0.3887 -0.5509
   96CHL1   H17 9535   2.100   4.235   7.488  0.0978  0.2301  0.9912
   96CHL1   C13 9536   2.267   4.233   7.348  0.4491  0.6457  0.2160
   96CHL1   C18 9537   2.415   4.277   7.347  0.0252 -0.6223 -0.5352
   96CHL1  H18A 9538   2.442   4.369   7.402 -0.5079  0.2161 -1.6532
   96CHL1  H18B 9539   2.480   4.201   7.396  0.9710  1.2381  1.2517
   96CHL1  H18C 9540   2.458   4.293   7.246 -0.3818 -1.3436 -0.8307
   96CHL1   C12 9541   2.245   4.089   7.300 -0.2697 -0.0780  0.9758
   96CHL1  H12A 9542   2.318   4.013   7.336  0.3030  1.0713  2.3437
   96CHL1  H12B 9543   2.146   4.044   7.321 -0.2748 -1.0227 -0.9464
   96CHL1   C11 9544   2.269   4.081   7.142  0.4420  0.2349  0.5715
   96CHL1  H11A 9545   2.379   4.077   7.130  0.3817  1.6583 -0.8399
   96CHL1  H11B 9546   2.226   3.985   7.106 -0.3572 -0.4379  3.0945
   96CHL1    C9 9547   2.216   4.206   7.057  0.0642 -0.1975 -0.4511
   96CHL1    H9 9548   2.108   4.180   7.044 -0.7932  2.9662 -0.4219
   96CHL1   C10 9549   2.257   4.215   6.903  0.6328 -0.3637  0.4945
   96CHL1   C19 9550   2.408   4.246   6.903  0.7499  0.3578  0.2711
   96CHL1  H19A 9551   2.460   4.176   6.972 -1.9428 -0.8416  1.1948
   96CHL1  H19B 9552   2.461   4.250   6.805 -0.7649 -0.4338 -0.6215
   96CHL1  H19C 9553   2.438   4.348   6.938 -1.0846  0.4090  1.7924
   96CHL1    C1 9554   2.229   4.082   6.822 -0.1682  0.6932  0.1777
   96CHL1   H1A 9555   2.298   4.006   6.863  1.3581  1.8005 -0.2631
   96CHL1   H1B 9556   2.124   4.049   6.837  0.1226 -1.3754 -1.7999
   96CHL1    C2 9557   2.238   4.090   6.661  0.3272  0.0674  0.1790
   96CHL1   H2A 9558   2.197   3.994   6.623  1.2720 -0.5363  0.6540
   96CHL1   H2B 9559   2.345   4.112   6.640  0.5623 -0.8513  0.4005
   96CHL1   C20 9560   2.285   4.195   7.606  0.1816  0.7157 -0.7887
   96CHL1   H20 9561   2.392   4.198   7.575  0.8517  1.8982  1.4533
   96CHL1   C21 9562   2.240   4.049   7.610 -0.4200 -0.5613  0.7169
   96CHL1  H21A 9563   2.238   4.009   7.713  1.9558 -1.1031  0.6086
   96CHL1  H21B 9564   2.308   3.983   7.552 -0.6458  1.5991 -2.3064
   96CHL1  H21C 9565   2.137   4.037   7.569  0.1301  1.6727 -1.5561
   96CHL1   C22 9566   2.276   4.262   7.745 -0.1866  0.2931  0.5188
   96CHL1  H22A 9567   2.235   4.365   7.734 -0.7089 -0.0898 -1.7740
   96CHL1  H22B 9568   2.191   4.210   7.793  0.1972  0.6391  1.5985
   96CHL1   C23 9569   2.406   4.251   7.830 -0.7090  0.5709  0.1956
   96CHL1  H23A 9570   2.448   4.148   7.841  1.8336  1.2758 -1.9741
   96CHL1  H23B 9571   2.492   4.306   7.787  1.2520 -0.5043  2.5015
   96CHL1   C24 9572   2.394   4.311   7.967  0.6278 -0.1100 -0.4625
   96CHL1  H24A 9573   2.492   4.311   8.019 -0.1951 -0.7511  1.1619
   96CHL1  H24B 9574   2.359   4.415   7.949  1.1581  0.1466 -0.0330
   96CHL1   C25 9575   2.294   4.239   8.059  0.3388 -0.2666  0.1524
   96CHL1   H25 9576   2.199   4.215   8.006 -0.6820  1.0902  1.3022
   96CHL1   C26 9577   2.357   4.109   8.105  0.1352 -0.6707  0.5651
   96CHL1  H26A 9578   2.290   4.052   8.174 -2.2651  1.1884 -0.1073
   96CHL1  H26B 9579   2.375   4.046   8.015  0.6597 -2.1123  1.6424
   96CHL1  H26C 9580   2.454   4.125   8.157 -0.0691 -0.8584  1.0121
   96CHL1   C27 9581   2.238   4.328   8.174 -0.1139 -0.0072 -0.4112
   96CHL1  H27A 9582   2.218   4.432   8.142  0.7179  0.2021 -0.2630
   96CHL1  H27B 9583   2.136   4.292   8.200  0.1982 -0.8249 -0.2952
   96CHL1  H27C 9584   2.296   4.317   8.268 -1.1568  1.1303  0.4001
   97OSM      N 9585   0.064   5.711  11.088  0.4275  0.1030  0.1219
   97OSM    C15 9586   0.155   5.585  11.087  0.4183  0.1596 -0.1649
   97OSM   H15A 9587   0.188   5.569  11.189  1.2776 -0.2231 -0.4987
   97OSM   H15B 9588   0.236   5.595  11.017 -0.3284  0.2251 -1.0467
   97OSM   H15C 9589   0.097   5.502  11.050  0.6001  0.1361 -0.3942
   97OSM    C14 9590   0.143   5.822  11.137 -0.2318 -0.4588 -0.4038
   97OSM   H14A 9591   0.243   5.819  11.096 -0.6168 -0.2060 -1.3893
   97OSM   H14B 9592   0.155   5.825  11.244 -2.0236 -1.1639 -0.1394
   97OSM   H14C 9593   0.089   5.915  11.126 -0.6645 -0.5601  0.7087
   97OSM    C13 9594   0.041   5.735  10.939 -0.1410 -0.2689  0.0424
   97OSM   H13A 9595   0.003   5.643  10.897  2.0845 -1.1251 -0.2116
   97OSM   H13B 9596   0.127   5.761  10.879 -2.6644 -0.1289 -3.8871
   97OSM   H13C 9597  -0.032   5.814  10.933 -1.4569 -1.1177  2.8742
   97OSM    C12 9598  -0.070   5.679  11.164 -0.4242  0.0462 -0.6373
   97OSM   H12A 9599  -0.036   5.655  11.264 -3.1060 -1.2884  0.0392
   97OSM   H12B 9600  -0.101   5.585  11.122  2.8138 -2.8093  2.6458
   97OSM    C11 9601  -0.172   5.789  11.179  0.3640 -0.5984 -0.5051
   97OSM   H11A 9602  -0.117   5.878  11.215 -0.1142 -0.1671 -0.8341
   97OSM   H11B 9603  -0.257   5.758  11.245 -1.4224 -0.3085 -2.5546
   97OSM      P 9604  -0.303   5.964  11.033  0.4390  0.4887  0.3085
   97OSM    O13 9605  -0.440   5.950  11.081 -0.2036 -0.4507 -0.0007
   97OSM    O14 9606  -0.221   6.068  11.086 -1.0136 -0.5229 -0.3367
   97OSM    O11 9607  -0.312   5.983  10.875  0.2132 -0.2011 -0.1002
   97OSM    O12 9608  -0.228   5.826  11.053 -0.2236  0.5344  0.4258
   97OSM    C1S 9609  -0.345   5.877  10.780 -0.5745 -0.1807 -0.1070
   97OSM    H1S 9610  -0.441   5.826  10.801  0.0716 -2.0641 -1.5131
   97OSM    H1T 9611  -0.273   5.793  10.791 -0.8221 -0.4698 -0.6842
   97OSM     NF 9612  -0.374   5.869  10.527  0.4044  0.1557 -0.8329
   97OSM    HNF 9613  -0.314   5.830  10.458  1.3707  0.5691 -0.2493
   97OSM    C2S 9614  -0.309   5.940  10.638 -0.4968  0.3799  0.3305
   97OSM    H2S 9615  -0.328   6.049  10.625  2.5537  1.2882  2.3010
   97OSM    C3S 9616  -0.156   5.924  10.634 -0.1373 -0.8492 -0.5517
   97OSM    H3S 9617  -0.148   5.814  10.649  0.7910 -0.5714  1.3542
   97OSM     O3 9618  -0.085   5.993  10.742  0.4114 -0.2144  0.1069
   97OSM    HO3 9619  -0.163   6.012  10.795  0.5943  0.4429  0.1445
   97OSM    C4S 9620  -0.097   5.957  10.500  0.1845 -0.1286 -0.0159
   97OSM    H4S 9621  -0.098   5.871  10.432  1.2144  1.1419 -1.7375
   97OSM    C5S 9622  -0.037   6.071  10.454  0.1382 -0.4736  0.3191
   97OSM    H5S 9623  -0.029   6.153  10.526  0.0099  1.2957 -1.5784
   97OSM    C6S 9624   0.017   6.093  10.314  0.0866 -0.1434 -0.3811
   97OSM    H6S 9625   0.112   6.151  10.316  0.4893 -0.8035  0.0409
   97OSM    H6T 9626  -0.053   6.156  10.255  0.7653  0.1899 -0.8515
   97OSM    C7S 9627   0.062   5.975  10.232  0.6707  0.1880  0.7802
   97OSM    H7S 9628  -0.017   5.897  10.239  0.2135  0.7207  1.8651
   97OSM    H7T 9629   0.158   5.935  10.270  0.9912 -1.1164 -1.2347
   97OSM    C8S 9630   0.077   6.004  10.079  0.8394  0.5075  0.2897
   97OSM    H8S 9631   0.156   6.081  10.065 -0.2104  1.6454  0.4200
   97OSM    H8T 9632  -0.018   6.048  10.042  0.4547 -0.7037 -0.2228
   97OSM    C9S 9633   0.121   5.883  10.004  0.3846  0.2909 -0.4741
   97OSM    H9S 9634   0.055   5.799  10.036 -0.1354  1.5742  2.0163
   97OSM    H9T 9635   0.221   5.841  10.031  0.1981 -0.0402 -0.2917
   97OSM   C10S 9636   0.120   5.895   9.851 -0.1122  0.9164  0.4964
   97OSM   H10S 9637   0.197   5.967   9.816 -0.0579  1.3135  1.4068
   97OSM   H10T 9638   0.018   5.929   9.821 -0.1305 -0.1752 -0.8243
   97OSM   C11S 9639   0.157   5.765   9.770 -0.8234 -0.5094 -0.4163
   97OSM   H11S 9640   0.068   5.703   9.796 -1.1402 -0.4718 -1.3647
   97OSM   H11T 9641   0.251   5.717   9.804 -0.4622  1.8787  2.3135
   97OSM   C12S 9642   0.163   5.795   9.617 -0.0479  0.0883  0.0289
   97OSM   H12S 9643   0.262   5.839   9.592  0.0738 -0.2138 -0.0316
   97OSM   H12T 9644   0.085   5.866   9.582  1.3620  0.5255 -2.4632
   97OSM   C13S 9645   0.147   5.662   9.539  0.5572 -0.0741 -0.4095
   97OSM   H13S 9646   0.108   5.584   9.607  2.0881 -0.7626 -0.2763
   97OSM   H13T 9647   0.247   5.620   9.513  0.0843 -2.6450  1.5750
   97OSM   C14S 9648   0.067   5.667   9.407  0.0782  0.5501  0.1278
   97OSM   H14S 9649   0.121   5.734   9.337  0.2740  0.0882 -0.1623
   97OSM   H14T 9650  -0.026   5.722   9.432  0.3855  0.6333  1.1513
   97OSM   C15S 9651   0.040   5.530   9.337  0.1403  0.3281 -0.1345
   97OSM   H15S 9652  -0.057   5.493   9.377  0.7489  0.9012  2.0063
   97OSM   H15T 9653   0.111   5.453   9.374 -0.3986 -0.1128 -0.0009
   97OSM   C16S 9654   0.049   5.517   9.182 -0.4668 -0.0918 -0.7180
   97OSM   H16S 9655   0.051   5.408   9.157  0.3205  0.0524 -1.3116
   97OSM   H16T 9656   0.147   5.563   9.158  0.9176 -2.4769  0.0331
   97OSM   C17S 9657  -0.061   5.590   9.097 -0.7511 -0.1494 -0.0632
   97OSM   H17S 9658  -0.059   5.700   9.114 -0.8932  0.3564 -2.8233
   97OSM   H17T 9659  -0.161   5.550   9.122 -0.0520 -0.9333  1.6696
   97OSM   C18S 9660  -0.040   5.569   8.949 -0.6509  0.1401 -0.0828
   97OSM   H18S 9661   0.012   5.474   8.927 -0.8222  0.0855 -0.2597
   97OSM   H18T 9662   0.025   5.651   8.912  1.9220 -0.9204  1.7932
   97OSM   H18U 9663  -0.134   5.558   8.891  1.3741 -2.9510 -3.1425
   97OSM    C1F 9664  -0.503   5.880  10.511  0.0638 -0.8206  0.9382
   97OSM     OF 9665  -0.565   5.958  10.581  0.0007 -0.6777  0.1347
   97OSM    C2F 9666  -0.561   5.790  10.402 -0.5031 -0.6503 -0.0620
   97OSM    H2F 9667  -0.566   5.684  10.436  0.9922 -2.2318 -4.1321
   97OSM    H2G 9668  -0.490   5.788  10.316 -3.1282  0.3783 -2.4119
   97OSM    C3F 9669  -0.695   5.840  10.358  0.0701  0.4922  0.5963
   97OSM    H3F 9670  -0.694   5.948  10.334 -3.0350  0.4797  0.0342
   97OSM    H3G 9671  -0.777   5.830  10.433 -2.1400 -2.4895 -1.9372
   97OSM    C4F 9672  -0.752   5.751  10.241 -0.9269 -0.6383 -0.0032
   97OSM    H4F 9673  -0.859   5.769  10.220 -1.4469 -3.2840  0.0017
   97OSM    H4G 9674  -0.753   5.645  10.275  0.2988 -0.4086  0.8173
   97OSM    C5F 9675  -0.668   5.760  10.116 -0.1298 -1.5194  0.3849
   97OSM    H5F 9676  -0.565   5.721  10.131  0.5169 -0.1113 -0.2018
   97OSM    H5G 9677  -0.657   5.868  10.089 -1.7970 -1.4746 -0.2418
   97OSM    C6F 9678  -0.742   5.673  10.010  0.1474 -0.6236  0.1121
   97OSM    H6F 9679  -0.852   5.684  10.014  0.3292  2.1122 -0.6710
   97OSM    H6G 9680  -0.721   5.565  10.027 -0.0915 -0.3504  2.5065
   97OSM    C7F 9681  -0.688   5.716   9.866 -0.2782  1.0182 -0.1898
   97OSM    H7F 9682  -0.578   5.706   9.859 -0.3946 -0.0170 -0.6337
   97OSM    H7G 9683  -0.715   5.823   9.849  1.9807  1.5257 -0.8722
   97OSM    C8F 9684  -0.758   5.625   9.756  0.0454 -0.7216  0.0125
   97OSM    H8F 9685  -0.736   5.662   9.654  0.2712  0.4507  0.4772
   97OSM    H8G 9686  -0.869   5.620   9.767  0.0832 -1.0491  0.2736
   97OSM    C9F 9687  -0.697   5.486   9.761 -0.2276 -0.1615  0.3581
   97OSM    H9F 9688  -0.607   5.479   9.824  0.3542 -3.4931 -0.6504
   97OSM   C10F 9689  -0.719   5.394   9.669  0.4021  0.7318  0.7156
   97OSM   H10F 9690  -0.685   5.290   9.677  1.1932  0.9646  0.4319
   97OSM   C11F 9691  -0.829   5.398   9.568 -0.1952  0.0287 -0.0155
   97OSM   H11F 9692  -0.860   5.505   9.564  1.8378  0.7482  1.5903
   97OSM   H11G 9693  -0.915   5.332   9.592 -0.5850  0.0900 -1.1782
   97OSM   C12F 9694  -0.796   5.348   9.421  0.1858 -0.3882 -0.1171
   97OSM   H12F 9695  -0.774   5.239   9.427 -0.5086 -0.6457 -1.8647
   97OSM   H12G 9696  -0.703   5.404   9.395 -2.1944  3.5241 -0.9291
   97OSM   C13F 9697  -0.905   5.367   9.314 -0.4519  0.3281  0.0923
   97OSM   H13F 9698  -0.941   5.472   9.304 -0.1846  0.6316  1.8872
   97OSM   H13G 9699  -0.995   5.322   9.360 -0.2043  1.1294  1.4429
   97OSM   C14F 9700  -0.874   5.298   9.180 -0.1080  0.4279  0.3899
   97OSM   H14F 9701  -0.859   5.187   9.182  0.4661  0.4253 -1.6308
   97OSM   H14G 9702  -0.781   5.344   9.141  0.2742 -0.6304  0.0015
   97OSM   C15F 9703  -0.994   5.332   9.075  0.0189  0.2366 -0.0959
   97OSM   H15F 9704  -1.038   5.429   9.108  0.4350 -0.6994  3.6615
   97OSM   H15G 9705  -1.079   5.261   9.087  0.5392 -0.4816 -0.5951
   97OSM   C16F 9706  -0.946   5.329   8.930  0.2935 -0.2796 -0.5147
   97OSM   H16F 9707  -0.839   5.356   8.917 -0.2944  1.3035 -2.5630
   97OSM   H16G 9708  -1.001   5.400   8.864 -1.9307 -0.6127  0.8954
   97OSM   C17F 9709  -0.970   5.196   8.871  0.5726 -0.2971  0.1459
   97OSM   H17F 9710  -1.080   5.179   8.861  0.4807  0.7183 -0.7642
   97OSM   H17G 9711  -0.946   5.117   8.945 -1.8772  1.6639  3.3171
   97OSM   C18F 9712  -0.902   5.175   8.739  0.9540  0.4277 -1.0327
   97OSM   H18F 9713  -0.807   5.232   8.731  1.6504 -0.6677 -0.8044
   97OSM   H18G 9714  -0.956   5.207   8.647 -1.5105  0.5980  0.3911
   97OSM   H18H 9715  -0.869   5.069   8.731  0.9433  0.3593 -0.2593
   98OSM      N 9716   6.030   5.916  10.918  0.0850 -0.3639  0.5262
   98OSM    C15 9717   5.962   6.010  11.000 -0.5007  0.6588 -0.5426
   98OSM   H15A 9718   6.045   6.066  11.040  1.6352 -1.5090 -1.7046
   98OSM   H15B 9719   5.894   5.980  11.079  0.9870 -0.7437  0.2689
   98OSM   H15C 9720   5.915   6.075  10.928  0.6744 -1.6267 -3.5891
   98OSM    C14 9721   6.150   5.988  10.851 -0.8220 -0.2417 -0.5234
   98OSM   H14A 9722   6.115   6.075  10.798 -0.0079  0.9918  0.8828
   98OSM   H14B 9723   6.207   5.927  10.782 -1.1324  0.3297 -1.3013
   98OSM   H14C 9724   6.228   6.017  10.920  1.5252 -3.9625 -1.3363
   98OSM    C13 9725   6.102   5.818  11.001  0.3977  0.1727  0.1008
   98OSM   H13A 9726   6.173   5.860  11.070 -1.1702  0.6717  1.4859
   98OSM   H13B 9727   6.141   5.745  10.932 -2.4961 -0.6503 -0.8275
   98OSM   H13C 9728   6.041   5.753  11.063  0.6485 -0.7124 -0.5630
   98OSM    C12 9729   5.941   5.845  10.821 -0.0894  0.9385 -0.6962
   98OSM   H12A 9730   5.854   5.805  10.871 -0.0518  1.3359 -0.2973
   98OSM   H12B 9731   5.997   5.758  10.789 -1.3019 -0.3562  0.5314
   98OSM    C11 9732   5.900   5.917  10.695  0.2078  0.2049  0.2342
   98OSM   H11A 9733   5.855   5.840  10.629  1.8233 -0.9696  0.4290
   98OSM   H11B 9734   5.984   5.963  10.639 -0.7845  1.0239 -0.6298
   98OSM      P 9735   5.666   6.011  10.780  0.5992 -0.1363 -0.0533
   98OSM    O13 9736   5.613   5.876  10.784 -0.1969  0.3463  0.1882
   98OSM    O14 9737   5.669   6.074  10.913  0.0954  0.2415 -0.6491
   98OSM    O11 9738   5.570   6.094  10.687  0.5703  0.7107  0.2818
   98OSM    O12 9739   5.805   6.023  10.714  0.2717  0.1840 -0.9221
   98OSM    C1S 9740   5.573   6.234  10.655 -0.1920 -0.3647  0.2797
   98OSM    H1S 9741   5.662   6.280  10.702 -0.2434  1.0107 -0.8903
   98OSM    H1T 9742   5.490   6.290  10.703 -0.1124 -2.0711  2.5488
   98OSM     NF 9743   5.633   6.401  10.484 -0.0290  0.1855  0.0701
   98OSM    HNF 9744   5.562   6.471  10.485  2.7126  3.1866  0.1492
   98OSM    C2S 9745   5.581   6.262  10.502  0.4575  0.1005 -0.1480
   98OSM    H2S 9746   5.645   6.191  10.446 -0.8813 -1.5691  0.3547
   98OSM    C3S 9747   5.445   6.230  10.434  0.0983 -0.9822  0.1829
   98OSM    H3S 9748   5.365   6.286  10.488 -1.0915 -0.3586 -2.0839
   98OSM     O3 9749   5.402   6.099  10.469 -0.0353 -0.1202  0.3324
   98OSM    HO3 9750   5.469   6.065  10.529  1.6329  2.2673 -0.0706
   98OSM    C4S 9751   5.443   6.251  10.281 -0.3649 -0.3337  0.3728
   98OSM    H4S 9752   5.443   6.357  10.251  0.0246 -0.1470  0.9926
   98OSM    C5S 9753   5.419   6.156  10.184  0.6122 -0.4312  0.1820
   98OSM    H5S 9754   5.391   6.054  10.214  2.0824 -0.7154  0.6621
   98OSM    C6S 9755   5.412   6.178  10.033  0.3185 -0.8007  0.0296
   98OSM    H6S 9756   5.311   6.159   9.991  0.4287 -1.7660  0.1718
   98OSM    H6T 9757   5.484   6.117   9.974  1.4989 -1.4506  2.0490
   98OSM    C7S 9758   5.446   6.323   9.986 -0.4080 -0.0385  0.5060
   98OSM    H7S 9759   5.548   6.357  10.014 -0.4336 -0.9127  1.7763
   98OSM    H7T 9760   5.381   6.398  10.037 -3.2830 -1.7461 -0.3878
   98OSM    C8S 9761   5.421   6.330   9.832 -0.1766 -0.2498  0.1004
   98OSM    H8S 9762   5.464   6.238   9.786  1.9086  0.7347 -0.0212
   98OSM    H8T 9763   5.480   6.413   9.788 -0.7662 -0.1818 -0.5741
   98OSM    C9S 9764   5.276   6.338   9.785 -0.8516  0.0904  0.0996
   98OSM    H9S 9765   5.231   6.416   9.850  0.3463  1.1621 -0.3215
   98OSM    H9T 9766   5.224   6.241   9.799 -0.7397  0.1091  0.6547
   98OSM   C10S 9767   5.280   6.381   9.634  0.4409 -1.1162 -0.0933
   98OSM   H10S 9768   5.357   6.458   9.616  0.7182 -1.3112  0.2467
   98OSM   H10T 9769   5.186   6.435   9.611  1.4713 -0.3016 -2.6494
   98OSM   C11S 9770   5.306   6.277   9.533 -0.4335  0.1842  0.3554
   98OSM   H11S 9771   5.229   6.198   9.537  1.6370 -1.9620 -0.2447
   98OSM   H11T 9772   5.401   6.222   9.550 -0.7043 -1.3063 -2.4525
   98OSM   C12S 9773   5.316   6.335   9.392  0.5245 -0.6545 -0.4270
   98OSM   H12S 9774   5.342   6.442   9.405 -2.3516  0.0264  0.5453
   98OSM   H12T 9775   5.217   6.351   9.343  1.1724  2.5048 -0.9604
   98OSM   C13S 9776   5.406   6.249   9.308  0.2866 -0.1986  0.4069
   98OSM   H13S 9777   5.395   6.145   9.345  1.4891 -0.2942  0.5285
   98OSM   H13T 9778   5.513   6.277   9.304  0.4324 -0.8772 -2.4555
   98OSM   C14S 9779   5.353   6.248   9.160  0.6757  0.0087 -0.5447
   98OSM   H14S 9780   5.356   6.353   9.126  1.3479  1.1232  2.6667
   98OSM   H14T 9781   5.245   6.221   9.154 -0.0313  2.0819  1.4464
   98OSM   C15S 9782   5.439   6.152   9.072  0.1704  0.0712 -0.2724
   98OSM   H15S 9783   5.439   6.050   9.117  1.3901 -1.2607 -3.0464
   98OSM   H15T 9784   5.545   6.185   9.063  0.2232  0.0894  0.3742
   98OSM   C16S 9785   5.389   6.143   8.924  0.0983  0.7487 -0.5466
   98OSM   H16S 9786   5.307   6.068   8.923  0.0767  0.7407  0.4688
   98OSM   H16T 9787   5.464   6.087   8.864 -0.6906 -1.6717  0.5882
   98OSM   C17S 9788   5.339   6.269   8.852 -0.0981 -0.4733 -0.3500
   98OSM   H17S 9789   5.432   6.324   8.825  0.3406 -1.6965 -1.4180
   98OSM   H17T 9790   5.274   6.324   8.923 -2.0558 -2.2392 -0.6806
   98OSM   C18S 9791   5.258   6.234   8.725 -0.4974 -0.1553  0.5100
   98OSM   H18S 9792   5.330   6.205   8.645  0.0389 -2.1218  1.6498
   98OSM   H18T 9793   5.200   6.323   8.691 -1.6926 -1.9172 -2.4294
   98OSM   H18U 9794   5.190   6.148   8.740 -0.7514 -0.5517 -2.2934
   98OSM    C1F 9795   5.754   6.454  10.512 -0.2494  0.2204 -0.5600
   98OSM     OF 9796   5.844   6.383  10.550  0.0142  0.2125  0.0961
   98OSM    C2F 9797   5.767   6.599  10.507  0.5415  0.5755 -0.6715
   98OSM    H2F 9798   5.780   6.627  10.613 -1.5689 -3.3302  0.8376
   98OSM    H2G 9799   5.667   6.641  10.483 -0.5464 -0.0391  2.3225
   98OSM    C3F 9800   5.876   6.661  10.417 -0.2163 -0.3666  0.7659
   98OSM    H3F 9801   5.978   6.627  10.446  2.0066  2.1817 -3.2120
   98OSM    H3G 9802   5.889   6.771  10.430  0.7588 -0.5842  1.7833
   98OSM    C4F 9803   5.854   6.648  10.267 -0.2478 -0.1570  0.7258
   98OSM    H4F 9804   5.750   6.678  10.242 -0.3365  0.1029  1.3867
   98OSM    H4G 9805   5.859   6.537  10.258 -1.2921 -0.1471 -0.1555
   98OSM    C5F 9806   5.964   6.715  10.177 -0.5799  0.0970 -0.7200
   98OSM    H5F 9807   6.064   6.682  10.212 -0.4036  0.4826 -0.8617
   98OSM    H5G 9808   5.958   6.826  10.188  0.6927  0.1397 -0.3432
   98OSM    C6F 9809   5.958   6.666  10.034  0.3432 -0.2964  0.3649
   98OSM    H6F 9810   5.961   6.555  10.036  2.4100 -0.2769  0.2746
   98OSM    H6G 9811   6.053   6.682   9.979 -0.7204 -0.5413 -1.6469
   98OSM    C7F 9812   5.846   6.732   9.944 -0.3032  0.5004  0.2356
   98OSM    H7F 9813   5.852   6.842   9.958  0.5835  0.3166  1.3940
   98OSM    H7G 9814   5.745   6.698   9.975 -0.5348  1.2551  0.3172
   98OSM    C8F 9815   5.869   6.693   9.796 -0.1294 -0.7272 -0.2995
   98OSM    H8F 9816   5.978   6.684   9.780  0.2298  1.1800  0.7175
   98OSM    H8G 9817   5.832   6.768   9.723  0.6023 -0.1820 -0.1272
   98OSM    C9F 9818   5.802   6.559   9.772 -0.6475  0.4091  0.3702
   98OSM    H9F 9819   5.794   6.492   9.859 -0.2768 -1.3820 -0.9077
   98OSM   C10F 9820   5.752   6.516   9.650  0.2758 -0.3083  0.0399
   98OSM   H10F 9821   5.713   6.413   9.639 -0.9585  0.2667 -1.3475
   98OSM   C11F 9822   5.739   6.586   9.515 -0.9900 -0.5937  0.5013
   98OSM   H11F 9823   5.800   6.541   9.434  1.5267  0.8332  1.4772
   98OSM   H11G 9824   5.779   6.689   9.518 -1.3992 -0.4527  2.1263
   98OSM   C12F 9825   5.596   6.594   9.475  0.8745  0.2018  0.8664
   98OSM   H12F 9826   5.539   6.649   9.553  1.9442  2.0619  0.3862
   98OSM   H12G 9827   5.555   6.492   9.459  0.4973  0.5126 -0.2397
   98OSM   C13F 9828   5.568   6.674   9.340 -0.2607  0.1894 -0.0876
   98OSM   H13F 9829   5.649   6.750   9.345  0.3107 -0.4748  1.2041
   98OSM   H13G 9830   5.473   6.731   9.349 -0.4093 -0.2989  1.9742
   98OSM   C14F 9831   5.566   6.596   9.211  0.0242 -0.4864  0.5774
   98OSM   H14F 9832   5.481   6.524   9.206 -0.7882  0.5304 -1.8135
   98OSM   H14G 9833   5.667   6.549   9.208  0.4641  0.2900  2.2060
   98OSM   C15F 9834   5.553   6.682   9.079 -0.2233  0.3394 -0.3387
   98OSM   H15F 9835   5.630   6.762   9.090  0.7257 -0.3810 -1.4646
   98OSM   H15G 9836   5.456   6.734   9.089 -0.3330 -0.1462  1.5311
   98OSM   C16F 9837   5.560   6.602   8.954 -0.1381 -0.1471 -0.4133
   98OSM   H16F 9838   5.479   6.525   8.959  0.3681 -0.6137  2.8730
   98OSM   H16G 9839   5.655   6.545   8.958  0.2946  0.5135 -1.1625
   98OSM   C17F 9840   5.562   6.690   8.835 -0.3213  0.1248  0.8220
   98OSM   H17F 9841   5.656   6.750   8.832 -1.2682  1.6416 -1.3869
   98OSM   H17G 9842   5.480   6.763   8.850  0.0287  0.3298  1.8341
   98OSM   C18F 9843   5.559   6.601   8.712  0.0562  0.4804  0.5263
   98OSM   H18F 9844   5.595   6.498   8.733  1.2220  0.9407  0.8507
   98OSM   H18G 9845   5.631   6.640   8.637  0.1615  0.2281  0.4967
   98OSM   H18H 9846   5.459   6.600   8.663 -1.3804  0.5426  3.2881
   99OSM      N 9847   6.413   0.659  11.142  0.4951  0.1603  0.1580
   99OSM    C15 9848   6.348   0.630  11.279 -0.0929  0.0161  0.3567
   99OSM   H15A 9849   6.341   0.724  11.331 -1.9163  2.8104 -4.2428
   99OSM   H15B 9850   6.389   0.545  11.331 -1.8336 -0.7375  0.5726
   99OSM   H15C 9851   6.243   0.612  11.258  0.6947 -4.2490 -0.9013
   99OSM    C14 9852   6.529   0.749  11.161 -0.5720 -0.0115 -0.2265
   99OSM   H14A 9853   6.567   0.775  11.063 -1.3753 -0.6869 -0.7347
   99OSM   H14B 9854   6.611   0.706  11.218  0.8344 -0.5541 -2.5233
   99OSM   H14C 9855   6.495   0.840  11.207  0.7942  0.7228 -0.6108
   99OSM    C13 9856   6.442   0.534  11.068 -0.5447 -0.5990  0.4358
   99OSM   H13A 9857   6.486   0.557  10.972 -0.9320 -0.8866  0.1872
   99OSM   H13B 9858   6.350   0.479  11.059 -1.0565 -0.1920  2.5756
   99OSM   H13C 9859   6.523   0.483  11.118 -1.2223 -0.4434  1.7521
   99OSM    C12 9860   6.304   0.732  11.062  0.2165  0.8307  0.6196
   99OSM   H12A 9861   6.267   0.810  11.127 -1.4409  1.2626 -0.7543
   99OSM   H12B 9862   6.213   0.676  11.044  0.6452  0.2176  0.3478
   99OSM    C11 9863   6.334   0.792  10.920 -1.1634  0.3843 -0.0376
   99OSM   H11A 9864   6.403   0.877  10.938 -0.5849  0.0303 -0.5374
   99OSM   H11B 9865   6.238   0.837  10.886  0.0016  4.4673  1.4696
   99OSM      P 9866   6.326   0.606  10.734  0.2002 -0.2493 -0.0874
   99OSM    O13 9867   6.403   0.486  10.718 -0.4554 -0.0844 -0.2758
   99OSM    O14 9868   6.186   0.585  10.784  0.1581 -0.5852  0.3533
   99OSM    O11 9869   6.319   0.685  10.596 -0.3906 -0.0737  0.1960
   99OSM    O12 9870   6.401   0.706  10.833  0.5150  0.0834  0.1672
   99OSM    C1S 9871   6.202   0.695  10.518  1.3465  0.4474 -0.3978
   99OSM    H1S 9872   6.134   0.766  10.569  1.5310 -0.5603  1.3257
   99OSM    H1T 9873   6.145   0.599  10.514  1.1508  0.5646 -0.4053
   99OSM     NF 9874   6.108   0.789  10.316  0.5815 -0.5429  0.7073
   99OSM    HNF 9875   6.074   0.734  10.240 -1.5964  1.9796 -0.3130
   99OSM    C2S 9876   6.231   0.750  10.376  0.1197  0.1644 -0.0576
   99OSM    H2S 9877   6.299   0.835  10.396  1.1423 -0.4662 -0.7495
   99OSM    C3S 9878   6.297   0.636  10.304 -0.4060  0.5941 -0.1682
   99OSM    H3S 9879   6.242   0.541  10.325  3.9529 -2.2730 -0.4959
   99OSM     O3 9880   6.430   0.607  10.355 -0.5370 -0.2475  0.1298
   99OSM    HO3 9881   6.433   0.654  10.439  2.4286  1.3673 -0.7202
   99OSM    C4S 9882   6.306   0.648  10.156  0.6424 -0.4837  0.2947
   99OSM    H4S 9883   6.209   0.631  10.107  0.3956 -0.8381  0.9048
   99OSM    C5S 9884   6.412   0.677  10.079 -0.1886  0.2866  0.1120
   99OSM    H5S 9885   6.504   0.709  10.131  1.5924 -2.2893 -1.2473
   99OSM    C6S 9886   6.401   0.702   9.927  0.3951  0.0491  0.5181
   99OSM    H6S 9887   6.458   0.623   9.874  0.7030  0.4425  0.2559
   99OSM    H6T 9888   6.443   0.798   9.890  0.4463 -0.1226  0.1159
   99OSM    C7S 9889   6.256   0.697   9.863  0.0672  0.2388 -0.5800
   99OSM    H7S 9890   6.196   0.778   9.909 -0.4706 -1.0883  1.1415
   99OSM    H7T 9891   6.204   0.605   9.895 -1.9707  1.5341  0.0650
   99OSM    C8S 9892   6.266   0.691   9.715 -0.0189 -0.4030  0.0358
   99OSM    H8S 9893   6.351   0.757   9.685  0.6016 -1.6529 -1.0470
   99OSM    H8T 9894   6.178   0.726   9.657  2.2047 -2.4665 -5.1992
   99OSM    C9S 9895   6.288   0.558   9.649 -0.2965 -0.6651  0.3145
   99OSM    H9S 9896   6.228   0.485   9.709  1.4853 -0.2533  2.7738
   99OSM    H9T 9897   6.395   0.533   9.662 -0.0819  0.5976  1.1643
   99OSM   C10S 9898   6.252   0.559   9.506  1.1912  0.9502 -0.2760
   99OSM   H10S 9899   6.142   0.547   9.492  1.4274 -2.2986 -0.0256
   99OSM   H10T 9900   6.289   0.467   9.457 -2.7262 -0.6937 -0.5652
   99OSM   C11S 9901   6.311   0.679   9.427  0.7186 -0.2937 -0.9953
   99OSM   H11S 9902   6.419   0.656   9.429  0.8002  0.0842 -1.1025
   99OSM   H11T 9903   6.294   0.777   9.477  1.8617  1.4647 -3.8454
   99OSM   C12S 9904   6.257   0.696   9.285 -0.2805 -0.6284  0.7344
   99OSM   H12S 9905   6.147   0.713   9.278 -0.4987 -2.0259  0.4485
   99OSM   H12T 9906   6.302   0.789   9.244 -0.1377 -1.3464 -0.8201
   99OSM   C13S 9907   6.282   0.580   9.187  0.6532 -0.6877  0.4436
   99OSM   H13S 9908   6.236   0.486   9.225 -0.2113  0.0092  1.1423
   99OSM   H13T 9909   6.389   0.549   9.180  0.9123 -0.0078  1.2568
   99OSM   C14S 9910   6.219   0.606   9.043 -0.2351 -0.3519  0.2746
   99OSM   H14S 9911   6.260   0.695   8.992 -1.1829  0.5844  1.0860
   99OSM   H14T 9912   6.112   0.635   9.050  0.5388  4.1336 -2.6190
   99OSM   C15S 9913   6.249   0.494   8.949 -0.0903  0.1300 -0.0864
   99OSM   H15S 9914   6.222   0.394   8.989  0.4523  0.6392  1.6244
   99OSM   H15T 9915   6.360   0.501   8.936 -0.1171  1.1303  0.1076
   99OSM   C16S 9916   6.181   0.519   8.815  0.3494 -0.5258  0.1819
   99OSM   H16S 9917   6.234   0.456   8.740 -1.1254 -1.8221  0.1750
   99OSM   H16T 9918   6.202   0.622   8.779 -0.2793 -0.3119  0.4128
   99OSM   C17S 9919   6.034   0.464   8.807  0.1826  0.3759  0.3544
   99OSM   H17S 9920   5.966   0.528   8.867 -0.5314 -1.4047  1.5066
   99OSM   H17T 9921   6.026   0.367   8.860 -1.6510 -0.3032 -1.0470
   99OSM   C18S 9922   5.970   0.433   8.668  0.0073 -0.7098  0.0940
   99OSM   H18S 9923   6.010   0.498   8.588 -1.1224 -0.2905 -0.1440
   99OSM   H18T 9924   5.860   0.450   8.680  0.1646  0.0547  0.5564
   99OSM   H18U 9925   5.997   0.330   8.636  1.3968 -1.0531  2.1612
   99OSM    C1F 9926   6.038   0.908  10.347 -0.5959 -0.4115  0.2030
   99OSM     OF 9927   6.083   0.978  10.437  0.2523 -0.2035  0.1962
   99OSM    C2F 9928   5.920   0.947  10.262  0.3565  0.6206  0.6495
   99OSM    H2F 9929   5.835   0.949  10.334 -0.6975  3.0163 -0.5408
   99OSM    H2G 9930   5.913   0.869  10.183  0.3838  1.2345  0.0269
   99OSM    C3F 9931   5.925   1.085  10.190 -0.5443  0.1927  0.8830
   99OSM    H3F 9932   5.825   1.113  10.150 -0.5263  0.8300  1.2494
   99OSM    H3G 9933   5.927   1.162  10.271 -1.5886 -1.0124  2.1016
   99OSM    C4F 9934   6.031   1.106  10.089 -0.0432  0.0443  0.0161
   99OSM    H4F 9935   6.124   1.056  10.121  1.0470  2.3903  0.6825
   99OSM    H4G 9936   6.056   1.213  10.073 -1.1781  0.4842  1.0325
   99OSM    C5F 9937   5.992   1.048   9.948 -0.3559  0.3580  0.2381
   99OSM    H5F 9938   5.903   1.098   9.904  0.7456  1.5067 -0.7860
   99OSM    H5G 9939   5.979   0.939   9.965 -1.1717 -0.0433 -2.4685
   99OSM    C6F 9940   6.101   1.064   9.842 -0.2654 -0.5327 -0.0245
   99OSM    H6F 9941   6.195   1.017   9.878 -0.1952 -2.3888 -2.3698
   99OSM    H6G 9942   6.113   1.173   9.857  0.5692 -0.4160 -1.3682
   99OSM    C7F 9943   6.061   1.028   9.698  0.7132 -0.0820  0.2463
   99OSM    H7F 9944   5.976   1.094   9.670  0.5270 -0.3579  0.1509
   99OSM    H7G 9945   6.018   0.926   9.706  0.4641 -0.2083 -2.2022
   99OSM    C8F 9946   6.158   1.034   9.586 -0.7261 -0.3486 -0.2852
   99OSM    H8F 9947   6.131   0.981   9.493 -1.0461  0.3335 -0.5859
   99OSM    H8G 9948   6.255   0.991   9.619 -0.6799 -0.0736 -0.0583
   99OSM    C9F 9949   6.175   1.182   9.547  0.2764 -0.3513  0.4450
   99OSM    H9F 9950   6.235   1.240   9.619 -0.3862  1.3486 -0.2910
   99OSM   C10F 9951   6.135   1.255   9.444  0.7460  0.0541  0.5068
   99OSM   H10F 9952   6.169   1.359   9.442  1.7292 -0.2456  0.9904
   99OSM   C11F 9953   6.054   1.210   9.320  0.6591  0.0588 -0.2562
   99OSM   H11F 9954   5.977   1.288   9.302  1.1759  0.5206 -0.5185
   99OSM   H11G 9955   6.013   1.108   9.337 -0.3480  0.3581 -0.8254
   99OSM   C12F 9956   6.150   1.186   9.196 -0.1205 -0.2040 -0.3526
   99OSM   H12F 9957   6.244   1.133   9.224 -1.1507 -2.3187 -0.7225
   99OSM   H12G 9958   6.176   1.287   9.160  0.8052 -1.3638 -3.2264
   99OSM   C13F 9959   6.087   1.108   9.079 -0.4126  0.9476  0.2763
   99OSM   H13F 9960   5.995   1.156   9.040  0.0844  1.3107 -0.4654
   99OSM   H13G 9961   6.075   1.001   9.107  0.7474  1.0595  1.2793
   99OSM   C14F 9962   6.196   1.114   8.968 -0.0928  0.0618  0.7714
   99OSM   H14F 9963   6.284   1.057   9.005 -0.0738  0.7252  1.7733
   99OSM   H14G 9964   6.228   1.215   8.934  2.4791 -1.4746 -1.8523
   99OSM   C15F 9965   6.138   1.041   8.846 -0.9604 -0.5734 -0.6437
   99OSM   H15F 9966   6.055   1.098   8.799  0.1235  0.2240 -1.6444
   99OSM   H15G 9967   6.100   0.943   8.882  0.7309 -0.6579  1.0468
   99OSM   C16F 9968   6.249   0.998   8.747  0.1934  0.2846  0.8978
   99OSM   H16F 9969   6.324   0.933   8.797  1.0617  0.2738 -0.3705
   99OSM   H16G 9970   6.297   1.093   8.715  1.4037  0.1493  2.2168
   99OSM   C17F 9971   6.186   0.908   8.629 -0.8942 -0.0890 -0.1898
   99OSM   H17F 9972   6.089   0.960   8.614 -1.1242  0.1200  1.7819
   99OSM   H17G 9973   6.163   0.813   8.682  0.3235  0.6223  1.7303
   99OSM   C18F 9974   6.264   0.878   8.506  0.3712  0.4461  0.2175
   99OSM   H18F 9975   6.369   0.864   8.538  1.2253  0.6130 -2.3363
   99OSM   H18G 9976   6.264   0.965   8.437  0.7235  1.0142  0.9131
   99OSM   H18H 9977   6.229   0.780   8.467  1.0318 -0.1892  1.1890
  100OSM      N 9978   0.935   3.357  10.516 -0.2522 -0.3255 -0.2432
  100OSM    C15 9979   0.962   3.425  10.387 -0.1659  0.6170  0.4771
  100OSM   H15A 9980   1.056   3.477  10.390  0.6969 -0.8903  0.3946
  100OSM   H15B 9981   0.884   3.496  10.362 -0.2884  0.4720  0.4481
  100OSM   H15C 9982   0.970   3.351  10.308  1.1219 -1.0384  2.0768
  100OSM    C14 9983   0.871   3.460  10.607  0.8857  0.3512 -0.4444
  100OSM   H14A 9984   0.944   3.531  10.642  0.0203  0.7605  0.6022
  100OSM   H14B 9985   0.837   3.416  10.700  2.5473 -0.1814 -0.0706
  100OSM   H14C 9986   0.794   3.502  10.544  1.7028 -1.1794 -2.5781
  100OSM    C13 9987   0.844   3.245  10.510 -0.1810  0.0062 -0.1508
  100OSM   H13A 9988   0.756   3.275  10.455  1.2677  1.3801 -1.8370
  100OSM   H13B 9989   0.835   3.192  10.604  0.0108 -0.9435 -0.6528
  100OSM   H13C 9990   0.875   3.171  10.437 -1.5641 -0.3958 -0.3619
  100OSM    C12 9991   1.077   3.320  10.581  0.0359 -0.0529 -0.0425
  100OSM   H12A 9992   1.137   3.410  10.574 -0.1904  0.0526 -0.7350
  100OSM   H12B 9993   1.123   3.252  10.511  1.1136 -0.6102  1.1626
  100OSM    C11 9994   1.071   3.260  10.716  0.8463  0.5740  0.1262
  100OSM   H11A 9995   1.035   3.336  10.788 -0.7728 -0.5624  0.5518
  100OSM   H11B 9996   1.173   3.245  10.758  1.0231  1.9929  0.2603
  100OSM      P 9997   1.064   3.007  10.688  0.1719  0.4474  0.0955
  100OSM    O13 9998   1.142   2.958  10.805  0.1412 -0.3692  0.3455
  100OSM    O14 9999   0.969   2.911  10.629  0.2916 -0.2799  0.2223
  100OSM    O1110000   1.162   3.057  10.572  0.4178  0.1724 -0.7409
  100OSM    O1210001   0.996   3.143  10.723  0.3373  0.1881  0.3432
  100OSM    C1S10002   1.306   3.059  10.571 -0.5769 -0.5627 -0.4432
  100OSM    H1S10003   1.349   3.007  10.659  1.4822  1.7767  0.0341
  100OSM    H1T10004   1.345   3.162  10.588 -3.5362  0.4319  1.0168
  100OSM     NF10005   1.504   3.014  10.444  0.2297 -0.1693 -0.3422
  100OSM    HNF10006   1.556   3.095  10.419  0.3783 -0.2192 -0.1964
  100OSM    C2S10007   1.364   3.022  10.428  0.4024  0.1503  0.1853
  100OSM    H2S10008   1.319   2.922  10.409  0.0783  0.3623 -0.1598
  100OSM    C3S10009   1.314   3.117  10.314 -0.3090 -0.2179  0.0411
  100OSM    H3S10010   1.336   3.221  10.348 -0.6499 -0.3519  0.6604
  100OSM     O310011   1.175   3.099  10.301  0.1835  0.4101  0.5296
  100OSM    HO310012   1.151   3.073  10.391 -0.5556  0.4611  0.3518
  100OSM    C4S10013   1.384   3.095  10.182 -0.1846 -0.2315 -0.4307
  100OSM    H4S10014   1.356   2.993  10.150 -1.6965 -0.4868  1.5537
  100OSM    C5S10015   1.460   3.174  10.110 -1.2112 -0.5700  0.7888
  100OSM    H5S10016   1.478   3.279  10.138 -2.9653 -0.1948  0.6521
  100OSM    C6S10017   1.524   3.132   9.979 -0.5602  0.5835  0.1985
  100OSM    H6S10018   1.519   3.022   9.971  1.5872  0.3331  1.6689
  100OSM    H6T10019   1.631   3.160   9.991 -0.0640 -1.4108  0.6865
  100OSM    C7S10020   1.455   3.184   9.854  0.2488 -0.7253  0.1934
  100OSM    H7S10021   1.444   3.294   9.856  1.2480 -0.6195  0.8336
  100OSM    H7T10022   1.355   3.140   9.833 -1.2060  2.8630 -1.2120
  100OSM    C8S10023   1.551   3.156   9.736  0.8751 -0.7327 -0.8632
  100OSM    H8S10024   1.567   3.047   9.722 -1.9414 -1.3670  0.2224
  100OSM    H8T10025   1.646   3.209   9.759 -0.2953 -0.1583  3.8038
  100OSM    C9S10026   1.483   3.201   9.606  0.1831  0.2131  0.6555
  100OSM    H9S10027   1.374   3.184   9.609  0.1217 -0.5197 -2.4122
  100OSM    H9T10028   1.520   3.140   9.521  0.1917  3.5505 -1.9578
  100OSM   C10S10029   1.510   3.344   9.558  0.5896  0.6178 -0.0421
  100OSM   H10S10030   1.619   3.368   9.565  0.0616  3.2084  0.3105
  100OSM   H10T10031   1.467   3.409   9.637 -2.4337 -1.1595 -0.0792
  100OSM   C11S10032   1.452   3.385   9.421 -0.5367 -0.0231  0.1968
  100OSM   H11S10033   1.495   3.479   9.380  1.3989 -1.7454 -2.0350
  100OSM   H11T10034   1.342   3.388   9.437 -0.4800 -2.7669  1.8066
  100OSM   C12S10035   1.484   3.291   9.301  0.2833  0.3171 -0.2322
  100OSM   H12S10036   1.440   3.189   9.302  2.1870 -0.5923 -1.3759
  100OSM   H12T10037   1.594   3.277   9.307  0.3277  0.3994 -0.7906
  100OSM   C13S10038   1.444   3.356   9.163  0.4895  0.5167  0.0808
  100OSM   H13S10039   1.483   3.459   9.149  1.0508  0.0373 -2.4970
  100OSM   H13T10040   1.334   3.352   9.146  0.7410 -0.6697 -1.4753
  100OSM   C14S10041   1.500   3.284   9.040  0.4274 -0.2950  1.5442
  100OSM   H14S10042   1.461   3.180   9.039  1.7697 -0.8444  0.0892
  100OSM   H14T10043   1.611   3.278   9.040  0.5107 -0.5182 -1.4348
  100OSM   C15S10044   1.477   3.354   8.906 -0.1430 -0.5365 -0.0368
  100OSM   H15S10045   1.542   3.303   8.832 -0.5321  0.5107 -1.1169
  100OSM   H15T10046   1.523   3.454   8.914 -1.9004  0.4860 -1.7861
  100OSM   C16S10047   1.328   3.352   8.857 -0.0160 -0.0102  0.3010
  100OSM   H16S10048   1.333   3.388   8.752  1.1387 -1.3102 -0.1188
  100OSM   H16T10049   1.270   3.428   8.914  2.0541  2.2278 -0.4030
  100OSM   C17S10050   1.257   3.218   8.847  0.2660  0.8824  0.0833
  100OSM   H17S10051   1.176   3.235   8.772 -0.0119  0.7206  0.3457
  100OSM   H17T10052   1.212   3.181   8.941 -1.7587 -0.0703 -1.1889
  100OSM   C18S10053   1.345   3.106   8.793 -0.8533  1.1722 -0.1235
  100OSM   H18S10054   1.426   3.084   8.867 -2.9165  2.5719  2.7432
  100OSM   H18T10055   1.386   3.134   8.693 -0.7407  0.6945 -0.2124
  100OSM   H18U10056   1.289   3.014   8.769  0.8165  0.1052 -0.1401
  100OSM    C1F10057   1.560   2.904  10.502 -0.7060  0.1517  0.1818
  100OSM     OF10058   1.511   2.791  10.496 -0.1161  0.3763 -0.0763
  100OSM    C2F10059   1.693   2.912  10.570 -0.0411  0.0797  0.3082
  100OSM    H2F10060   1.738   2.811  10.558 -2.1273 -0.6820 -1.8444
  100OSM    H2G10061   1.673   2.906  10.679  2.2934  0.7333  0.8263
  100OSM    C3F10062   1.787   3.035  10.553  1.0147 -0.2140  0.4725
  100OSM    H3F10063   1.870   3.019  10.624 -0.2574  0.3005  2.1213
  100OSM    H3G10064   1.734   3.125  10.590  1.0366 -1.2003  3.1336
  100OSM    C4F10065   1.841   3.047  10.414 -0.0016  0.7759 -0.1723
  100OSM    H4F10066   1.919   3.125  10.419  1.4018 -0.6232  0.6634
  100OSM    H4G10067   1.762   3.083  10.344 -0.0769  0.7125 -0.1198
  100OSM    C5F10068   1.915   2.929  10.359 -0.0403  0.7055  0.1536
  100OSM    H5F10069   1.852   2.838  10.374 -0.6299  1.4479  2.8813
  100OSM    H5G10070   2.001   2.913  10.428 -0.5557 -3.0884  0.1360
  100OSM    C6F10071   1.950   2.933  10.214 -0.5951 -0.3468 -0.0973
  100OSM    H6F10072   2.026   2.856  10.185 -1.7661 -1.5997  0.0578
  100OSM    H6G10073   2.005   3.027  10.192  1.8882 -1.2737  1.7362
  100OSM    C7F10074   1.830   2.924  10.118  0.0214  0.2465 -0.5059
  100OSM    H7F10075   1.751   2.996  10.149 -0.3651  0.1802 -1.3056
  100OSM    H7G10076   1.784   2.825  10.137  1.8944 -0.6883 -0.6369
  100OSM    C8F10077   1.843   2.943   9.967  0.3238 -0.3022 -0.2928
  100OSM    H8F10078   1.867   3.048   9.940  1.1944 -0.9001 -1.9193
  100OSM    H8G10079   1.743   2.931   9.920  0.0691 -0.4922  0.2753
  100OSM    C9F10080   1.947   2.856   9.909 -0.4294  0.3708  0.8857
  100OSM    H9F10081   2.043   2.834   9.957 -0.4641 -3.8267 -0.5708
  100OSM   C10F10082   1.937   2.794   9.788 -0.5378 -0.2564 -0.3110
  100OSM   H10F10083   2.031   2.747   9.756  0.0817  1.8274 -1.7216
  100OSM   C11F10084   1.828   2.807   9.681 -0.3394 -0.4525 -0.1277
  100OSM   H11F10085   1.732   2.855   9.707  0.2141  0.1903  0.8250
  100OSM   H11G10086   1.795   2.706   9.650  0.5227 -0.1539 -2.1591
  100OSM   C12F10087   1.885   2.851   9.544 -0.3065 -0.2318 -0.3479
  100OSM   H12F10088   1.794   2.842   9.482 -0.7718 -0.5217  0.3659
  100OSM   H12G10089   1.957   2.778   9.501  1.4433  0.6590  0.8990
  100OSM   C13F10090   1.934   2.993   9.535  0.3561 -0.3785 -0.1734
  100OSM   H13F10091   2.044   2.996   9.549  0.0666  1.0888  2.4492
  100OSM   H13G10092   1.883   3.048   9.618 -1.0062 -0.4534 -0.9243
  100OSM   C14F10093   1.903   3.066   9.401  0.0552  0.2443  0.5057
  100OSM   H14F10094   1.796   3.054   9.377  0.1117  0.8426 -0.0956
  100OSM   H14G10095   1.955   3.021   9.314  0.0908  0.3518  0.4702
  100OSM   C15F10096   1.927   3.217   9.413  0.2094  0.2270  0.3198
  100OSM   H15F10097   2.030   3.238   9.447 -1.0133  0.9287  4.0243
  100OSM   H15G10098   1.859   3.253   9.493  0.0924 -0.5923  0.6041
  100OSM   C16F10099   1.917   3.293   9.281  0.5484 -0.0196  0.2607
  100OSM   H16F10100   1.906   3.397   9.317 -0.1495 -0.2025  0.6228
  100OSM   H16G10101   1.830   3.255   9.223 -0.2078 -0.4343  1.6098
  100OSM   C17F10102   2.042   3.312   9.195  0.4081  0.1546  0.1662
  100OSM   H17F10103   2.123   3.378   9.232  0.4004  0.4524 -0.3406
  100OSM   H17G10104   2.012   3.342   9.093  2.7065  0.6798 -0.3917
  100OSM   C18F10105   2.123   3.177   9.166 -0.0163 -0.1946  0.3556
  100OSM   H18F10106   2.203   3.195   9.091 -2.4158 -0.1304 -2.3885
  100OSM   H18G10107   2.047   3.109   9.122 -0.7243  0.7657  0.0550
  100OSM   H18H10108   2.161   3.131   9.259  1.1177 -0.3152 -0.1597
  101OSM      N10109   5.287   6.015  10.968  0.1386  0.3737  0.3461
  101OSM    C1510110   5.368   6.141  10.982 -0.2444 -0.0179  0.4755
  101OSM   H15A10111   5.320   6.232  10.949  0.7010  0.2066 -0.3156
  101OSM   H15B10112   5.462   6.132  10.930 -0.2010 -0.4312  0.6199
  101OSM   H15C10113   5.386   6.152  11.088  0.2689  2.4324  0.2022
  101OSM    C1410114   5.362   5.907  11.033  0.0007  0.0572 -0.4288
  101OSM   H14A10115   5.458   5.889  10.987 -0.6007  2.1276 -2.6928
  101OSM   H14B10116   5.314   5.811  11.027 -1.6747  0.6741  1.6395
  101OSM   H14C10117   5.379   5.935  11.136  0.4095  0.0061 -0.4818
  101OSM    C1310118   5.158   6.028  11.037  0.2966 -0.0847 -0.6520
  101OSM   H13A10119   5.158   6.095  11.122 -0.5368  0.1344 -0.8151
  101OSM   H13B10120   5.104   5.937  11.059 -0.2402  0.6874  1.4686
  101OSM   H13C10121   5.093   6.071  10.963  0.2266 -0.3369 -0.7386
  101OSM    C1210122   5.257   5.977  10.828  0.6525 -0.0401 -0.1452
  101OSM   H12A10123   5.200   5.887  10.840  1.7612 -0.4587  2.8719
  101OSM   H12B10124   5.347   5.956  10.772 -0.8292 -2.6822 -1.7156
  101OSM    C1110125   5.184   6.072  10.728 -0.4929  0.5097 -0.3758
  101OSM   H11A10126   5.175   6.014  10.634 -3.8330  0.2857 -0.0310
  101OSM   H11B10127   5.252   6.158  10.719  0.4800 -0.3328 -1.3368
  101OSM      P10128   5.012   6.247  10.801  0.3386  0.0922  0.2461
  101OSM    O1310129   4.909   6.255  10.904  0.5578 -0.0772 -0.2119
  101OSM    O1410130   5.127   6.335  10.822  0.1211 -0.0503  0.0482
  101OSM    O1110131   4.952   6.299  10.668 -0.5754 -0.4575  0.7122
  101OSM    O1210132   5.056   6.102  10.786 -0.1390  0.4329 -0.3117
  101OSM    C1S10133   4.863   6.221  10.586 -0.4261  0.1365  0.1841
  101OSM    H1S10134   4.764   6.213  10.635 -0.9567 -0.3375 -0.9133
  101OSM    H1T10135   4.907   6.120  10.569  0.3346  0.6004 -0.7102
  101OSM     NF10136   4.762   6.190  10.355  0.3660 -0.2633  0.1451
  101OSM    HNF10137   4.823   6.144  10.291  1.1696  0.2385  0.5338
  101OSM    C2S10138   4.846   6.273  10.437 -0.2548  0.5047 -0.1756
  101OSM    H2S10139   4.786   6.365  10.458 -0.4479  0.1167  1.0626
  101OSM    C3S10140   4.981   6.318  10.369 -0.0972  0.5093  0.4450
  101OSM    H3S10141   5.042   6.230  10.341  0.2094 -0.1659  2.9369
  101OSM     O310142   5.065   6.409  10.442 -0.2556  0.2278  0.0388
  101OSM    HO310143   5.023   6.395  10.527  0.1785 -3.2333 -0.1826
  101OSM    C4S10144   4.955   6.393  10.246 -0.0088  0.2613 -0.2576
  101OSM    H4S10145   4.914   6.495  10.256 -0.9537 -0.0167 -1.1518
  101OSM    C5S10146   4.985   6.356  10.120 -0.3609  0.5379 -0.0126
  101OSM    H5S10147   5.031   6.259  10.094 -2.0291 -0.0720 -0.8515
  101OSM    C6S10148   4.946   6.437  10.003 -0.0652  0.0037  0.5184
  101OSM    H6S10149   5.024   6.442   9.924 -1.8107 -0.7386 -1.3631
  101OSM    H6T10150   4.916   6.541  10.025  1.7911  0.8327 -0.6493
  101OSM    C7S10151   4.819   6.364   9.939 -0.6213 -0.2782  0.1081
  101OSM    H7S10152   4.731   6.363  10.006 -0.5205 -0.0197  0.2449
  101OSM    H7T10153   4.835   6.255   9.925 -1.5812 -0.5946  1.2883
  101OSM    C8S10154   4.765   6.430   9.808 -0.2911 -0.1811  0.0949
  101OSM    H8S10155   4.854   6.425   9.741 -1.4613  1.7924 -1.7511
  101OSM    H8T10156   4.745   6.538   9.828  0.4052  0.1079 -0.7236
  101OSM    C9S10157   4.639   6.367   9.742  0.3604  0.7554  0.1110
  101OSM    H9S10158   4.549   6.402   9.797 -0.1783 -1.1173  0.4924
  101OSM    H9T10159   4.646   6.257   9.726  0.6264  0.6324  1.0258
  101OSM   C10S10160   4.617   6.427   9.602  0.2139  0.2793  0.1957
  101OSM   H10S10161   4.545   6.360   9.551 -0.3077  0.9195  0.0751
  101OSM   H10T10162   4.711   6.413   9.543 -0.1745 -2.8644  0.1616
  101OSM   C11S10163   4.587   6.579   9.595  0.6003  0.4307 -0.3807
  101OSM   H11S10164   4.646   6.640   9.667  1.3750 -3.1418  2.3102
  101OSM   H11T10165   4.483   6.587   9.633  0.6116 -0.6680 -0.0713
  101OSM   C12S10166   4.588   6.630   9.448  0.0344  0.2573  0.7872
  101OSM   H12S10167   4.531   6.560   9.382  0.5283  0.1381  0.4840
  101OSM   H12T10168   4.697   6.623   9.427  0.0220  1.2456  0.3604
  101OSM   C13S10169   4.540   6.770   9.429 -0.2738  0.2008 -0.4333
  101OSM   H13S10170   4.616   6.832   9.481 -1.6716  2.0418 -0.4555
  101OSM   H13T10171   4.447   6.781   9.489  0.1089  1.1972  0.0017
  101OSM   C14S10172   4.505   6.812   9.290 -0.1303 -0.5500 -0.1318
  101OSM   H14S10173   4.449   6.908   9.282 -3.2260 -2.1583  0.6530
  101OSM   H14T10174   4.439   6.729   9.259  0.2450 -2.1379  2.9207
  101OSM   C15S10175   4.618   6.837   9.194  0.0285 -0.1523  0.2577
  101OSM   H15S10176   4.663   6.745   9.150  2.1267  1.0869 -0.3170
  101OSM   H15T10177   4.711   6.859   9.250  0.2891 -1.1377  0.2386
  101OSM   C16S10178   4.586   6.932   9.083  0.0612 -0.2340  0.5000
  101OSM   H16S10179   4.569   7.036   9.117 -2.8275  0.4307 -2.5320
  101OSM   H16T10180   4.494   6.907   9.026  0.9569  0.5132 -1.3680
  101OSM   C17S10181   4.698   6.937   8.976 -0.3572 -0.1607  0.0392
  101OSM   H17S10182   4.722   6.833   8.945 -0.8063 -0.1120 -0.4697
  101OSM   H17T10183   4.787   6.974   9.033 -0.2086  0.3499 -0.5096
  101OSM   C18S10184   4.661   7.019   8.857  0.0286  0.4739  0.3392
  101OSM   H18S10185   4.733   7.003   8.774 -0.4989  0.1907 -0.0760
  101OSM   H18T10186   4.666   7.125   8.889  3.4573  1.3288 -2.4368
  101OSM   H18U10187   4.565   6.996   8.806 -0.1041  2.3300 -0.3222
  101OSM    C1F10188   4.642   6.149  10.387  0.0801 -0.6550 -0.2721
  101OSM     OF10189   4.582   6.184  10.487 -0.1843 -0.0951  0.0211
  101OSM    C2F10190   4.587   6.051  10.290 -0.1325 -0.7182 -0.0469
  101OSM    H2F10191   4.555   5.959  10.343 -1.0056 -0.9227 -0.8970
  101OSM    H2G10192   4.671   6.018  10.224  1.0077 -0.1973  1.1034
  101OSM    C3F10193   4.473   6.096  10.200 -0.9419  0.2885 -0.4859
  101OSM    H3F10194   4.520   6.174  10.136 -0.0437 -0.6331 -0.9888
  101OSM    H3G10195   4.391   6.139  10.261  0.4031  1.3757  0.5897
  101OSM    C4F10196   4.424   5.983  10.108 -0.1978  0.0645 -0.2143
  101OSM    H4F10197   4.390   5.899  10.172  0.1237  0.4419  0.4675
  101OSM    H4G10198   4.516   5.956  10.052  1.1897  2.1861  0.8864
  101OSM    C5F10199   4.311   6.033  10.013 -0.5447  0.2592 -0.2152
  101OSM    H5F10200   4.270   6.131  10.047 -0.3462  0.2103  0.1740
  101OSM    H5G10201   4.226   5.963  10.032 -0.9685  0.8448  0.1002
  101OSM    C6F10202   4.347   6.025   9.861 -0.0685  0.4865  0.2380
  101OSM    H6F10203   4.270   6.081   9.804  0.5802 -0.0743 -1.2399
  101OSM    H6G10204   4.447   6.073   9.856  1.2680 -2.2135 -0.5328
  101OSM    C7F10205   4.376   5.879   9.806  0.3048 -0.7566 -0.6903
  101OSM    H7F10206   4.289   5.827   9.850  0.1087 -0.5606 -0.8473
  101OSM    H7G10207   4.462   5.837   9.864  1.5876  2.1089 -0.3773
  101OSM    C8F10208   4.384   5.850   9.657  0.0113 -0.1274  0.5419
  101OSM    H8F10209   4.282   5.823   9.623 -1.2051  2.1115  2.0971
  101OSM    H8G10210   4.447   5.760   9.644 -2.0195 -1.9789  2.5566
  101OSM    C9F10211   4.417   5.971   9.572 -0.3685 -0.7823  0.4189
  101OSM    H9F10212   4.379   6.067   9.609 -0.5920 -0.3735 -0.8217
  101OSM   C10F10213   4.514   5.966   9.475  0.1952 -0.4228  0.1259
  101OSM   H10F10214   4.531   6.064   9.430 -2.4913  0.2437  0.3877
  101OSM   C11F10215   4.597   5.841   9.428  0.3308 -1.2248 -0.3737
  101OSM   H11F10216   4.567   5.748   9.482 -0.0220 -0.6038  0.5334
  101OSM   H11G10217   4.699   5.872   9.460 -0.9668  1.6766  1.3825
  101OSM   C12F10218   4.585   5.805   9.277  0.8009  0.5573 -0.0072
  101OSM   H12F10219   4.485   5.772   9.244  1.5084 -0.8958 -0.8124
  101OSM   H12G10220   4.652   5.717   9.263  0.4314 -0.7231  4.4986
  101OSM   C13F10221   4.634   5.914   9.182  0.6060  0.5339 -0.0404
  101OSM   H13F10222   4.745   5.922   9.188  0.8604 -2.1965  0.2689
  101OSM   H13G10223   4.583   6.009   9.207 -1.6199 -0.7588  0.5402
  101OSM   C14F10224   4.591   5.898   9.038 -0.3024  0.6594 -0.2822
  101OSM   H14F10225   4.481   5.908   9.047 -0.1692  0.3952  2.3151
  101OSM   H14G10226   4.622   5.800   8.994 -0.2402  0.9561 -0.9194
  101OSM   C15F10227   4.648   5.995   8.934  1.1733  0.1772  0.1047
  101OSM   H15F10228   4.755   6.009   8.960  1.9683 -0.4389 -2.5224
  101OSM   H15G10229   4.581   6.083   8.941 -0.7581 -1.2865  1.0925
  101OSM   C16F10230   4.636   5.957   8.787  0.0006 -0.5108 -1.0117
  101OSM   H16F10231   4.528   5.930   8.784 -0.0814 -0.2027 -0.8559
  101OSM   H16G10232   4.699   5.869   8.762  0.0540 -1.2697  1.5246
  101OSM   C17F10233   4.651   6.081   8.692  0.0994 -0.4419  0.1100
  101OSM   H17F10234   4.577   6.155   8.730 -0.4385 -0.9228  0.0145
  101OSM   H17G10235   4.626   6.053   8.587  1.4131 -0.0991 -0.3068
  101OSM   C18F10236   4.792   6.149   8.687 -0.5528 -0.7384 -0.2809
  101OSM   H18F10237   4.782   6.237   8.620 -0.0264  2.1489  3.1520
  101OSM   H18G10238   4.869   6.083   8.642  0.1868 -0.4859  0.5827
  101OSM   H18H10239   4.829   6.156   8.791 -2.9491 -1.7380  0.7356
  102OSM      N10240   2.446   3.669  10.689  0.1609  0.2276 -0.0742
  102OSM    C1510241   2.569   3.693  10.609  0.5970 -0.7546 -0.1397
  102OSM   H15A10242   2.655   3.681  10.674  0.8055 -0.3027 -0.3283
  102OSM   H15B10243   2.566   3.790  10.561 -0.8698 -0.8691 -0.3121
  102OSM   H15C10244   2.582   3.633  10.520 -0.4612  0.9464 -1.5299
  102OSM    C1410245   2.456   3.529  10.751 -0.7230 -0.1260  0.0046
  102OSM   H14A10246   2.456   3.448  10.681 -0.4280 -0.0910 -0.0347
  102OSM   H14B10247   2.378   3.509  10.824 -0.0135  0.8382  1.0734
  102OSM   H14C10248   2.547   3.515  10.807 -0.3649 -0.0997 -0.5626
  102OSM    C1310249   2.439   3.768  10.797  0.3246  0.5577  0.1461
  102OSM   H13A10250   2.520   3.771  10.870 -1.1842  1.0357  1.8779
  102OSM   H13B10251   2.349   3.758  10.856 -0.4131 -0.4051 -1.1125
  102OSM   H13C10252   2.433   3.868  10.756  0.4617  0.4783 -0.0684
  102OSM    C1210253   2.322   3.669  10.599 -0.2122 -0.3506 -0.3663
  102OSM   H12A10254   2.331   3.576  10.545 -1.7836 -0.7939  0.0937
  102OSM   H12B10255   2.327   3.751  10.528  0.7156  1.3138  1.5308
  102OSM    C1110256   2.179   3.683  10.675  0.0038  0.3944  0.7371
  102OSM   H11A10257   2.167   3.598  10.746  0.7506 -2.2866 -2.1123
  102OSM   H11B10258   2.101   3.680  10.595  1.2201  0.2668 -0.4710
  102OSM      P10259   2.093   3.919  10.693  0.6086 -0.2998  0.1615
  102OSM    O1310260   1.949   3.904  10.705  0.0313  0.2624 -0.6798
  102OSM    O1410261   2.155   4.045  10.738  0.1209  0.6010  0.7740
  102OSM    O1110262   2.122   3.901  10.539  0.0130  0.8765 -0.5906
  102OSM    O1210263   2.167   3.791  10.758 -0.0184 -0.7706 -0.2977
  102OSM    C1S10264   2.017   3.919  10.449 -0.1670  0.7218  0.1216
  102OSM    H1S10265   1.967   4.016  10.472 -0.2029  0.2205  2.3668
  102OSM    H1T10266   1.939   3.839  10.453 -1.8174  2.2333 -0.4929
  102OSM     NF10267   1.935   3.894  10.226 -0.1364  0.0484 -0.2441
  102OSM    HNF10268   1.925   3.810  10.172 -4.1193  0.2921 -0.2189
  102OSM    C2S10269   2.061   3.918  10.303  0.0737 -0.3831  0.2940
  102OSM    H2S10270   2.108   4.017  10.286 -0.2873 -0.2451  0.0662
  102OSM    C3S10271   2.171   3.812  10.266  0.6037 -0.7160 -0.2753
  102OSM    H3S10272   2.138   3.714  10.307  1.3483 -0.7509  0.2563
  102OSM     O310273   2.292   3.850  10.329 -0.0719  0.0376  0.6737
  102OSM    HO310274   2.258   3.907  10.399 -1.3374  1.8817 -1.2951
  102OSM    C4S10275   2.186   3.813  10.118 -0.0292 -0.2709 -0.4725
  102OSM    H4S10276   2.228   3.904  10.072 -2.1853  0.4756 -1.0754
  102OSM    C5S10277   2.147   3.718  10.030 -0.5136 -0.3821  0.3955
  102OSM    H5S10278   2.105   3.622  10.064  0.5859 -0.3080  2.1259
  102OSM    C6S10279   2.163   3.736   9.885 -0.5185  0.6642 -0.3817
  102OSM    H6S10280   2.060   3.742   9.844  0.0804 -2.1131 -2.6135
  102OSM    H6T10281   2.214   3.645   9.846  0.0514 -0.0914  1.9348
  102OSM    C7S10282   2.216   3.865   9.826  0.5040  0.7098 -0.2060
  102OSM    H7S10283   2.318   3.871   9.871  0.2194 -3.2212  1.3800
  102OSM    H7T10284   2.175   3.962   9.861  2.2784  2.1441 -1.8978
  102OSM    C8S10285   2.216   3.867   9.668 -0.1625 -0.0354 -0.4038
  102OSM    H8S10286   2.122   3.907   9.626  0.7988  1.7834 -0.9594
  102OSM    H8T10287   2.235   3.764   9.631 -0.0008 -0.5870  1.1416
  102OSM    C9S10288   2.332   3.965   9.628  0.5736  0.0674  0.0373
  102OSM    H9S10289   2.422   3.929   9.681 -1.0503 -3.0877  0.9393
  102OSM    H9T10290   2.305   4.068   9.660 -0.9693 -0.2164 -0.2444
  102OSM   C10S10291   2.353   3.975   9.476  0.0375  0.4363 -0.0877
  102OSM   H10S10292   2.458   4.006   9.456  0.6384 -2.0355 -1.1024
  102OSM   H10T10293   2.284   4.051   9.432 -1.1750 -0.4518  0.2245
  102OSM   C11S10294   2.341   3.844   9.393  0.0032 -0.0479 -0.3172
  102OSM   H11S10295   2.235   3.813   9.389 -0.5689  1.8925 -3.1690
  102OSM   H11T10296   2.394   3.773   9.460 -0.7139 -0.4007 -0.1208
  102OSM   C12S10297   2.387   3.839   9.241  0.3403 -0.3853  0.3296
  102OSM   H12S10298   2.365   3.737   9.204  0.2302 -0.1315 -0.3155
  102OSM   H12T10299   2.498   3.842   9.240  0.4898 -3.1902  0.5789
  102OSM   C13S10300   2.331   3.948   9.146 -0.2604  0.1934  0.3600
  102OSM   H13S10301   2.371   4.050   9.169 -3.9910  1.4604  2.0071
  102OSM   H13T10302   2.222   3.962   9.164 -0.9279 -0.8479 -2.4523
  102OSM   C14S10303   2.340   3.920   8.993 -0.3968  0.1608 -0.2886
  102OSM   H14S10304   2.301   3.819   8.968  1.2443 -0.1309 -1.7962
  102OSM   H14T10305   2.448   3.923   8.969 -0.3777  0.7416 -0.1332
  102OSM   C15S10306   2.283   4.032   8.899  0.0178 -0.1429 -0.5522
  102OSM   H15S10307   2.307   4.133   8.940  0.6386  0.1175 -1.5166
  102OSM   H15T10308   2.173   4.016   8.898 -0.3755  2.0171  0.3465
  102OSM   C16S10309   2.331   4.023   8.757  0.1255 -0.1120 -0.4933
  102OSM   H16S10310   2.439   4.003   8.771  0.4228  1.0091 -1.0531
  102OSM   H16T10311   2.327   4.124   8.710  0.7747 -0.1476 -0.6381
  102OSM   C17S10312   2.267   3.925   8.659 -0.1749 -0.0264  0.1779
  102OSM   H17S10313   2.159   3.947   8.652 -0.4790 -0.7852  1.9895
  102OSM   H17T10314   2.277   3.821   8.697  0.9462 -1.3882 -3.3957
  102OSM   C18S10315   2.335   3.925   8.528 -0.2142 -0.6493  0.0160
  102OSM   H18S10316   2.335   4.030   8.490  1.2297 -0.6488 -0.0592
  102OSM   H18T10317   2.290   3.857   8.453 -0.0700  0.6704 -1.3077
  102OSM   H18U10318   2.444   3.904   8.540 -0.0595  0.1245  0.0099
  102OSM    C1F10319   1.835   3.985  10.216 -0.1624  0.1536 -0.1071
  102OSM     OF10320   1.848   4.095  10.268 -0.3361 -0.1630  0.0499
  102OSM    C2F10321   1.710   3.952  10.145  0.7238 -0.8072 -0.2976
  102OSM    H2F10322   1.631   3.922  10.217 -1.1263 -0.4189 -2.0706
  102OSM    H2G10323   1.725   3.865  10.077 -0.2755 -0.3059 -1.2013
  102OSM    C3F10324   1.644   4.077  10.076 -0.1191  0.5665  0.4343
  102OSM    H3F10325   1.627   4.161  10.147 -3.7695 -0.2674  0.7555
  102OSM    H3G10326   1.547   4.057  10.026  0.3385 -0.4358 -0.0664
  102OSM    C4F10327   1.747   4.122   9.972  0.5023 -0.4271 -0.6258
  102OSM    H4F10328   1.845   4.152  10.016 -1.4648  0.2614  3.8530
  102OSM    H4G10329   1.707   4.213   9.922 -1.2571 -0.3992  0.7506
  102OSM    C5F10330   1.758   4.025   9.849 -0.1725 -0.2263  0.0586
  102OSM    H5F10331   1.654   4.023   9.807  0.0010  1.1984 -0.4902
  102OSM    H5G10332   1.785   3.922   9.880 -1.1653 -0.4585  0.2010
  102OSM    C6F10333   1.860   4.087   9.742 -0.6430  0.7652 -0.0197
  102OSM    H6F10334   1.965   4.069   9.773  0.3031  2.6697 -1.8806
  102OSM    H6G10335   1.847   4.197   9.732  0.4394  0.8369 -0.7748
  102OSM    C7F10336   1.854   4.016   9.607 -0.5016 -0.1927  0.1572
  102OSM    H7F10337   1.852   3.905   9.615  3.8880 -0.4474  0.2914
  102OSM    H7G10338   1.944   4.037   9.546 -0.7611  1.9478  0.4188
  102OSM    C8F10339   1.732   4.053   9.518  0.4136  0.0394 -0.5791
  102OSM    H8F10340   1.630   4.028   9.554  0.4151  0.2776 -0.4101
  102OSM    H8G10341   1.750   3.975   9.440 -0.4732  0.4299 -1.1915
  102OSM    C9F10342   1.738   4.195   9.463 -0.0922  0.2340  0.4845
  102OSM    H9F10343   1.688   4.263   9.533 -0.0761  0.0879  0.6394
  102OSM   C10F10344   1.781   4.235   9.340  0.3248 -0.6454  0.1128
  102OSM   H10F10345   1.763   4.337   9.302  2.6876  0.3100  1.3537
  102OSM   C11F10346   1.826   4.142   9.225  0.0972  0.7327  0.5904
  102OSM   H11F10347   1.823   4.032   9.243  1.6624  0.9567  2.6658
  102OSM   H11G10348   1.926   4.176   9.191 -0.2893  0.7966 -0.5368
  102OSM   C12F10349   1.724   4.165   9.107 -0.3067 -0.1838  0.3133
  102OSM   H12F10350   1.707   4.273   9.091  1.4188  0.1226  0.3756
  102OSM   H12G10351   1.623   4.126   9.132 -3.1532  2.9693 -4.5453
  102OSM   C13F10352   1.760   4.086   8.979 -0.0151 -0.2266 -0.1906
  102OSM   H13F10353   1.675   4.103   8.909 -1.3225  0.9803  1.5988
  102OSM   H13G10354   1.782   3.980   9.004  0.4690  0.1572  1.0714
  102OSM   C14F10355   1.890   4.148   8.917 -0.3517  0.5455 -0.3158
  102OSM   H14F10356   1.971   4.127   8.990 -0.6079  2.0340  0.4198
  102OSM   H14G10357   1.884   4.258   8.906  1.4550  0.5818 -1.2698
  102OSM   C15F10358   1.928   4.095   8.771  0.2642  0.2607  0.0895
  102OSM   H15F10359   1.922   3.984   8.772  0.9468  0.1761 -1.8170
  102OSM   H15G10360   2.029   4.135   8.747 -0.1026  0.0837 -1.9080
  102OSM   C16F10361   1.827   4.158   8.667  0.0760 -0.1814 -0.2309
  102OSM   H16F10362   1.849   4.266   8.668  2.3001 -0.5402 -2.1116
  102OSM   H16G10363   1.728   4.128   8.708  0.3670 -1.9601 -0.7402
  102OSM   C17F10364   1.842   4.123   8.521  0.1078 -0.7008 -0.4882
  102OSM   H17F10365   1.833   4.013   8.512  0.6689 -0.8362  0.5071
  102OSM   H17G10366   1.942   4.146   8.478  0.2978  0.1827  0.3734
  102OSM   C18F10367   1.748   4.199   8.429  0.9739  0.2285  0.3545
  102OSM   H18F10368   1.754   4.307   8.453 -1.3426  0.1256  1.7271
  102OSM   H18G10369   1.640   4.172   8.426  0.5890  1.7351 -2.2164
  102OSM   H18H10370   1.777   4.195   8.322  1.3379 -0.8268  0.4834
  103OSM      N10371   5.829   0.698  10.917  0.6036 -0.5311 -0.4496
  103OSM    C1510372   5.697   0.756  10.891 -0.2326  0.0266  0.6194
  103OSM   H15A10373   5.650   0.775  10.987 -2.4212 -0.2295 -0.3447
  103OSM   H15B10374   5.629   0.700  10.828 -0.9230  0.8666  0.5943
  103OSM   H15C10375   5.703   0.851  10.840 -2.0854  0.1842  0.6251
  103OSM    C1410376   5.906   0.791  11.003  0.2229 -0.2682  0.0302
  103OSM   H14A10377   5.995   0.742  11.039  0.2561 -0.9117 -0.8918
  103OSM   H14B10378   5.842   0.824  11.084  0.7503 -2.7507  1.5447
  103OSM   H14C10379   5.936   0.874  10.940 -0.8838  1.1206  1.2567
  103OSM    C1310380   5.815   0.570  10.991  0.8486 -0.3779 -0.2762
  103OSM   H13A10381   5.766   0.499  10.926  0.2342  0.4324 -0.7005
  103OSM   H13B10382   5.745   0.582  11.072  1.4033  0.3157  0.1162
  103OSM   H13C10383   5.910   0.535  11.028 -0.6172 -2.8848  1.4280
  103OSM    C1210384   5.907   0.673  10.792  0.6661 -0.2257 -0.8810
  103OSM   H12A10385   6.013   0.668  10.814  0.3554 -1.3493  0.4674
  103OSM   H12B10386   5.917   0.756  10.724  4.6515 -0.3826 -0.7595
  103OSM    C1110387   5.867   0.556  10.703  0.4707  0.3995 -0.1028
  103OSM   H11A10388   5.896   0.470  10.766  1.5126 -0.1593 -1.3096
  103OSM   H11B10389   5.928   0.537  10.612 -2.2411  0.3592 -2.0334
  103OSM      P10390   5.640   0.419  10.691  0.2039 -0.2636 -0.1000
  103OSM    O1310391   5.736   0.307  10.670 -0.2157 -0.1979 -0.1934
  103OSM    O1410392   5.578   0.441  10.826 -0.0953 -0.0705  0.0251
  103OSM    O1110393   5.530   0.421  10.577  0.3160 -0.1058 -0.4012
  103OSM    O1210394   5.729   0.546  10.659 -0.2675  0.4032 -0.0556
  103OSM    C1S10395   5.511   0.529  10.484 -0.2023  0.1252  0.3401
  103OSM    H1S10396   5.564   0.623  10.509  1.2406 -0.0426 -1.8338
  103OSM    H1T10397   5.402   0.553  10.488 -0.4964 -0.3763 -2.6615
  103OSM     NF10398   5.535   0.595  10.243  0.3455 -0.6222  0.2335
  103OSM    HNF10399   5.457   0.602  10.181  1.5939 -0.0322 -1.3331
  103OSM    C2S10400   5.539   0.481  10.337 -0.6353 -0.4353  0.0336
  103OSM    H2S10401   5.640   0.436  10.332 -1.3231 -1.8815 -1.9062
  103OSM    C3S10402   5.455   0.364  10.291 -0.4690 -0.8736 -0.1615
  103OSM    H3S10403   5.353   0.408  10.283  0.5367  1.5386 -0.6674
  103OSM     O310404   5.455   0.260  10.385 -0.0011  0.1195 -0.2009
  103OSM    HO310405   5.483   0.310  10.462 -0.8172  1.9935 -1.0586
  103OSM    C4S10406   5.492   0.309  10.153  0.5063 -0.5200 -0.3237
  103OSM    H4S10407   5.438   0.342  10.063  1.8218 -0.2831 -1.0575
  103OSM    C5S10408   5.586   0.217  10.142 -0.6780 -0.2294  0.2053
  103OSM    H5S10409   5.631   0.176  10.233  0.1889 -2.1182 -0.9943
  103OSM    C6S10410   5.631   0.136  10.016 -0.0667 -0.1960  0.3276
  103OSM    H6S10411   5.611   0.029  10.036  1.0180 -0.3960  0.3943
  103OSM    H6T10412   5.742   0.142  10.010 -0.1221 -0.5209 -1.6526
  103OSM    C7S10413   5.560   0.194   9.899  0.8505 -0.6722  0.1976
  103OSM    H7S10414   5.588   0.301   9.888  2.5299 -0.8636  2.0816
  103OSM    H7T10415   5.449   0.201   9.910  0.3281 -0.2159 -3.8267
  103OSM    C8S10416   5.591   0.135   9.767  0.6224 -0.2943 -0.2432
  103OSM    H8S10417   5.561   0.029   9.759 -0.0492  0.0180 -2.7668
  103OSM    H8T10418   5.700   0.129   9.751  0.4885 -3.9489 -0.4174
  103OSM    C9S10419   5.524   0.229   9.657 -0.8700  0.1229  0.2917
  103OSM    H9S10420   5.571   0.330   9.666 -0.4387  0.1431 -1.6379
  103OSM    H9T10421   5.414   0.237   9.667 -1.2130 -0.3796 -2.3648
  103OSM   C10S10422   5.548   0.167   9.517 -1.1771  0.2065  0.5347
  103OSM   H10S10423   5.479   0.082   9.499  1.0033 -1.8266  1.2886
  103OSM   H10T10424   5.649   0.121   9.514 -0.0147  2.6582  0.0359
  103OSM   C11S10425   5.544   0.255   9.396 -0.0821 -0.6867 -0.2533
  103OSM   H11S10426   5.641   0.308   9.380 -0.3011 -0.4140 -0.7059
  103OSM   H11T10427   5.464   0.331   9.390  1.1757  0.5975 -1.6073
  103OSM   C12S10428   5.526   0.179   9.264  0.6696 -0.2055  0.2958
  103OSM   H12S10429   5.432   0.121   9.260  0.5246 -0.0099  0.7300
  103OSM   H12T10430   5.616   0.114   9.251  0.8459 -0.1490  1.1698
  103OSM   C13S10431   5.537   0.272   9.139  0.4461 -0.3735  0.3996
  103OSM   H13S10432   5.620   0.343   9.157 -0.1691  0.8672 -1.3596
  103OSM   H13T10433   5.443   0.331   9.145 -0.1038 -0.8476 -2.1308
  103OSM   C14S10434   5.562   0.206   9.003  0.3090  0.2722 -0.0752
  103OSM   H14S10435   5.481   0.129   8.994  1.1333 -0.6328  0.0281
  103OSM   H14T10436   5.663   0.160   8.999  0.2955  0.3072 -1.4929
  103OSM   C15S10437   5.560   0.306   8.885  1.5662  0.0347 -0.1124
  103OSM   H15S10438   5.651   0.368   8.888  1.8480 -0.4168  1.0174
  103OSM   H15T10439   5.466   0.364   8.895  2.8265  2.6622 -2.2259
  103OSM   C16S10440   5.555   0.236   8.745  0.1126  0.2411  0.2387
  103OSM   H16S10441   5.541   0.319   8.672  0.1245  1.9977  2.1497
  103OSM   H16T10442   5.473   0.162   8.739 -1.2255  1.8026 -2.4354
  103OSM   C17S10443   5.692   0.168   8.699  0.5239  0.5635 -0.2490
  103OSM   H17S10444   5.693   0.078   8.764 -0.3193 -1.3245 -2.6755
  103OSM   H17T10445   5.780   0.232   8.725  0.3890  0.0145  1.6608
  103OSM   C18S10446   5.690   0.131   8.550  0.2640  0.2545 -0.2760
  103OSM   H18S10447   5.674   0.213   8.477  1.8469 -0.3827 -1.3848
  103OSM   H18T10448   5.602   0.066   8.531  0.0451  0.4223  0.1539
  103OSM   H18U10449   5.780   0.074   8.517 -0.0569 -0.3663 -0.1137
  103OSM    C1F10450   5.624   0.692  10.248 -0.8034  0.3604  0.1496
  103OSM     OF10451   5.729   0.684  10.311 -0.5706 -0.1222  0.0980
  103OSM    C2F10452   5.593   0.815  10.166  0.4858  0.1305 -0.7090
  103OSM    H2F10453   5.621   0.908  10.219 -0.6391 -0.3977  0.8744
  103OSM    H2G10454   5.483   0.820  10.151  0.7547  0.7229 -2.7933
  103OSM    C3F10455   5.652   0.789  10.028 -0.2441  0.0607 -0.6470
  103OSM    H3F10456   5.608   0.701   9.977 -0.7157 -0.9886  1.4426
  103OSM    H3G10457   5.762   0.773  10.029 -0.4438 -1.5819  1.0119
  103OSM    C4F10458   5.634   0.899   9.922 -0.2969  0.1285  0.5222
  103OSM    H4F10459   5.663   0.999   9.963 -0.6287  2.0711 -3.4573
  103OSM    H4G10460   5.525   0.906   9.907 -0.2085  1.0622  0.2525
  103OSM    C5F10461   5.694   0.877   9.788 -0.9394  0.3531  0.0593
  103OSM    H5F10462   5.656   0.775   9.765 -0.6160  0.0111  0.9883
  103OSM    H5G10463   5.803   0.856   9.789 -1.0244 -0.1321 -0.4384
  103OSM    C6F10464   5.657   0.984   9.686 -0.1206 -0.3592  0.5970
  103OSM    H6F10465   5.715   1.076   9.711 -0.0384 -0.3744  0.4655
  103OSM    H6G10466   5.551   1.017   9.681 -0.3096 -1.1956 -2.4221
  103OSM    C7F10467   5.701   0.938   9.543 -0.6395 -0.4628 -0.0361
  103OSM    H7F10468   5.681   0.829   9.540 -1.8408 -0.2985  1.0267
  103OSM    H7G10469   5.810   0.957   9.535 -0.5085 -0.3338  1.7079
  103OSM    C8F10470   5.621   1.009   9.439 -0.2221  0.2078  0.6502
  103OSM    H8F10471   5.515   1.010   9.472  0.1582 -1.9791  2.1620
  103OSM    H8G10472   5.621   0.939   9.352 -1.3282  0.8750  0.0997
  103OSM    C9F10473   5.671   1.144   9.395  0.4505  0.7094 -0.7382
  103OSM    H9F10474   5.690   1.210   9.481 -0.9087 -2.5692  2.3402
  103OSM   C10F10475   5.707   1.190   9.274  0.6408  1.2682  0.4298
  103OSM   H10F10476   5.734   1.296   9.265  1.4280  1.1826  1.4861
  103OSM   C11F10477   5.701   1.118   9.140 -0.0384  0.5032 -0.1516
  103OSM   H11F10478   5.605   1.066   9.124 -0.0692  1.0368 -1.9734
  103OSM   H11G10479   5.783   1.043   9.136 -0.6076 -0.2320  1.3957
  103OSM   C12F10480   5.725   1.221   9.023  0.3014  0.6989 -0.5135
  103OSM   H12F10481   5.820   1.278   9.035  1.0466 -0.5362 -0.3140
  103OSM   H12G10482   5.644   1.297   9.028  1.0339  1.4210  2.2239
  103OSM   C13F10483   5.712   1.149   8.893  0.1999 -0.0386  1.0099
  103OSM   H13F10484   5.627   1.078   8.900 -1.5201  1.9521  1.2618
  103OSM   H13G10485   5.805   1.090   8.878  1.3854  1.3781  2.4875
  103OSM   C14F10486   5.696   1.247   8.776 -0.3674  0.1513 -0.4960
  103OSM   H14F10487   5.758   1.339   8.785 -2.0791  1.3513 -0.4174
  103OSM   H14G10488   5.593   1.287   8.793 -0.5138 -1.0761  1.8946
  103OSM   C15F10489   5.693   1.184   8.634 -0.2374  0.0777 -0.0960
  103OSM   H15F10490   5.605   1.117   8.622 -0.4618  0.5371 -1.2017
  103OSM   H15G10491   5.793   1.143   8.610 -0.4601 -0.2179 -0.5411
  103OSM   C16F10492   5.686   1.299   8.546 -0.3099  0.8775 -0.5225
  103OSM   H16F10493   5.771   1.366   8.570  0.5154 -0.0576 -0.7409
  103OSM   H16G10494   5.592   1.357   8.554  0.5329  2.1775  0.2812
  103OSM   C17F10495   5.696   1.251   8.405 -0.5258  0.1095  0.1212
  103OSM   H17F10496   5.625   1.168   8.384 -0.5037  0.4185 -1.2250
  103OSM   H17G10497   5.795   1.210   8.375  0.0214  0.5785  1.2131
  103OSM   C18F10498   5.671   1.368   8.315  0.6068 -0.6266 -0.4142
  103OSM   H18F10499   5.670   1.329   8.211  1.1371  0.6097 -0.8989
  103OSM   H18G10500   5.755   1.440   8.321  1.8369 -1.8807 -1.6894
  103OSM   H18H10501   5.574   1.412   8.347  0.6538  0.2576 -1.4029
  104OSM      N10502   1.798   6.485  11.163  0.2574  0.6422 -0.8945
  104OSM    C1510503   1.671   6.555  11.126  0.5173  0.0820 -0.3142
  104OSM   H15A10504   1.678   6.662  11.136  2.4342 -0.0238 -0.1484
  104OSM   H15B10505   1.585   6.512  11.176  0.5516  0.0476 -0.2835
  104OSM   H15C10506   1.651   6.534  11.022 -0.4492 -0.5097 -0.0188
  104OSM    C1410507   1.839   6.537  11.298  1.0028 -0.0980 -0.0621
  104OSM   H14A10508   1.856   6.642  11.278  0.5184 -0.1242 -0.6470
  104OSM   H14B10509   1.925   6.493  11.346  0.4257  0.3309  1.4094
  104OSM   H14C10510   1.760   6.520  11.369  4.0503 -3.6335  2.9112
  104OSM    C1310511   1.775   6.344  11.174 -0.2237 -0.3372  0.1462
  104OSM   H13A10512   1.700   6.306  11.242 -1.8726  2.8394  0.2737
  104OSM   H13B10513   1.868   6.299  11.204 -1.0041 -0.9643  1.7511
  104OSM   H13C10514   1.750   6.313  11.074 -1.1500  1.1027 -0.0903
  104OSM    C1210515   1.904   6.511  11.061 -0.2624  0.2151  0.3528
  104OSM   H12A10516   2.001   6.471  11.088  0.0876  1.6166  1.2741
  104OSM   H12B10517   1.917   6.619  11.060 -0.4900  0.2495 -1.0902
  104OSM    C1110518   1.877   6.482  10.910  0.6009 -0.0620  1.1504
  104OSM   H11A10519   1.854   6.374  10.903 -3.0395  0.6292 -0.2246
  104OSM   H11B10520   1.965   6.506  10.847 -0.5747 -0.4001 -0.7070
  104OSM      P10521   1.770   6.710  10.827  0.1384  0.1803  0.3216
  104OSM    O1310522   1.634   6.771  10.846 -0.2044  0.3654 -0.6834
  104OSM    O1410523   1.880   6.768  10.911  0.0109 -0.0166 -0.0409
  104OSM    O1110524   1.806   6.712  10.667  0.8327  0.3170  0.1451
  104OSM    O1210525   1.762   6.554  10.856  0.6567 -0.2495 -0.5736
  104OSM    C1S10526   1.702   6.661  10.580  1.0613  0.0240 -0.1123
  104OSM    H1S10527   1.631   6.743  10.556 -2.2965 -1.7316  2.8459
  104OSM    H1T10528   1.642   6.588  10.639  1.2059  0.3117  0.3967
  104OSM     NF10529   1.649   6.572  10.353 -1.0499 -0.0553 -0.0162
  104OSM    HNF10530   1.623   6.478  10.333  0.5158  0.0387 -3.0553
  104OSM    C2S10531   1.756   6.603  10.454 -0.0848 -0.5452  0.0957
  104OSM    H2S10532   1.825   6.676  10.406  0.5546  0.1569  2.0024
  104OSM    C3S10533   1.836   6.473  10.495  0.2708 -0.1537  0.0670
  104OSM    H3S10534   1.770   6.399  10.545 -0.9653  1.0254  0.2747
  104OSM     O310535   1.937   6.501  10.594  0.2479  0.1071  0.2921
  104OSM    HO310536   1.922   6.596  10.598 -3.5322 -0.2864 -0.8806
  104OSM    C4S10537   1.887   6.404  10.373  0.4183 -0.5695 -0.1575
  104OSM    H4S10538   1.810   6.348  10.318 -2.2405  2.8409 -0.2791
  104OSM    C5S10539   2.011   6.401  10.327  0.3369 -0.1489 -0.2024
  104OSM    H5S10540   2.096   6.446  10.380  1.4405 -1.3809 -0.8641
  104OSM    C6S10541   2.049   6.327  10.204  0.1201  0.4791 -0.5550
  104OSM    H6S10542   1.960   6.282  10.155  1.8844 -0.8245 -2.7386
  104OSM    H6T10543   2.105   6.234  10.225 -0.7227  0.1624  0.3979
  104OSM    C7S10544   2.095   6.410  10.082 -0.3128  0.5504  0.1193
  104OSM    H7S10545   2.018   6.487  10.060 -0.5105  0.7472  1.4198
  104OSM    H7T10546   2.110   6.344   9.994 -0.8749  0.7687 -0.1436
  104OSM    C8S10547   2.229   6.491  10.084 -0.4287 -0.2050 -0.0644
  104OSM    H8S10548   2.229   6.549  10.179  2.9047 -3.1748  1.9960
  104OSM    H8T10549   2.223   6.559   9.996  1.1212  1.2138  0.8583
  104OSM    C9S10550   2.356   6.409  10.089 -0.6540  0.1063 -0.3423
  104OSM    H9S10551   2.370   6.368  10.191  2.5978 -1.0606 -1.1239
  104OSM    H9T10552   2.438   6.481  10.073 -1.8867  1.4961 -0.6149
  104OSM   C10S10553   2.375   6.292   9.985 -0.3550  0.2653 -0.2996
  104OSM   H10S10554   2.319   6.199  10.006  0.0516 -0.2959 -1.6198
  104OSM   H10T10555   2.483   6.268   9.994 -0.6848 -2.5513 -2.4012
  104OSM   C11S10556   2.354   6.342   9.836 -0.0029  0.0778 -0.0030
  104OSM   H11S10557   2.455   6.371   9.800  0.3288 -0.9782  0.0425
  104OSM   H11T10558   2.289   6.431   9.844 -1.1036 -0.6865 -0.2893
  104OSM   C12S10559   2.290   6.258   9.731 -0.1166  0.8403 -0.2369
  104OSM   H12S10560   2.198   6.223   9.781  0.1622 -0.1291 -0.3869
  104OSM   H12T10561   2.362   6.173   9.727  1.2053  1.9263 -0.3526
  104OSM   C13S10562   2.262   6.317   9.593 -0.1368 -0.1307  0.0332
  104OSM   H13S10563   2.166   6.373   9.597 -1.3444 -1.9770 -1.2166
  104OSM   H13T10564   2.233   6.235   9.524  0.4448  1.2412 -1.9345
  104OSM   C14S10565   2.376   6.401   9.535 -0.3544 -0.4804 -0.1060
  104OSM   H14S10566   2.442   6.430   9.620 -1.1512  1.3595 -0.0715
  104OSM   H14T10567   2.348   6.505   9.509  0.5238 -0.5148 -1.2794
  104OSM   C15S10568   2.465   6.343   9.420 -0.4046 -0.5504  0.2639
  104OSM   H15S10569   2.535   6.266   9.459 -1.3887 -1.3717  0.4457
  104OSM   H15T10570   2.523   6.428   9.378 -2.7991  1.5698  0.9363
  104OSM   C16S10571   2.376   6.278   9.315 -0.3019  0.6558  0.4318
  104OSM   H16S10572   2.291   6.349   9.306 -1.2339 -0.2394  1.7720
  104OSM   H16T10573   2.340   6.179   9.350 -0.6219  0.4663 -0.4015
  104OSM   C17S10574   2.435   6.281   9.178 -0.5983  0.2837  0.1843
  104OSM   H17S10575   2.542   6.254   9.177 -0.3552  1.1256  1.2366
  104OSM   H17T10576   2.419   6.387   9.150 -1.2764  0.4344  1.1000
  104OSM   C18S10577   2.355   6.195   9.069  0.4344 -0.5567  0.2123
  104OSM   H18S10578   2.367   6.227   8.963  1.9310 -0.3084  0.4412
  104OSM   H18T10579   2.250   6.202   9.105  0.8856  1.1890  1.3371
  104OSM   H18U10580   2.381   6.088   9.066  0.6645 -0.5390  1.3487
  104OSM    C1F10581   1.587   6.663  10.287 -0.7674 -1.1841  0.8950
  104OSM     OF10582   1.620   6.781  10.289 -0.0857 -0.4228  0.0472
  104OSM    C2F10583   1.460   6.614  10.215 -0.7181 -0.1242  0.6226
  104OSM    H2F10584   1.376   6.616  10.287  0.1621  1.4996  1.6558
  104OSM    H2G10585   1.468   6.516  10.163 -2.3430  0.8554 -1.6206
  104OSM    C3F10586   1.405   6.721  10.114 -0.0261  0.1026  0.0026
  104OSM    H3F10587   1.411   6.817  10.169  1.4215  0.6420 -1.0509
  104OSM    H3G10588   1.298   6.701  10.091  0.2397 -0.9042 -0.4060
  104OSM    C4F10589   1.495   6.733   9.983  0.1908  0.9083 -0.2022
  104OSM    H4F10590   1.597   6.760  10.019 -0.3823  1.3196  1.1818
  104OSM    H4G10591   1.470   6.820   9.918 -2.2015  0.7975  0.5034
  104OSM    C5F10592   1.507   6.602   9.905  0.2209  0.9593 -0.4400
  104OSM    H5F10593   1.402   6.580   9.875  0.5222  1.2109 -1.7407
  104OSM    H5G10594   1.551   6.514   9.956  1.5995  0.4516 -2.3667
  104OSM    C6F10595   1.601   6.609   9.785 -1.1629 -0.3012 -0.1961
  104OSM    H6F10596   1.705   6.630   9.815 -1.2616 -0.5314  0.3071
  104OSM    H6G10597   1.570   6.704   9.736  3.0243  1.6231  0.4602
  104OSM    C7F10598   1.592   6.495   9.687  0.4147  0.7702 -0.9431
  104OSM    H7F10599   1.612   6.400   9.743  0.1694  1.2058 -0.1020
  104OSM    H7G10600   1.676   6.505   9.615 -1.4590  0.0988 -3.3462
  104OSM    C8F10601   1.461   6.492   9.606  0.3470 -0.1713  0.1287
  104OSM    H8F10602   1.375   6.467   9.672  0.4499 -0.3014  0.2135
  104OSM    H8G10603   1.463   6.413   9.528  1.5092  0.4717 -0.5222
  104OSM    C9F10604   1.431   6.626   9.536  0.2122  0.3202  0.1955
  104OSM    H9F10605   1.375   6.688   9.607 -2.1715  0.8389 -1.9864
  104OSM   C10F10606   1.448   6.657   9.410  0.2664 -0.0209  0.2916
  104OSM   H10F10607   1.422   6.754   9.365  1.0337  0.3891  0.6993
  104OSM   C11F10608   1.503   6.574   9.303 -0.0555  0.0579 -0.5470
  104OSM   H11F10609   1.473   6.467   9.312  0.2565  0.0843  0.9773
  104OSM   H11G10610   1.613   6.586   9.313 -0.1890  1.6227 -0.6850
  104OSM   C12F10611   1.467   6.598   9.159 -0.1886  0.2273 -0.2038
  104OSM   H12F10612   1.503   6.700   9.136  0.9354 -0.0286  0.3650
  104OSM   H12G10613   1.360   6.594   9.129  0.1544 -0.9446 -1.3715
  104OSM   C13F10614   1.534   6.504   9.055  0.0809 -1.4241 -0.0686
  104OSM   H13F10615   1.502   6.398   9.053 -1.3514 -0.9982 -0.6411
  104OSM   H13G10616   1.644   6.503   9.074 -0.2415  0.1969  2.3036
  104OSM   C14F10617   1.513   6.567   8.907  0.1026 -1.0752 -0.7635
  104OSM   H14F10618   1.548   6.672   8.899  1.3282 -1.0767  2.8015
  104OSM   H14G10619   1.402   6.561   8.894  0.0238  0.5731 -1.1329
  104OSM   C15F10620   1.577   6.473   8.805 -0.2624  0.3807  0.1884
  104OSM   H15F10621   1.526   6.376   8.818 -0.7101  0.6626  0.5730
  104OSM   H15G10622   1.685   6.463   8.832 -0.0269  3.2657  0.6611
  104OSM   C16F10623   1.553   6.527   8.671  0.0903 -0.4927  0.1073
  104OSM   H16F10624   1.603   6.625   8.664 -1.8616  0.5204 -0.2491
  104OSM   H16G10625   1.444   6.545   8.661 -0.3003 -2.5934  0.0578
  104OSM   C17F10626   1.617   6.439   8.557 -0.2676  0.3194 -0.5471
  104OSM   H17F10627   1.614   6.331   8.583  0.7322  1.0370  3.1145
  104OSM   H17G10628   1.725   6.465   8.554  0.0981 -0.9787  0.6599
  104OSM   C18F10629   1.557   6.456   8.415 -0.1443 -0.4924 -0.3693
  104OSM   H18F10630   1.596   6.554   8.381 -1.3502 -0.1716 -0.8778
  104OSM   H18G10631   1.447   6.459   8.401 -0.0773 -0.6090 -0.9615
  104OSM   H18H10632   1.604   6.376   8.352 -0.0478 -0.8167  0.1062
  105OSM      N10633   3.379   0.375  10.937 -0.5655  0.7074 -0.3339
  105OSM    C1510634   3.379   0.279  10.823  0.3089  0.0356  0.4589
  105OSM   H15A10635   3.451   0.293  10.743 -0.7657  0.2628 -0.4909
  105OSM   H15B10636   3.280   0.280  10.781  0.3145  0.0361  0.4451
  105OSM   H15C10637   3.392   0.181  10.866 -1.4159  0.1883  1.3895
  105OSM    C1410638   3.267   0.339  11.032 -0.3060 -0.4866  0.5146
  105OSM   H14A10639   3.282   0.246  11.085 -2.0949 -2.0258 -1.5096
  105OSM   H14B10640   3.173   0.334  10.979 -0.2971  2.0025  0.1312
  105OSM   H14C10641   3.246   0.403  11.117 -0.2280 -0.7356  0.7213
  105OSM    C1310642   3.507   0.354  11.009 -0.4517  0.2502  0.3744
  105OSM   H13A10643   3.515   0.252  11.045  2.8520  0.4937  0.6683
  105OSM   H13B10644   3.521   0.423  11.091 -1.3164  1.1681 -0.2306
  105OSM   H13C10645   3.593   0.356  10.943 -1.6993  0.3645 -1.3156
  105OSM    C1210646   3.355   0.515  10.886  0.6760 -0.3693 -0.2386
  105OSM   H12A10647   3.332   0.580  10.969 -0.4851 -1.8812  0.6988
  105OSM   H12B10648   3.257   0.519  10.841  0.4777 -1.6443  0.0409
  105OSM    C1110649   3.452   0.581  10.794 -0.5315  0.0269 -0.0055
  105OSM   H11A10650   3.417   0.678  10.753 -1.7596  0.2983  1.6006
  105OSM   H11B10651   3.474   0.505  10.717  1.1753 -0.5026  0.9464
  105OSM      P10652   3.720   0.597  10.832  0.1563 -0.1801 -0.3436
  105OSM    O1310653   3.798   0.717  10.806 -0.1670 -0.7454  0.1853
  105OSM    O1410654   3.776   0.511  10.940  0.0138 -0.4194 -0.6676
  105OSM    O1110655   3.722   0.520  10.695 -0.2113 -0.3733  0.1363
  105OSM    O1210656   3.566   0.622  10.869 -0.3576  0.1919 -0.3290
  105OSM    C1S10657   3.700   0.579  10.566 -0.0519  0.2553  0.1069
  105OSM    H1S10658   3.782   0.651  10.544  0.7928 -1.5421 -3.3148
  105OSM    H1T10659   3.599   0.625  10.561 -0.0054  0.3174 -0.3366
  105OSM     NF10660   3.709   0.534  10.327  0.2749 -0.1358 -1.0503
  105OSM    HNF10661   3.620   0.571  10.301 -0.5243 -0.6715  0.7692
  105OSM    C2S10662   3.717   0.469  10.455 -0.0362  0.3792 -0.7824
  105OSM    H2S10663   3.816   0.420  10.467  0.0935  0.2667 -2.1598
  105OSM    C3S10664   3.607   0.359  10.460  0.5469 -0.3490  0.0881
  105OSM    H3S10665   3.509   0.408  10.437  1.2255  0.2520 -1.7855
  105OSM     O310666   3.591   0.294  10.591 -0.1205  0.0180  0.2790
  105OSM    HO310667   3.623   0.360  10.653  1.5168 -0.9052  0.4764
  105OSM    C4S10668   3.633   0.255  10.354  0.2218 -0.6958 -0.9050
  105OSM    H4S10669   3.736   0.216  10.356 -0.2567 -1.9985 -0.9152
  105OSM    C5S10670   3.545   0.218  10.264 -0.0368  0.2956  0.3326
  105OSM    H5S10671   3.441   0.253  10.268 -0.0770  0.4516 -1.3551
  105OSM    C6S10672   3.579   0.113  10.159 -0.0531  0.3421 -0.5838
  105OSM    H6S10673   3.567   0.007  10.186  0.1489  0.6458  0.7495
  105OSM    H6T10674   3.686   0.117  10.128 -0.4493 -0.5279 -2.1464
  105OSM    C7S10675   3.500   0.124  10.027  0.2786  0.0297 -0.1942
  105OSM    H7S10676   3.390   0.114  10.037  0.0411  0.1219 -2.2309
  105OSM    H7T10677   3.531   0.042   9.959 -0.3702  1.0230 -1.7611
  105OSM    C8S10678   3.537   0.251   9.948  0.0402 -0.1999  0.3796
  105OSM    H8S10679   3.645   0.274   9.959  0.2147 -1.4724  1.6116
  105OSM    H8T10680   3.499   0.341  10.002  1.6025  0.0972  1.0383
  105OSM    C9S10681   3.493   0.239   9.800  0.0971 -0.2395  0.3485
  105OSM    H9S10682   3.392   0.199   9.777  0.9921 -2.0287 -0.6504
  105OSM    H9T10683   3.559   0.163   9.754 -0.7814  0.1021 -1.5949
  105OSM   C10S10684   3.517   0.379   9.739 -0.1776 -0.8516 -0.2096
  105OSM   H10S10685   3.622   0.411   9.758 -0.4957  0.3587 -0.3825
  105OSM   H10T10686   3.448   0.457   9.777  0.2511 -0.0851 -0.9471
  105OSM   C11S10687   3.495   0.368   9.585  0.3470  0.0568 -0.0457
  105OSM   H11S10688   3.390   0.337   9.566 -0.0902  0.7723  1.1772
  105OSM   H11T10689   3.571   0.299   9.541 -2.0277 -0.5095 -3.7571
  105OSM   C12S10690   3.507   0.504   9.512 -0.1314  0.1720  0.0052
  105OSM   H12S10691   3.579   0.567   9.568 -0.6530  0.4882  0.3330
  105OSM   H12T10692   3.406   0.551   9.524  0.4581  1.3647  0.4894
  105OSM   C13S10693   3.541   0.493   9.366 -0.2334  0.2056 -0.7011
  105OSM   H13S10694   3.646   0.456   9.361 -0.0811  0.6928 -1.3635
  105OSM   H13T10695   3.552   0.594   9.320 -1.5779  0.6411 -0.1063
  105OSM   C14S10696   3.442   0.411   9.290 -0.5222  0.6056 -0.6027
  105OSM   H14S10697   3.344   0.454   9.321 -0.6080  0.5692 -0.8242
  105OSM   H14T10698   3.449   0.311   9.337  2.8546  1.2065  0.4860
  105OSM   C15S10699   3.461   0.415   9.140  0.7485 -0.2117 -0.2425
  105OSM   H15S10700   3.566   0.390   9.113  1.8505  2.4731  1.1704
  105OSM   H15T10701   3.439   0.518   9.104  1.2494  0.7602  2.0428
  105OSM   C16S10702   3.376   0.293   9.089  0.2006  0.1583 -0.2697
  105OSM   H16S10703   3.273   0.325   9.119  1.1931  1.8095  1.6575
  105OSM   H16T10704   3.407   0.197   9.135  1.3410  0.7878  0.3051
  105OSM   C17S10705   3.365   0.282   8.935 -0.1914  0.1303  0.2562
  105OSM   H17S10706   3.295   0.199   8.912  2.2114 -1.7732 -0.6507
  105OSM   H17T10707   3.467   0.253   8.902  0.1995  0.8379  0.8177
  105OSM   C18S10708   3.328   0.401   8.853  0.2560 -0.2170 -0.3385
  105OSM   H18S10709   3.298   0.371   8.751  0.3273 -0.1082 -0.3899
  105OSM   H18T10710   3.400   0.485   8.864 -0.9823  0.7796  0.4993
  105OSM   H18U10711   3.239   0.445   8.903  1.2431  0.5954  0.7683
  105OSM    C1F10712   3.812   0.588  10.262  0.5414  0.0041  0.3148
  105OSM     OF10713   3.922   0.597  10.314 -0.0176 -0.1326  0.2611
  105OSM    C2F10714   3.774   0.648  10.124  0.2727 -0.0862  0.3707
  105OSM    H2F10715   3.736   0.751  10.137 -2.6317 -1.0252  0.1597
  105OSM    H2G10716   3.685   0.592  10.086 -0.0650  1.7802 -1.7571
  105OSM    C3F10717   3.892   0.637  10.040 -0.1919 -0.2847  0.3495
  105OSM    H3F10718   3.926   0.534  10.018 -0.1053 -0.6176  1.9251
  105OSM    H3G10719   3.977   0.698  10.077 -0.6406  0.8495 -0.4511
  105OSM    C4F10720   3.861   0.700   9.901 -0.6859 -0.1007  0.9814
  105OSM    H4F10721   3.845   0.810   9.910  1.8307  0.3372  0.8954
  105OSM    H4G10722   3.766   0.656   9.864 -0.1840  0.4120 -1.0578
  105OSM    C5F10723   3.972   0.675   9.793 -0.4997  0.1227 -1.0624
  105OSM    H5F10724   4.057   0.631   9.850 -2.2235  1.1088  2.5253
  105OSM    H5G10725   4.005   0.768   9.743  2.8236  1.2297  2.6804
  105OSM    C6F10726   3.924   0.571   9.694 -0.1084 -0.2824  0.1646
  105OSM    H6F10727   3.865   0.500   9.755 -2.2405  1.5703  0.3835
  105OSM    H6G10728   4.008   0.508   9.657  0.5138 -0.7817  2.2690
  105OSM    C7F10729   3.831   0.615   9.581 -0.6196 -0.2667 -1.2182
  105OSM    H7F10730   3.743   0.662   9.631 -0.4423  0.0781 -1.2313
  105OSM    H7G10731   3.802   0.525   9.523  2.2856 -0.7712 -2.0090
  105OSM    C8F10732   3.900   0.710   9.480 -0.1685 -0.2832  0.6113
  105OSM    H8F10733   3.982   0.659   9.425  0.2069  1.2939 -0.3547
  105OSM    H8G10734   3.929   0.796   9.544 -0.8951  0.4557 -0.0311
  105OSM    C9F10735   3.792   0.767   9.390  0.4226 -0.0274 -0.0535
  105OSM    H9F10736   3.714   0.834   9.428 -0.3452 -0.0646 -1.5022
  105OSM   C10F10737   3.795   0.736   9.257  0.0691  0.7921  0.0464
  105OSM   H10F10738   3.718   0.776   9.189 -2.2919 -1.9114  0.9351
  105OSM   C11F10739   3.900   0.646   9.199  0.1095 -0.1594  0.8253
  105OSM   H11F10740   3.933   0.565   9.267 -0.6756 -0.7578  0.5147
  105OSM   H11G10741   3.991   0.708   9.182  0.0901 -0.2780  0.2749
  105OSM   C12F10742   3.859   0.576   9.065  0.6815  0.1461  0.3117
  105OSM   H12F10743   3.767   0.514   9.075  0.1238  0.4692 -2.1580
  105OSM   H12G10744   3.941   0.509   9.031  1.0094  0.7614 -0.1314
  105OSM   C13F10745   3.839   0.683   8.950 -0.0925  0.6072 -0.2398
  105OSM   H13F10746   3.943   0.724   8.951 -0.0292  0.5331 -2.0099
  105OSM   H13G10747   3.772   0.767   8.980 -0.4027  0.8801 -1.6461
  105OSM   C14F10748   3.795   0.630   8.818  0.5067 -0.4565  0.0111
  105OSM   H14F10749   3.860   0.542   8.799  1.6416  0.5079 -0.6486
  105OSM   H14G10750   3.828   0.711   8.750  2.0318  0.4311  1.7419
  105OSM   C15F10751   3.654   0.600   8.804  0.0917 -0.2441  0.1623
  105OSM   H15F10752   3.589   0.682   8.841 -0.3075  0.1446 -1.3446
  105OSM   H15G10753   3.627   0.510   8.863 -0.2958  0.7929  1.6052
  105OSM   C16F10754   3.600   0.578   8.661  0.3562  0.0451  0.0509
  105OSM   H16F10755   3.611   0.672   8.603  0.7706  0.1041  0.2199
  105OSM   H16G10756   3.490   0.567   8.668  0.4594  0.0888  3.2632
  105OSM   C17F10757   3.643   0.453   8.583  0.3148 -0.5387  0.3883
  105OSM   H17F10758   3.613   0.361   8.636 -1.4128  0.0898  0.5561
  105OSM   H17G10759   3.755   0.451   8.579  0.2867 -2.0719 -0.7165
  105OSM   C18F10760   3.587   0.460   8.437 -0.4434  0.1227 -1.0692
  105OSM   H18F10761   3.571   0.565   8.405 -1.0745  0.8136  1.3128
  105OSM   H18G10762   3.489   0.410   8.424  0.3536 -1.6766 -0.6151
  105OSM   H18H10763   3.650   0.412   8.359  0.7598 -2.1184  1.1173
  106OSM      N10764   2.922   2.137  11.015 -0.1203 -0.2311 -0.1310
  106OSM    C1510765   2.941   2.248  11.115 -0.0484  0.2614 -0.5075
  106OSM   H15A10766   2.874   2.232  11.198 -2.3662 -1.7520 -2.6082
  106OSM   H15B10767   2.919   2.346  11.076 -1.9734 -0.2731 -0.8927
  106OSM   H15C10768   3.036   2.264  11.164 -2.2354 -0.0474  4.4849
  106OSM    C1410769   2.965   2.005  11.081 -0.8326 -0.1649 -0.3730
  106OSM   H14A10770   2.898   1.984  11.163 -1.2048 -0.1383 -0.6686
  106OSM   H14B10771   3.067   2.009  11.116 -1.4294 -1.7641  1.7329
  106OSM   H14C10772   2.964   1.927  11.006  0.6714  0.8994 -1.5778
  106OSM    C1310773   2.786   2.126  10.969 -0.2755 -0.0645  0.1572
  106OSM   H13A10774   2.711   2.111  11.045  0.5126  2.5701  1.5869
  106OSM   H13B10775   2.776   2.048  10.895 -0.9573  0.6969 -0.5692
  106OSM   H13C10776   2.760   2.225  10.933  2.6703  0.0618 -2.0918
  106OSM    C1210777   3.019   2.158  10.901  0.4271  0.7888 -0.1006
  106OSM   H12A10778   3.121   2.141  10.932  2.0459 -1.0434 -5.3373
  106OSM   H12B10779   3.015   2.260  10.864  1.0618  1.0458  0.5138
  106OSM    C1110780   3.002   2.069  10.768  0.4569  0.3451  0.0826
  106OSM   H11A10781   3.072   2.106  10.691  0.4081 -0.1882 -0.2291
  106OSM   H11B10782   2.897   2.091  10.737  0.6304  2.0433  0.6096
  106OSM      P10783   2.962   1.819  10.695  0.0431  0.0426  0.0473
  106OSM    O1310784   3.058   1.706  10.690  0.1294 -0.1090 -0.0570
  106OSM    O1410785   2.822   1.781  10.729  0.3910 -0.2355 -0.0441
  106OSM    O1110786   2.975   1.876  10.550 -0.2129 -0.1663 -0.1863
  106OSM    O1210787   3.021   1.927  10.796 -0.7371 -0.2234  0.0377
  106OSM    C1S10788   3.088   1.837  10.467 -0.7214  0.1417 -0.8145
  106OSM    H1S10789   3.093   1.727  10.457 -1.4197  0.0713 -0.4920
  106OSM    H1T10790   3.185   1.874  10.507 -1.2795  0.7974 -0.0215
  106OSM     NF10791   3.153   1.849  10.226 -0.5210 -0.1121 -0.9655
  106OSM    HNF10792   3.220   1.910  10.184  0.8447  0.5062  1.8686
  106OSM    C2S10793   3.069   1.908  10.326  0.3841  0.1716  0.1028
  106OSM    H2S10794   2.965   1.890  10.290  0.5689 -3.6565  1.0824
  106OSM    C3S10795   3.094   2.056  10.347  0.4827  0.5277 -0.3657
  106OSM    H3S10796   3.198   2.067  10.385  0.6461 -0.5249 -0.4871
  106OSM     O310797   3.006   2.109  10.446 -0.0412 -0.3662 -0.0202
  106OSM    HO310798   2.970   2.032  10.490 -0.8875  0.6230  1.0733
  106OSM    C4S10799   3.083   2.139  10.224 -0.4947 -0.7776  0.1989
  106OSM    H4S10800   3.180   2.183  10.198 -1.5236  1.9350  0.6053
  106OSM    C5S10801   2.975   2.181  10.154 -0.0556 -0.2054 -0.8522
  106OSM    H5S10802   2.878   2.146  10.193  0.2140  0.7121  0.6986
  106OSM    C6S10803   2.965   2.268  10.035  0.1464  0.6862  0.2265
  106OSM    H6S10804   3.066   2.313  10.023  1.4013 -1.3644  2.1970
  106OSM    H6T10805   2.900   2.355  10.058 -0.7913 -0.4366  2.0942
  106OSM    C7S10806   2.922   2.201   9.902 -0.0537  0.0013 -0.2640
  106OSM    H7S10807   2.815   2.176   9.923  0.1861 -1.9217 -1.0967
  106OSM    H7T10808   2.966   2.101   9.880 -0.1094 -0.3292  1.0353
  106OSM    C8S10809   2.937   2.297   9.776  0.2752 -0.4970 -0.5078
  106OSM    H8S10810   3.044   2.322   9.756  0.4552 -1.9305 -1.4687
  106OSM    H8T10811   2.885   2.391   9.803  0.9254 -0.6305  1.3569
  106OSM    C9S10812   2.860   2.246   9.656 -0.3608  0.0426  0.7643
  106OSM    H9S10813   2.754   2.217   9.666 -0.5527 -0.4772 -1.9592
  106OSM    H9T10814   2.915   2.157   9.618 -0.4833  1.2158 -2.4726
  106OSM   C10S10815   2.876   2.337   9.525  0.2676  0.0531 -0.7269
  106OSM   H10S10816   2.984   2.358   9.508  0.1749  1.6245  0.4920
  106OSM   H10T10817   2.840   2.440   9.546  2.3109  0.9561 -1.3442
  106OSM   C11S10818   2.812   2.279   9.398 -0.1134  0.1768 -0.4991
  106OSM   H11S10819   2.715   2.229   9.414  0.5690 -2.1493 -2.9492
  106OSM   H11T10820   2.880   2.198   9.365  1.4726 -0.1048  3.0106
  106OSM   C12S10821   2.791   2.385   9.296  0.5525 -0.2208  0.2942
  106OSM   H12S10822   2.885   2.443   9.279 -0.1621  0.5562 -1.2018
  106OSM   H12T10823   2.729   2.461   9.348  0.7440 -0.0263  0.2426
  106OSM   C13S10824   2.723   2.328   9.172 -0.3217 -0.3965 -0.2555
  106OSM   H13S10825   2.624   2.283   9.197 -0.5820  0.9881  1.3969
  106OSM   H13T10826   2.791   2.250   9.132  0.6504  1.5590 -2.6196
  106OSM   C14S10827   2.706   2.428   9.062 -0.8606  0.5404 -0.7130
  106OSM   H14S10828   2.803   2.467   9.023 -0.6385  0.2037 -0.5083
  106OSM   H14T10829   2.662   2.521   9.103 -1.1446  0.1858 -0.2097
  106OSM   C15S10830   2.622   2.373   8.950  0.5414  0.4233 -0.3017
  106OSM   H15S10831   2.529   2.337   9.000  1.1341  0.5742  0.9465
  106OSM   H15T10832   2.663   2.289   8.889 -0.7245 -0.8958  0.5983
  106OSM   C16S10833   2.605   2.478   8.842  0.4052  0.3490  0.1411
  106OSM   H16S10834   2.703   2.500   8.795 -0.0837 -1.5055 -1.9153
  106OSM   H16T10835   2.593   2.575   8.894  0.6728  0.1248  0.6286
  106OSM   C17S10836   2.502   2.437   8.740 -0.7100  0.3636  0.4747
  106OSM   H17S10837   2.467   2.527   8.685  0.1812  0.6641  0.3916
  106OSM   H17T10838   2.417   2.379   8.782 -0.8089 -0.6304 -1.0106
  106OSM   C18S10839   2.552   2.342   8.629 -0.5988  0.4967 -0.0632
  106OSM   H18S10840   2.487   2.362   8.542  0.3113  0.8662 -0.6731
  106OSM   H18T10841   2.539   2.235   8.658 -2.8615 -0.4712 -4.0206
  106OSM   H18U10842   2.658   2.357   8.600  0.6049 -0.9413  3.0520
  106OSM    C1F10843   3.127   1.724  10.187  0.1809  0.0640  0.0086
  106OSM     OF10844   3.032   1.665  10.233  0.7482 -0.4698 -0.4361
  106OSM    C2F10845   3.208   1.656  10.084  0.6451 -0.1236  0.0460
  106OSM    H2F10846   3.263   1.583  10.146 -0.2960  0.9312  2.2199
  106OSM    H2G10847   3.271   1.727  10.026  0.4825  0.2701  0.3407
  106OSM    C3F10848   3.132   1.567   9.982 -0.0330 -0.2098  0.5630
  106OSM    H3F10849   3.089   1.645   9.917  0.8451 -0.3079 -0.1504
  106OSM    H3G10850   3.061   1.491  10.021  0.6051 -0.5172  1.1428
  106OSM    C4F10851   3.246   1.499   9.901 -0.0777 -0.2377 -0.2372
  106OSM    H4F10852   3.287   1.418   9.965  1.8067  0.7080 -0.1923
  106OSM    H4G10853   3.324   1.562   9.855  1.0141 -1.6777 -0.4480
  106OSM    C5F10854   3.170   1.419   9.790  0.2129  0.3324 -0.7702
  106OSM    H5F10855   3.122   1.492   9.722 -2.6465 -1.1392 -0.4479
  106OSM    H5G10856   3.089   1.366   9.843 -0.2905 -0.6048 -2.3858
  106OSM    C6F10857   3.263   1.333   9.710 -0.1146  0.0215  1.1601
  106OSM    H6F10858   3.304   1.245   9.765 -1.1386  0.1608  2.1995
  106OSM    H6G10859   3.349   1.396   9.681 -0.1467  0.5558  2.1682
  106OSM    C7F10860   3.185   1.266   9.593  0.1312 -0.2469  0.4916
  106OSM    H7F10861   3.131   1.338   9.528  1.4645  2.5160  2.2504
  106OSM    H7G10862   3.121   1.194   9.648 -2.0243  0.9162 -0.3612
  106OSM    C8F10863   3.290   1.187   9.503  0.2595 -0.2377  0.0441
  106OSM    H8F10864   3.229   1.129   9.430 -1.6675  1.3836  0.3004
  106OSM    H8G10865   3.349   1.120   9.570  1.6843 -1.4732 -2.2874
  106OSM    C9F10866   3.387   1.280   9.436 -0.7402 -0.2571 -0.1436
  106OSM    H9F10867   3.469   1.316   9.500 -1.1445  0.1568  0.1507
  106OSM   C10F10868   3.371   1.335   9.311 -0.1428 -0.5464 -0.2185
  106OSM   H10F10869   3.455   1.395   9.274  0.4950 -0.5947  1.1110
  106OSM   C11F10870   3.256   1.305   9.220 -0.2945 -0.4258  0.1011
  106OSM   H11F10871   3.213   1.407   9.208  1.5653  0.8496  3.0926
  106OSM   H11G10872   3.174   1.238   9.252 -1.3898  0.7005 -0.2532
  106OSM   C12F10873   3.316   1.255   9.091  0.0066 -0.6213  0.2765
  106OSM   H12F10874   3.370   1.159   9.107 -0.4442 -0.9068  0.1164
  106OSM   H12G10875   3.399   1.322   9.060 -0.3804 -0.1906  0.1555
  106OSM   C13F10876   3.223   1.238   8.972  1.1019  0.9481 -0.1139
  106OSM   H13F10877   3.145   1.317   8.976  1.0597  0.8891  0.2648
  106OSM   H13G10878   3.170   1.142   8.988  0.5922  0.8768 -1.9141
  106OSM   C14F10879   3.284   1.238   8.829 -0.7967  0.3662  0.5066
  106OSM   H14F10880   3.348   1.148   8.820 -0.5172  0.4873  1.1775
  106OSM   H14G10881   3.340   1.334   8.828  0.0851 -0.1267  0.8937
  106OSM   C15F10882   3.187   1.216   8.719  0.3766 -0.3798  0.1106
  106OSM   H15F10883   3.117   1.300   8.702  2.0514  0.8778 -0.7970
  106OSM   H15G10884   3.125   1.132   8.758  1.0344 -0.7450  0.4086
  106OSM   C16F10885   3.244   1.174   8.584 -0.3835  0.4936 -0.2669
  106OSM   H16F10886   3.337   1.231   8.564 -1.0171  1.1846 -1.3797
  106OSM   H16G10887   3.170   1.189   8.502  2.2580  0.4459 -2.8085
  106OSM   C17F10888   3.274   1.023   8.581  0.5196 -0.2237 -0.2177
  106OSM   H17F10889   3.179   0.975   8.612 -0.6867  1.2059 -1.5205
  106OSM   H17G10890   3.350   1.006   8.660  0.2460 -2.7632 -0.4203
  106OSM   C18F10891   3.327   0.976   8.443  0.7805  0.4721  0.1947
  106OSM   H18F10892   3.365   0.872   8.448 -0.6292 -0.0676  0.1450
  106OSM   H18G10893   3.407   1.045   8.410  1.9190 -0.7384  0.3411
  106OSM   H18H10894   3.250   0.985   8.364  1.4083 -1.1139 -0.6450
  107OSM      N10895   6.818   0.349  10.762 -0.1846  0.2605  0.2891
  107OSM    C1510896   6.741   0.247  10.691  0.0100 -0.2230  0.5205
  107OSM   H15A10897   6.808   0.193  10.625 -0.4414  0.5271 -0.5930
  107OSM   H15B10898   6.670   0.295  10.625  1.6696  0.0725 -1.1249
  107OSM   H15C10899   6.690   0.174  10.752  0.7323 -1.2276 -0.0293
  107OSM    C1410900   6.718   0.395  10.862  0.8617 -0.3663  0.1311
  107OSM   H14A10901   6.637   0.450  10.818 -0.4108 -1.3555  1.1383
  107OSM   H14B10902   6.772   0.461  10.928 -0.7828  1.2697 -0.0915
  107OSM   H14C10903   6.675   0.309  10.912 -0.5827  1.8243  3.0102
  107OSM    C1310904   6.936   0.283  10.826 -0.0427 -0.4749 -0.0526
  107OSM   H13A10905   6.901   0.200  10.885 -0.7941 -0.1832 -0.0695
  107OSM   H13B10906   7.002   0.353  10.875 -0.0917  1.6428 -2.7346
  107OSM   H13C10907   6.996   0.242  10.747  0.8683  1.1457 -0.2363
  107OSM    C1210908   6.865   0.456  10.665  0.0057  0.6449  0.7629
  107OSM   H12A10909   6.911   0.536  10.721 -0.2926 -0.7444  3.1417
  107OSM   H12B10910   6.779   0.498  10.615  1.0540 -0.7616 -2.4927
  107OSM    C1110911   6.959   0.416  10.547 -0.6627 -0.7829  0.2428
  107OSM   H11A10912   6.968   0.508  10.485 -2.6238  0.5670  1.8152
  107OSM   H11B10913   6.921   0.327  10.494  2.5785 -2.6308  0.7687
  107OSM      P10914   7.181   0.453  10.673 -0.2826 -0.1922  0.1787
  107OSM    O1310915   7.116   0.502  10.799 -0.8755 -0.5900 -0.3183
  107OSM    O1410916   7.302   0.381  10.694 -0.1998  0.4166  0.0848
  107OSM    O1110917   7.210   0.567  10.566  0.3027  0.0612 -0.7157
  107OSM    O1210918   7.086   0.365  10.592 -0.0861  0.0344 -0.6275
  107OSM    C1S10919   7.273   0.530  10.442  0.0791 -0.5703  0.2496
  107OSM    H1S10920   7.239   0.432  10.404  1.4337 -0.7368 -0.6198
  107OSM    H1T10921   7.382   0.515  10.460  0.0789 -0.5854  0.2380
  107OSM     NF10922   7.340   0.603  10.222  0.1019 -0.5646  0.2268
  107OSM    HNF10923   7.438   0.615  10.209  0.2016 -1.3178  0.2296
  107OSM    C2S10924   7.277   0.652  10.340 -0.4462  0.0404 -0.5874
  107OSM    H2S10925   7.171   0.681  10.321 -0.3121  0.9722  0.0378
  107OSM    C3S10926   7.347   0.777  10.394  0.3045  0.3030 -0.8470
  107OSM    H3S10927   7.453   0.752  10.418  0.1048  0.0984 -0.1678
  107OSM     O310928   7.291   0.824  10.515  0.3667 -0.3163 -0.2716
  107OSM    HO310929   7.257   0.741  10.550  0.8194  0.3377  1.8605
  107OSM    C4S10930   7.340   0.876  10.284 -0.0982 -0.4810  0.5614
  107OSM    H4S10931   7.240   0.890  10.242  0.5348  1.0088 -0.5564
  107OSM    C5S10932   7.445   0.937  10.221  0.0333 -0.0877 -0.1872
  107OSM    H5S10933   7.548   0.904  10.243 -0.4197 -0.8536  0.8446
  107OSM    C6S10934   7.440   1.030  10.102 -0.5323  0.5748  0.3328
  107OSM    H6S10935   7.508   1.117  10.114 -1.5136  1.5360 -0.7700
  107OSM    H6T10936   7.338   1.070  10.081 -0.4949  0.2318 -0.5286
  107OSM    C7S10937   7.458   0.948   9.971 -0.2768 -0.0837 -0.6065
  107OSM    H7S10938   7.392   0.859   9.963 -0.9855  0.2175  1.3936
  107OSM    H7T10939   7.565   0.917   9.960 -0.3279  0.2079 -2.3139
  107OSM    C8S10940   7.418   1.035   9.849 -0.4521  0.2525  0.5203
  107OSM    H8S10941   7.479   1.128   9.845  1.3971 -0.9547 -1.1733
  107OSM    H8T10942   7.312   1.069   9.852 -0.3196  0.9399 -1.1654
  107OSM    C9S10943   7.447   0.961   9.715 -0.2302 -0.4390  0.1493
  107OSM    H9S10944   7.409   0.857   9.719 -0.7104 -0.3003 -0.5566
  107OSM    H9T10945   7.558   0.957   9.713 -0.2127 -0.6800  1.1433
  107OSM   C10S10946   7.398   1.041   9.593 -0.6966  0.2934  0.2327
  107OSM   H10S10947   7.442   1.143   9.595 -0.4159  0.2452 -1.4939
  107OSM   H10T10948   7.287   1.052   9.594 -0.8167 -0.8442  0.6413
  107OSM   C11S10949   7.440   0.978   9.457 -0.0420  0.3789 -0.3903
  107OSM   H11S10950   7.548   1.002   9.449  0.6223 -1.2686  2.4100
  107OSM   H11T10951   7.392   1.024   9.368  0.1509  0.5805 -0.3887
  107OSM   C12S10952   7.422   0.826   9.431 -0.0705 -0.1037 -0.5482
  107OSM   H12S10953   7.315   0.803   9.411 -0.2330 -0.0675  0.2292
  107OSM   H12T10954   7.450   0.767   9.521 -0.1909 -0.2729 -0.6226
  107OSM   C13S10955   7.511   0.780   9.313 -0.5749 -0.1633  0.2254
  107OSM   H13S10956   7.490   0.672   9.300 -0.5152 -0.1411 -0.0745
  107OSM   H13T10957   7.619   0.793   9.336 -0.8285 -0.2312  1.5517
  107OSM   C14S10958   7.477   0.856   9.181  0.2671 -0.0419 -0.3908
  107OSM   H14S10959   7.524   0.956   9.187  1.8338 -0.8110  1.0797
  107OSM   H14T10960   7.368   0.876   9.179  0.4726  1.2007 -2.4274
  107OSM   C15S10961   7.539   0.772   9.065  0.8267  0.5617 -0.2707
  107OSM   H15S10962   7.540   0.833   8.972 -1.0705  0.2400 -0.5306
  107OSM   H15T10963   7.490   0.676   9.036 -0.7835  1.2088  0.2382
  107OSM   C16S10964   7.690   0.727   9.088  0.6812  0.2471  0.4242
  107OSM   H16S10965   7.691   0.645   9.163  0.2259  1.7392  2.1169
  107OSM   H16T10966   7.750   0.809   9.132 -0.0380  1.0167 -0.0224
  107OSM   C17S10967   7.760   0.677   8.958  0.3383  0.2083  1.2053
  107OSM   H17S10968   7.735   0.747   8.875 -0.7348 -1.8545 -0.3412
  107OSM   H17T10969   7.725   0.578   8.921  2.9244 -0.8532  1.4193
  107OSM   C18S10970   7.913   0.661   8.974  0.5529 -0.1315  0.5144
  107OSM   H18S10971   7.954   0.596   8.893 -0.4466 -0.0024 -0.1085
  107OSM   H18T10972   7.941   0.604   9.066 -1.0206 -0.1008  1.0396
  107OSM   H18U10973   7.959   0.762   8.976  0.6688 -0.1878  1.6326
  107OSM    C1F10974   7.286   0.516  10.146  0.1932 -0.0005  0.3139
  107OSM     OF10975   7.187   0.455  10.172  0.1255 -0.7253  0.1886
  107OSM    C2F10976   7.352   0.489  10.016 -0.9711 -0.3113 -0.1587
  107OSM    H2F10977   7.451   0.440  10.030 -0.3689  0.8724 -0.1768
  107OSM    H2G10978   7.377   0.587   9.969 -0.3403 -1.0677 -1.4602
  107OSM    C3F10979   7.265   0.410   9.919 -0.1351 -0.1942 -0.6135
  107OSM    H3F10980   7.190   0.476   9.870 -0.6966 -0.2237  0.1838
  107OSM    H3G10981   7.210   0.333   9.977  0.0457  0.5924  0.6337
  107OSM    C4F10982   7.337   0.339   9.807  0.0740 -0.0982  0.1901
  107OSM    H4F10983   7.296   0.243   9.769  0.2371 -0.2472  0.3842
  107OSM    H4G10984   7.438   0.318   9.848  0.9035 -0.2686 -1.8086
  107OSM    C5F10985   7.352   0.417   9.685 -0.3661  0.5872  1.0286
  107OSM    H5F10986   7.376   0.523   9.711 -2.6332  1.3700  0.1622
  107OSM    H5G10987   7.256   0.427   9.631  0.4110  2.2346 -0.1440
  107OSM    C6F10988   7.451   0.362   9.585 -0.0521  0.3509 -0.8417
  107OSM    H6F10989   7.430   0.255   9.565  1.1915  0.3131 -2.1209
  107OSM    H6G10990   7.551   0.354   9.634  0.2990 -1.0926 -1.7350
  107OSM    C7F10991   7.473   0.439   9.458  0.0625  0.1342  0.8455
  107OSM    H7F10992   7.497   0.547   9.465 -0.6185  0.3591 -0.0306
  107OSM    H7G10993   7.380   0.424   9.399  0.5437  0.4785 -0.0137
  107OSM    C8F10994   7.579   0.382   9.364  0.1677 -0.8973 -0.7153
  107OSM    H8F10995   7.673   0.373   9.423 -0.1208 -0.8939 -0.2484
  107OSM    H8G10996   7.599   0.461   9.288 -5.7477 -0.6414 -2.4948
  107OSM    C9F10997   7.546   0.263   9.292 -0.4675  0.3261  0.2476
  107OSM    H9F10998   7.562   0.167   9.344 -3.8474  0.1504  1.1777
  107OSM   C10F10999   7.496   0.249   9.171 -0.2326 -0.1615  0.1138
  107OSM   H10F11000   7.484   0.154   9.116 -1.9732  0.1273 -0.0596
  107OSM   C11F11001   7.450   0.369   9.083 -0.1548 -0.1400  0.0380
  107OSM   H11F11002   7.546   0.413   9.047  0.2966  0.2335  1.6214
  107OSM   H11G11003   7.399   0.446   9.145  0.0754 -0.5701  0.7728
  107OSM   C12F11004   7.355   0.335   8.963  0.1076  1.0219 -0.3154
  107OSM   H12F11005   7.329   0.434   8.920 -0.8462  0.5943 -0.7448
  107OSM   H12G11006   7.255   0.303   8.999  1.3834  0.2269  2.8434
  107OSM   C13F11007   7.424   0.244   8.860 -0.6869  0.1246 -0.2529
  107OSM   H13F11008   7.449   0.146   8.905 -0.6236  0.6996  1.0323
  107OSM   H13G11009   7.523   0.283   8.827 -0.9974 -0.8354 -2.4814
  107OSM   C14F11010   7.333   0.215   8.748  0.2089 -0.0031  0.3011
  107OSM   H14F11011   7.227   0.187   8.769 -0.3160  0.5609 -1.4021
  107OSM   H14G11012   7.388   0.136   8.692 -0.7321 -1.6911  1.6459
  107OSM   C15F11013   7.310   0.339   8.661  0.2733 -0.7925 -0.3715
  107OSM   H15F11014   7.411   0.384   8.651  0.4201 -1.1848 -0.7022
  107OSM   H15G11015   7.244   0.421   8.698 -0.5212 -1.6665  0.1873
  107OSM   C16F11016   7.272   0.304   8.518 -0.3575 -0.4518  0.5258
  107OSM   H16F11017   7.174   0.253   8.532 -1.0052  1.2109  2.4088
  107OSM   H16G11018   7.341   0.233   8.466  1.2219  1.6968 -0.4487
  107OSM   C17F11019   7.256   0.416   8.409  1.2067 -0.1634 -0.3361
  107OSM   H17F11020   7.200   0.505   8.446 -2.6559 -1.4517 -2.4732
  107OSM   H17G11021   7.196   0.373   8.326 -2.2107  0.5620  1.5609
  107OSM   C18F11022   7.386   0.461   8.348  0.0740  0.6115 -0.1230
  107OSM   H18F11023   7.455   0.502   8.425 -1.4806  2.8258  0.1805
  107OSM   H18G11024   7.375   0.532   8.263 -1.0281 -0.2245 -0.7006
  107OSM   H18H11025   7.433   0.377   8.292 -0.7563  1.0407 -1.4928
  108OSM      N11026   1.300   1.273  10.607 -0.0921 -0.0213  0.1442
  108OSM    C1511027   1.444   1.298  10.569 -0.1255  0.4915  0.2944
  108OSM   H15A11028   1.512   1.242  10.631 -2.7889 -1.9549  1.2279
  108OSM   H15B11029   1.476   1.401  10.575 -1.0196  0.7609  0.5995
  108OSM   H15C11030   1.471   1.260  10.471  0.2977  0.7437  0.3097
  108OSM    C1411031   1.285   1.121  10.603  0.3261 -0.4023  0.1754
  108OSM   H14A11032   1.187   1.082  10.625  0.8785 -0.7890  2.2120
  108OSM   H14B11033   1.352   1.068  10.669  0.6690  2.0495  1.9260
  108OSM   H14C11034   1.311   1.089  10.503 -0.9383  0.4218 -0.4365
  108OSM    C1311035   1.288   1.333  10.744 -0.2950  0.2348  0.5703
  108OSM   H13A11036   1.317   1.437  10.742  0.0954  0.1216 -1.2796
  108OSM   H13B11037   1.348   1.274  10.812  0.8963 -2.1135 -2.2679
  108OSM   H13C11038   1.187   1.313  10.777  0.3874 -0.9036  2.1351
  108OSM    C1211039   1.206   1.338  10.509 -0.1075  0.2130 -0.1382
  108OSM   H12A11040   1.103   1.308  10.520 -0.0760  0.1667  0.0352
  108OSM   H12B11041   1.230   1.309  10.408 -1.3386 -1.2619 -0.0400
  108OSM    C1111042   1.198   1.495  10.498 -0.8524  0.1700 -0.1162
  108OSM   H11A11043   1.145   1.522  10.404 -1.1024 -0.1598 -0.0709
  108OSM   H11B11044   1.302   1.534  10.491 -1.9132  3.6234  1.3898
  108OSM      P11045   0.980   1.519  10.646  0.3011  0.0699  0.5570
  108OSM    O1311046   0.930   1.403  10.570  0.2286  0.3038 -0.0496
  108OSM    O1411047   0.958   1.509  10.797  0.0430  0.2690  0.9292
  108OSM    O1111048   0.918   1.649  10.584  0.0388 -0.2119  0.0497
  108OSM    O1211049   1.135   1.546  10.615 -0.6257  0.3976  0.4222
  108OSM    C1S11050   0.928   1.704  10.460 -0.9864  0.3241  0.0876
  108OSM    H1S11051   1.036   1.703  10.431 -0.9793  0.2202  0.1206
  108OSM    H1T11052   0.899   1.811  10.465  0.5974  0.7341  1.2514
  108OSM     NF11053   0.875   1.694  10.229 -0.1516  0.2368  0.2178
  108OSM    HNF11054   0.801   1.753  10.196  0.7294  0.4267 -1.5693
  108OSM    C2S11055   0.855   1.623  10.350  0.1775 -0.3839  0.6701
  108OSM    H2S11056   0.902   1.523  10.340  1.0014  0.0611  0.0091
  108OSM    C3S11057   0.694   1.595  10.369 -0.0337 -0.3633  0.6507
  108OSM    H3S11058   0.648   1.691  10.399 -1.2189  0.0268 -2.0634
  108OSM     O311059   0.665   1.504  10.467 -0.6561 -0.9104 -0.2577
  108OSM    HO311060   0.741   1.458  10.502 -0.8596  0.5521  2.3929
  108OSM    C4S11061   0.622   1.552  10.247  0.4292  0.1292  0.6952
  108OSM    H4S11062   0.547   1.626  10.215 -1.9772 -1.6831  1.8234
  108OSM    C5S11063   0.637   1.439  10.171  0.2753 -0.2249  0.5224
  108OSM    H5S11064   0.701   1.355  10.198 -0.3069 -0.5923  0.7802
  108OSM    C6S11065   0.560   1.419  10.041  0.0493  0.1312 -0.4095
  108OSM    H6S11066   0.465   1.477  10.034  0.9214  1.5468 -1.0174
  108OSM    H6T11067   0.522   1.320  10.008 -0.3601  0.8019 -2.0566
  108OSM    C7S11068   0.643   1.465   9.922  0.8605  0.2902  0.4911
  108OSM    H7S11069   0.726   1.391   9.921 -0.7064 -1.5727 -0.5169
  108OSM    H7T11070   0.683   1.568   9.923  2.5084 -0.2080 -2.3466
  108OSM    C8S11071   0.557   1.441   9.796  0.3377  0.4091 -0.0058
  108OSM    H8S11072   0.469   1.508   9.796  1.7922  2.3871 -0.4753
  108OSM    H8T11073   0.532   1.332   9.795  4.0347 -0.5763 -0.9891
  108OSM    C9S11074   0.639   1.468   9.677 -0.3711 -0.3247 -0.0669
  108OSM    H9S11075   0.734   1.410   9.673  0.1915  0.6418 -1.2409
  108OSM    H9T11076   0.668   1.575   9.671  0.7436 -0.6312 -0.3823
  108OSM   C10S11077   0.557   1.445   9.548  0.4132 -0.1584  0.3671
  108OSM   H10S11078   0.469   1.512   9.548  1.0930  0.7530  0.1718
  108OSM   H10T11079   0.533   1.336   9.540  1.1752 -0.2180 -2.4154
  108OSM   C11S11080   0.635   1.462   9.413  0.0614 -0.5179 -0.6099
  108OSM   H11S11081   0.707   1.379   9.430 -0.9049 -1.0227  1.3827
  108OSM   H11T11082   0.684   1.561   9.425  2.1624 -1.5202 -0.5339
  108OSM   C12S11083   0.559   1.433   9.284 -0.3960 -0.2550  0.5946
  108OSM   H12S11084   0.496   1.515   9.243  1.0143  0.3811 -0.3991
  108OSM   H12T11085   0.494   1.351   9.321 -1.0629  1.3537  3.2859
  108OSM   C13S11086   0.645   1.388   9.166  0.1084 -0.4852 -0.1083
  108OSM   H13S11087   0.733   1.449   9.139  0.1631 -0.2982  0.4841
  108OSM   H13T11088   0.584   1.400   9.074 -2.3080 -2.4907  1.0858
  108OSM   C14S11089   0.687   1.237   9.171 -0.0359  0.9515  0.4859
  108OSM   H14S11090   0.599   1.172   9.189  1.0431 -1.0891 -1.1674
  108OSM   H14T11091   0.759   1.223   9.255 -0.0390  0.6070  0.4351
  108OSM   C15S11092   0.764   1.204   9.041 -0.8804  0.1487  0.9133
  108OSM   H15S11093   0.847   1.137   9.071 -2.5375 -1.8922  1.1585
  108OSM   H15T11094   0.815   1.287   8.988  2.0138 -3.6632 -3.0150
  108OSM   C16S11095   0.692   1.140   8.928  0.0176  0.2833 -0.2443
  108OSM   H16S11096   0.636   1.221   8.876  0.6321  0.9003  0.0527
  108OSM   H16T11097   0.627   1.059   8.966  1.2719 -0.0182  1.3555
  108OSM   C17S11098   0.777   1.065   8.817  0.3320  1.0632  0.5527
  108OSM   H17S11099   0.828   0.985   8.873 -0.7809 -0.5498 -0.6505
  108OSM   H17T11100   0.854   1.128   8.767 -1.1887  0.2980 -3.0550
  108OSM   C18S11101   0.703   0.979   8.710 -0.9003 -0.5716  0.3223
  108OSM   H18S11102   0.783   0.926   8.654  1.9142  3.1649  0.3898
  108OSM   H18T11103   0.661   1.054   8.639  0.8688  0.5869  0.4553
  108OSM   H18U11104   0.630   0.911   8.759 -2.2521  0.1879 -0.5481
  108OSM    C1F11105   0.992   1.703  10.167  0.0557 -0.4600  0.1734
  108OSM     OF11106   1.081   1.628  10.201 -0.1919 -0.7801 -0.2621
  108OSM    C2F11107   1.003   1.802  10.051 -0.0350 -0.3197 -0.2914
  108OSM    H2F11108   1.102   1.852  10.048 -1.8409  3.6540 -0.4032
  108OSM    H2G11109   0.928   1.883  10.059 -0.6754 -1.0168  1.0162
  108OSM    C3F11110   0.996   1.744   9.901 -0.8729  0.4424  0.2343
  108OSM    H3F11111   0.894   1.704   9.882 -0.4970 -1.9146  2.5729
  108OSM    H3G11112   1.072   1.665   9.885 -1.6469 -0.2478 -0.1677
  108OSM    C4F11113   1.022   1.857   9.798 -0.0066  0.3687  0.2491
  108OSM    H4F11114   1.131   1.880   9.797  0.1906 -0.3349  1.8619
  108OSM    H4G11115   0.964   1.942   9.838 -1.1384  0.2521 -1.0706
  108OSM    C5F11116   0.991   1.823   9.656 -0.4728 -0.4689 -0.0172
  108OSM    H5F11117   1.031   1.899   9.585  0.3241 -0.9938 -0.1432
  108OSM    H5G11118   0.881   1.808   9.645 -0.4333 -1.1222  0.4134
  108OSM    C6F11119   1.059   1.686   9.620  0.5904  0.2670  0.2523
  108OSM    H6F11120   1.027   1.612   9.696 -1.9527 -0.5659 -1.4716
  108OSM    H6G11121   1.168   1.703   9.618  0.4102  1.8380  1.6787
  108OSM    C7F11122   1.006   1.629   9.483  0.4422  0.0944 -0.2628
  108OSM    H7F11123   0.897   1.645   9.475  0.6419  0.8703 -1.7211
  108OSM    H7G11124   1.023   1.520   9.500  0.0983  0.1464  0.4667
  108OSM    C8F11125   1.084   1.684   9.368  0.4619 -0.7642  0.2591
  108OSM    H8F11126   1.192   1.682   9.391  0.7706  0.2392 -0.9710
  108OSM    H8G11127   1.069   1.794   9.361  1.0252 -0.7430 -0.7956
  108OSM    C9F11128   1.046   1.599   9.252 -0.1017  0.4547 -0.0285
  108OSM    H9F11129   0.937   1.604   9.236 -0.2001 -0.1239  0.4146
  108OSM   C10F11130   1.127   1.525   9.163 -0.3831 -0.5425  0.1142
  108OSM   H10F11131   1.082   1.467   9.081  0.1409  0.2498 -0.7535
  108OSM   C11F11132   1.279   1.537   9.174  0.0142 -0.0669 -0.0985
  108OSM   H11F11133   1.319   1.496   9.269  0.2879  0.0055 -0.1816
  108OSM   H11G11134   1.307   1.644   9.172  1.4011 -0.3487 -3.6871
  108OSM   C12F11135   1.359   1.457   9.063 -0.1795 -0.5260 -0.3257
  108OSM   H12F11136   1.350   1.347   9.075  0.6227 -0.4141  1.5694
  108OSM   H12G11137   1.466   1.470   9.090  0.4062  0.3780 -2.7843
  108OSM   C13F11138   1.326   1.508   8.925  0.9039 -0.2736 -0.1624
  108OSM   H13F11139   1.343   1.618   8.928  2.4524 -0.4733 -0.7103
  108OSM   H13G11140   1.222   1.479   8.898  0.7240 -0.0457  0.2669
  108OSM   C14F11141   1.425   1.442   8.820  0.1527  0.1736 -0.0833
  108OSM   H14F11142   1.442   1.337   8.850  1.0612  0.1251 -0.7367
  108OSM   H14G11143   1.521   1.496   8.830  0.8697 -0.8806 -1.0917
  108OSM   C15F11144   1.362   1.448   8.683 -0.2181  0.5319  0.3354
  108OSM   H15F11145   1.276   1.516   8.700 -0.0289  0.6972  0.6276
  108OSM   H15G11146   1.310   1.353   8.657  0.3426 -0.2973  2.1017
  108OSM   C16F11147   1.451   1.486   8.564 -0.1908  0.0408 -0.7603
  108OSM   H16F11148   1.540   1.421   8.579  0.0567  1.1286  3.8953
  108OSM   H16G11149   1.480   1.593   8.569 -0.7833  0.2049 -0.8286
  108OSM   C17F11150   1.373   1.483   8.420 -0.0012 -0.0882 -0.3248
  108OSM   H17F11151   1.335   1.379   8.415  0.2957 -0.1643 -1.0126
  108OSM   H17G11152   1.454   1.511   8.349  0.7208  0.6156  0.7321
  108OSM   C18F11153   1.261   1.586   8.401  0.2278  0.7427  0.1652
  108OSM   H18F11154   1.214   1.573   8.301 -1.3293 -1.9596  1.1471
  108OSM   H18G11155   1.296   1.691   8.415 -2.2743  2.0003 -1.9691
  108OSM   H18H11156   1.181   1.566   8.475 -0.6262  0.8449 -0.7113
  109OSM      N11157   1.453   0.358  10.981  0.0578  0.7669  0.4735
  109OSM    C1511158   1.536   0.230  10.995 -1.5173  0.0087 -0.5071
  109OSM   H15A11159   1.538   0.196  11.097 -0.7273  2.5012  0.3773
  109OSM   H15B11160   1.640   0.239  10.966 -0.9993 -1.8346  0.6555
  109OSM   H15C11161   1.501   0.151  10.930  2.9753 -1.9769 -0.9031
  109OSM    C1411162   1.313   0.329  11.018  0.1690  0.0941 -0.0858
  109OSM   H14A11163   1.280   0.241  10.966 -0.5927 -1.1671  2.3493
  109OSM   H14B11164   1.248   0.411  10.991  1.6419  1.5477  0.5831
  109OSM   H14C11165   1.292   0.306  11.122 -1.0760  1.7550  0.0654
  109OSM    C1311166   1.502   0.462  11.079  0.7797  0.1500  0.4249
  109OSM   H13A11167   1.605   0.480  11.054  1.0191 -0.9176  0.5840
  109OSM   H13B11168   1.499   0.415  11.177 -0.6465 -1.3126 -0.2703
  109OSM   H13C11169   1.440   0.550  11.073 -0.4985 -0.7562 -0.1621
  109OSM    C1211170   1.459   0.397  10.839  0.7389  0.1880  0.9572
  109OSM   H12A11171   1.395   0.483  10.825 -0.1583 -0.8718 -2.4299
  109OSM   H12B11172   1.427   0.322  10.767  1.6649 -0.2651  1.0090
  109OSM    C1111173   1.600   0.433  10.776  0.0121  0.1256  0.1926
  109OSM   H11A11174   1.643   0.529  10.811  0.8568  0.2089 -0.9954
  109OSM   H11B11175   1.564   0.463  10.675 -2.6153 -1.0873  0.6797
  109OSM      P11176   1.833   0.346  10.708  0.3039  0.3035 -0.1380
  109OSM    O1311177   1.841   0.491  10.688  0.9465 -0.0632  0.7259
  109OSM    O1411178   1.939   0.288  10.789 -0.3207  0.6591  0.4328
  109OSM    O1111179   1.832   0.275  10.569 -0.0454 -0.0093 -0.1425
  109OSM    O1211180   1.690   0.321  10.772 -0.0124 -0.1353  0.2148
  109OSM    C1S11181   1.722   0.232  10.489 -0.5660  0.7155 -0.5824
  109OSM    H1S11182   1.635   0.298  10.508  0.1849  2.0323 -1.5264
  109OSM    H1T11183   1.682   0.131  10.511 -0.9793  0.5010 -2.1938
  109OSM     NF11184   1.637   0.207  10.260  0.0368  0.1671  0.7700
  109OSM    HNF11185   1.631   0.109  10.241 -1.3038  0.0438  1.6537
  109OSM    C2S11186   1.753   0.232  10.337 -0.2429  0.1392  0.8213
  109OSM    H2S11187   1.784   0.336  10.312 -0.9638  0.0080 -0.7443
  109OSM    C3S11188   1.869   0.133  10.303 -0.0401  0.0801  0.6799
  109OSM    H3S11189   1.853   0.030  10.341 -0.2197 -0.0491  0.2533
  109OSM     O311190   1.997   0.165  10.362  0.4700 -0.8338  0.2397
  109OSM    HO311191   1.980   0.218  10.441 -0.0707  1.2387 -1.1770
  109OSM    C4S11192   1.892   0.126  10.159 -0.1283 -0.0955  0.2956
  109OSM    H4S11193   1.939   0.217  10.118  0.1102  0.8917  2.5860
  109OSM    C5S11194   1.859   0.018  10.082 -0.1742 -0.7154 -0.7523
  109OSM    H5S11195   1.817  -0.069  10.134  0.1630 -0.0252  0.7357
  109OSM    C6S11196   1.875   0.016   9.938  0.5174 -0.2191 -0.0594
  109OSM    H6S11197   1.927   0.111   9.912 -0.9345  1.7002  3.3972
  109OSM    H6T11198   1.770   0.013   9.899 -0.7288 -1.8453  3.1192
  109OSM    C7S11199   1.948  -0.116   9.893 -0.3850 -0.1716 -0.5274
  109OSM    H7S11200   1.883  -0.196   9.934  0.9999  0.4237  3.2184
  109OSM    H7T11201   2.050  -0.119   9.935 -0.4450  1.5250 -0.1643
  109OSM    C8S11202   1.951  -0.106   9.745 -0.0222 -0.1558 -0.1987
  109OSM    H8S11203   2.017  -0.025   9.708 -0.9523  1.5994  1.7740
  109OSM    H8T11204   1.849  -0.086   9.707 -0.5159  1.3076  1.7101
  109OSM    C9S11205   1.988  -0.242   9.694 -0.0063 -0.0646  0.0399
  109OSM    H9S11206   1.922  -0.320   9.738 -1.3850  1.1832  0.2776
  109OSM    H9T11207   2.094  -0.254   9.723 -0.1247  1.7488  1.4040
  109OSM   C10S11208   1.974  -0.245   9.539 -0.0672 -0.3188 -0.3467
  109OSM   H10S11209   1.873  -0.206   9.515 -0.0923  0.5764  1.1278
  109OSM   H10T11210   1.975  -0.355   9.521  1.3150 -0.2545 -0.8011
  109OSM   C11S11211   2.076  -0.170   9.456  1.1843 -0.5066 -0.4039
  109OSM   H11S11212   2.178  -0.208   9.480 -0.0913 -4.1829 -0.2572
  109OSM   H11T11213   2.063  -0.063   9.483 -2.1488 -0.7155 -0.7975
  109OSM   C12S11214   2.050  -0.183   9.305  0.5011 -0.4487 -0.4494
  109OSM   H12S11215   1.941  -0.181   9.284  0.2320  1.7732  0.8208
  109OSM   H12T11216   2.078  -0.286   9.274 -2.3685 -1.4131 -0.1092
  109OSM   C13S11217   2.120  -0.076   9.221 -0.2676  0.0803 -0.3440
  109OSM   H13S11218   2.228  -0.081   9.246 -0.6389  0.1017  1.3683
  109OSM   H13T11219   2.082   0.024   9.252 -0.2110 -0.2362  0.8067
  109OSM   C14S11220   2.101  -0.106   9.069 -0.2882 -0.3913 -0.4872
  109OSM   H14S11221   2.100  -0.008   9.016  1.3188 -0.0821  0.0091
  109OSM   H14T11222   1.993  -0.132   9.062 -0.1959 -0.8590 -0.1850
  109OSM   C15S11223   2.192  -0.216   9.001  0.2802 -0.1186  0.7152
  109OSM   H15S11224   2.156  -0.311   9.045 -1.2781  0.2547  0.2919
  109OSM   H15T11225   2.294  -0.192   9.037 -0.2413  1.3849  1.2546
  109OSM   C16S11226   2.200  -0.208   8.848 -0.0497 -0.7032  0.0096
  109OSM   H16S11227   2.243  -0.108   8.825 -0.4098 -0.7629 -0.9591
  109OSM   H16T11228   2.096  -0.206   8.809 -0.2660 -0.4606  0.5979
  109OSM   C17S11229   2.288  -0.313   8.778  0.3702 -0.4077  0.1345
  109OSM   H17S11230   2.246  -0.414   8.799 -2.2161  1.0653  2.8029
  109OSM   H17T11231   2.391  -0.310   8.818 -0.4459 -1.1213  2.4075
  109OSM   C18S11232   2.298  -0.285   8.628 -0.0509  0.3209  0.0762
  109OSM   H18S11233   2.338  -0.184   8.603  0.2961  0.0163 -0.6149
  109OSM   H18T11234   2.205  -0.305   8.570  1.5250 -1.4958 -1.9664
  109OSM   H18U11235   2.383  -0.344   8.588  0.2930  1.5568 -1.0817
  109OSM    C1F11236   1.539   0.306  10.245  0.0180  0.1951  0.5710
  109OSM     OF11237   1.560   0.421  10.286  0.1607  1.0915  0.5315
  109OSM    C2F11238   1.399   0.270  10.191 -0.2486 -0.1039  0.0587
  109OSM    H2F11239   1.335   0.256  10.281 -2.0197  1.2071 -0.9414
  109OSM    H2G11240   1.408   0.175  10.135  0.7273 -0.4887  0.8506
  109OSM    C3F11241   1.350   0.387  10.097  0.2272  0.6353  0.5211
  109OSM    H3F11242   1.371   0.491  10.130 -1.8705  1.4352 -0.5027
  109OSM    H3G11243   1.240   0.373  10.095  0.3380 -0.2479  0.0278
  109OSM    C4F11244   1.406   0.391   9.955  1.0883  0.0332 -0.1046
  109OSM    H4F11245   1.515   0.413   9.955  1.2922 -0.9272 -0.2750
  109OSM    H4G11246   1.354   0.468   9.893 -0.3758 -1.4844 -0.8231
  109OSM    C5F11247   1.381   0.265   9.884 -0.7620 -0.6792 -0.0346
  109OSM    H5F11248   1.274   0.236   9.874 -1.0301  1.0164 -3.5310
  109OSM    H5G11249   1.431   0.179   9.934 -0.5464 -0.4727  0.1095
  109OSM    C6F11250   1.447   0.271   9.744 -0.1720  0.0478 -0.4110
  109OSM    H6F11251   1.555   0.290   9.758  0.1573 -1.0312 -1.3370
  109OSM    H6G11252   1.409   0.360   9.689  0.6826  0.5809 -0.1567
  109OSM    C7F11253   1.418   0.148   9.666 -0.1915  0.7130  0.1553
  109OSM    H7F11254   1.307   0.143   9.666 -0.1755 -0.6256  1.5105
  109OSM    H7G11255   1.461   0.055   9.710 -0.0621  1.6867  2.2241
  109OSM    C8F11256   1.452   0.152   9.512  0.7432  0.2589 -0.2737
  109OSM    H8F11257   1.411   0.243   9.465  1.0769 -0.0762 -1.2291
  109OSM    H8G11258   1.391   0.069   9.470  0.3420  0.9499 -1.0752
  109OSM    C9F11259   1.592   0.112   9.475 -1.0072  0.8980  0.7283
  109OSM    H9F11260   1.637   0.024   9.522 -0.5377  1.3772  1.1871
  109OSM   C10F11261   1.670   0.168   9.378 -0.1041 -0.2950  0.4768
  109OSM   H10F11262   1.767   0.123   9.350  0.9708  0.9816  1.9818
  109OSM   C11F11263   1.624   0.282   9.294  0.0644 -0.1684 -0.1424
  109OSM   H11F11264   1.704   0.359   9.280  0.2763 -0.3592  0.0152
  109OSM   H11G11265   1.532   0.331   9.331  0.7124  0.8393  0.1957
  109OSM   C12F11266   1.592   0.228   9.153  0.2253  0.4402  0.1590
  109OSM   H12F11267   1.537   0.301   9.089  1.9868  0.2554 -1.6835
  109OSM   H12G11268   1.519   0.145   9.167  1.0139 -0.0418  1.5439
  109OSM   C13F11269   1.717   0.181   9.074  0.9375  0.5257  1.0175
  109OSM   H13F11270   1.776   0.105   9.129  0.6776 -0.0088  0.5591
  109OSM   H13G11271   1.781   0.270   9.054  0.1806  0.6883 -0.8010
  109OSM   C14F11272   1.672   0.120   8.945  0.4546  0.3033  0.1254
  109OSM   H14F11273   1.630   0.206   8.889  3.1027  2.1570  0.7771
  109OSM   H14G11274   1.605   0.034   8.962 -0.8226  1.1978 -0.2555
  109OSM   C15F11275   1.804   0.079   8.871 -0.6660 -0.1529 -0.6930
  109OSM   H15F11276   1.840  -0.003   8.936 -2.2006 -0.1249  0.2533
  109OSM   H15G11277   1.873   0.165   8.880 -0.4865 -0.3639 -0.0378
  109OSM   C16F11278   1.783   0.051   8.720  0.3847 -0.6067  0.2393
  109OSM   H16F11279   1.684   0.002   8.705  0.9012 -1.2461 -1.2653
  109OSM   H16G11280   1.851  -0.035   8.698 -0.9643 -2.1620  1.8286
  109OSM   C17F11281   1.802   0.177   8.638 -0.6188  0.5124 -0.1396
  109OSM   H17F11282   1.865   0.252   8.690  0.0839 -0.8676  1.0649
  109OSM   H17G11283   1.702   0.227   8.635 -0.1024  1.5712 -0.3232
  109OSM   C18F11284   1.853   0.162   8.489  0.2984 -0.0951 -0.6671
  109OSM   H18F11285   1.962   0.139   8.489  0.1208 -1.5455  2.5996
  109OSM   H18G11286   1.847   0.257   8.432  2.6469 -0.6969 -2.0867
  109OSM   H18H11287   1.792   0.085   8.437  1.5733 -2.1362  0.6692
  110OSM      N11288   3.338   4.670  11.071 -0.4515  0.4843  0.1412
  110OSM    C1511289   3.259   4.756  11.169  0.5391 -0.8329  0.0842
  110OSM   H15A11290   3.187   4.694  11.220  0.4676 -1.7028 -1.0331
  110OSM   H15B11291   3.208   4.836  11.116 -1.5068  0.2015  3.3314
  110OSM   H15C11292   3.315   4.803  11.248  0.6715 -2.0142  0.7214
  110OSM    C1411293   3.446   4.751  11.009  0.6495  0.4953  0.5161
  110OSM   H14A11294   3.486   4.695  10.926 -0.4472  1.7017 -0.8883
  110OSM   H14B11295   3.521   4.770  11.084 -0.5339  1.7175  1.4274
  110OSM   H14C11296   3.397   4.840  10.973 -2.5163 -0.5364  1.9404
  110OSM    C1311297   3.394   4.559  11.155  0.4238  0.3218  0.3164
  110OSM   H13A11298   3.476   4.603  11.210  0.0365  0.5332  0.7266
  110OSM   H13B11299   3.435   4.470  11.109 -2.3866 -1.0629  0.2954
  110OSM   H13C11300   3.317   4.521  11.220  1.8902 -1.9932  0.8383
  110OSM    C1211301   3.241   4.618  10.962 -0.3336  0.3990  0.4466
  110OSM   H12A11302   3.192   4.702  10.915  0.5497  0.4282 -0.4508
  110OSM   H12B11303   3.165   4.567  11.019  0.1986 -0.8869  0.0366
  110OSM    C1111304   3.296   4.529  10.848  0.1595  0.2845  0.0292
  110OSM   H11A11305   3.377   4.578  10.791 -0.9181 -0.6086 -2.3840
  110OSM   H11B11306   3.209   4.524  10.779 -0.9851 -0.6742  1.4825
  110OSM      P11307   3.237   4.291  10.910  0.0092 -0.0404 -0.3214
  110OSM    O1311308   3.295   4.185  10.997  0.0589  0.2759 -0.1300
  110OSM    O1411309   3.115   4.357  10.957  0.6836  0.0076  0.2935
  110OSM    O1111310   3.199   4.231  10.760  0.3085 -0.4787  0.0956
  110OSM    O1211311   3.354   4.398  10.887 -0.6511 -0.2468 -0.2432
  110OSM    C1S11312   3.290   4.224  10.659 -0.4678 -0.2032 -0.4369
  110OSM    H1S11313   3.361   4.145  10.691 -0.4954 -0.4942 -1.0751
  110OSM    H1T11314   3.341   4.321  10.637 -0.6344  0.4228  1.7034
  110OSM     NF11315   3.325   4.164  10.431  0.4061  0.3601  0.1218
  110OSM    HNF11316   3.373   4.241  10.390  1.4659  1.0600  2.5103
  110OSM    C2S11317   3.226   4.194  10.521 -0.1928 -0.3081  0.5061
  110OSM    H2S11318   3.164   4.103  10.535 -1.3573  0.2692 -0.7009
  110OSM    C3S11319   3.131   4.315  10.488 -0.1310 -0.4187 -0.9207
  110OSM    H3S11320   3.192   4.408  10.476  0.0435 -0.4415 -0.2537
  110OSM     O311321   3.034   4.341  10.585  0.1630 -0.4177  0.1776
  110OSM    HO311322   3.066   4.288  10.658  1.0286  0.6422  0.5973
  110OSM    C4S11323   3.054   4.293  10.360 -0.0547  0.1726 -0.1781
  110OSM    H4S11324   2.953   4.251  10.371  0.2515 -0.2457  1.1815
  110OSM    C5S11325   3.097   4.325  10.234 -0.7211 -0.4218 -0.1075
  110OSM    H5S11326   3.191   4.380  10.217 -0.6399 -0.9863 -1.6289
  110OSM    C6S11327   3.004   4.285  10.117  0.1084  0.1080 -0.0281
  110OSM    H6S11328   2.899   4.291  10.154  0.2671 -0.7073  0.6003
  110OSM    H6T11329   3.031   4.183  10.081 -0.0861  0.0087  0.1040
  110OSM    C7S11330   3.016   4.382   9.999 -0.0221 -0.5306  0.5431
  110OSM    H7S11331   3.121   4.411   9.979 -0.8311  1.3549 -1.4340
  110OSM    H7T11332   2.960   4.478  10.007  1.4948  0.5091 -0.7945
  110OSM    C8S11333   2.975   4.308   9.874  0.1639 -0.1347  0.0470
  110OSM    H8S11334   2.865   4.290   9.869  0.1405  0.3828 -1.6811
  110OSM    H8T11335   3.027   4.213   9.850  0.7462  0.4491 -1.0568
  110OSM    C9S11336   2.997   4.400   9.748 -0.3936  0.2453 -0.9970
  110OSM    H9S11337   3.099   4.440   9.767  0.0068 -1.5211  0.9271
  110OSM    H9T11338   2.917   4.477   9.753  0.7210  1.4043 -0.1515
  110OSM   C10S11339   2.989   4.324   9.612  0.6435  0.1924 -0.3169
  110OSM   H10S11340   2.892   4.269   9.607 -0.7393  2.5001 -0.3725
  110OSM   H10T11341   3.075   4.257   9.589 -0.5536 -2.0985  1.4941
  110OSM   C11S11342   2.984   4.415   9.494  0.3377 -0.7414 -0.0107
  110OSM   H11S11343   3.072   4.483   9.494  0.1910 -0.5369 -0.6840
  110OSM   H11T11344   2.896   4.484   9.496  1.8382  1.3382 -1.4931
  110OSM   C12S11345   2.988   4.343   9.355  0.4349  0.4607  0.2015
  110OSM   H12S11346   2.901   4.275   9.361  2.8108 -2.9039 -0.2493
  110OSM   H12T11347   3.080   4.280   9.365  0.1936 -0.3680 -2.2084
  110OSM   C13S11348   2.984   4.444   9.238 -0.5180  0.6590  0.1744
  110OSM   H13S11349   3.084   4.492   9.238  0.7126 -1.7221  1.4449
  110OSM   H13T11350   2.893   4.507   9.250 -1.8296 -1.2256  0.5323
  110OSM   C14S11351   2.963   4.381   9.101  0.1199  0.6781  0.1325
  110OSM   H14S11352   2.881   4.307   9.100 -1.6956  2.5753  1.5443
  110OSM   H14T11353   3.059   4.329   9.077 -0.3625 -1.4768  2.4741
  110OSM   C15S11354   2.942   4.488   8.985  0.7737 -0.7467  0.1078
  110OSM   H15S11355   2.980   4.438   8.894  1.9890  0.0670  0.1496
  110OSM   H15T11356   3.000   4.582   8.993 -1.1218  0.5251 -0.3425
  110OSM   C16S11357   2.789   4.522   8.965  0.0099 -0.2592 -0.1377
  110OSM   H16S11358   2.729   4.493   9.054  1.4509  1.8577  1.6186
  110OSM   H16T11359   2.755   4.458   8.880 -0.5099 -0.4858  0.2352
  110OSM   C17S11360   2.756   4.667   8.943  0.9415  0.3585 -0.0131
  110OSM   H17S11361   2.804   4.709   8.852  0.3890  1.5868  0.2403
  110OSM   H17T11362   2.805   4.719   9.028 -1.2017  1.3309  0.6875
  110OSM   C18S11363   2.605   4.695   8.944  0.5250 -0.5272 -0.1619
  110OSM   H18S11364   2.541   4.626   9.002 -1.5742  2.4579  1.3686
  110OSM   H18T11365   2.572   4.712   8.840  0.4845  0.5821  0.0143
  110OSM   H18U11366   2.579   4.779   9.012 -1.9480  0.1180 -1.7701
  110OSM    C1F11367   3.388   4.051  10.431  0.0350  0.3302  0.1733
  110OSM     OF11368   3.350   3.966  10.510  0.1390  0.0342  0.3331
  110OSM    C2F11369   3.512   4.039  10.346  0.1051 -0.0607 -0.7106
  110OSM    H2F11370   3.601   4.055  10.410 -0.5747 -0.0950  0.2562
  110OSM    H2G11371   3.518   4.108  10.259 -2.2821  0.0950 -0.8183
  110OSM    C3F11372   3.520   3.894  10.292  0.3505  0.3274 -0.6187
  110OSM    H3F11373   3.423   3.878  10.241 -1.2254 -0.1943  2.3030
  110OSM    H3G11374   3.510   3.818  10.373  1.0270 -0.4973 -1.2840
  110OSM    C4F11375   3.643   3.877  10.197  0.1760  0.2333  0.9111
  110OSM    H4F11376   3.642   3.769  10.170 -2.4558  0.0853  1.3843
  110OSM    H4G11377   3.734   3.904  10.255 -0.5445  3.4381  0.7271
  110OSM    C5F11378   3.646   3.964  10.073 -0.2616  0.3247  0.2612
  110OSM    H5F11379   3.664   4.065  10.116 -1.0154  0.3419  0.5456
  110OSM    H5G11380   3.551   3.966  10.015 -0.9031 -0.2226  1.2713
  110OSM    C6F11381   3.753   3.931   9.964 -0.3939 -0.2094 -0.0982
  110OSM    H6F11382   3.752   3.824   9.937  0.0910  0.0993 -1.3849
  110OSM    H6G11383   3.860   3.948   9.991  0.3897 -0.2551 -2.8527
  110OSM    C7F11384   3.741   4.012   9.839 -0.2203  0.7041  0.3913
  110OSM    H7F11385   3.754   4.122   9.853  1.7828  0.5149  0.2258
  110OSM    H7G11386   3.641   4.005   9.790 -0.8687  2.4505  1.3488
  110OSM    C8F11387   3.842   3.960   9.724  0.3489 -0.5961  0.5886
  110OSM    H8F11388   3.823   4.008   9.626 -1.1831  1.0699  1.6314
  110OSM    H8G11389   3.828   3.853   9.699  1.0080 -0.5253 -0.1069
  110OSM    C9F11390   3.990   3.973   9.762  0.1739  0.1285 -0.9280
  110OSM    H9F11391   4.013   3.905   9.846 -3.7451 -1.9184 -1.2804
  110OSM   C10F11392   4.088   4.041   9.704  0.0187  0.8114  0.2446
  110OSM   H10F11393   4.190   4.031   9.743 -0.1423 -0.8443  0.2885
  110OSM   C11F11394   4.080   4.110   9.569 -1.0625 -1.2182  0.2325
  110OSM   H11F11395   4.123   4.211   9.587  1.5165 -2.0455 -0.7757
  110OSM   H11G11396   3.983   4.126   9.518 -1.6728  0.4924  1.8780
  110OSM   C12F11397   4.176   4.045   9.468 -0.5777  0.0832  0.7700
  110OSM   H12F11398   4.278   4.031   9.511 -0.1684  0.2858 -0.1191
  110OSM   H12G11399   4.174   4.118   9.384 -0.6241 -1.0171 -0.2011
  110OSM   C13F11400   4.144   3.910   9.399  0.7601 -0.0776  0.1175
  110OSM   H13F11401   4.182   3.909   9.295  2.1668 -1.9355  0.6061
  110OSM   H13G11402   4.034   3.918   9.390  0.9687  3.5091 -0.6984
  110OSM   C14F11403   4.200   3.791   9.475 -0.2129  0.1319  0.4514
  110OSM   H14F11404   4.164   3.790   9.580 -0.6724 -0.8196  0.3044
  110OSM   H14G11405   4.309   3.807   9.475 -0.4833  2.2641  0.4284
  110OSM   C15F11406   4.178   3.652   9.407  0.6532 -0.3505 -0.6101
  110OSM   H15F11407   4.234   3.660   9.311  1.6620 -0.6093 -0.0540
  110OSM   H15G11408   4.073   3.630   9.377  0.6607  0.2146 -1.0747
  110OSM   C16F11409   4.236   3.537   9.493 -0.5648  0.2651 -0.2423
  110OSM   H16F11410   4.180   3.442   9.478  1.4080 -0.8825 -0.6965
  110OSM   H16G11411   4.233   3.563   9.601 -0.6350 -0.3544 -0.0886
  110OSM   C17F11412   4.375   3.499   9.452 -0.6516 -0.2948  0.3889
  110OSM   H17F11413   4.444   3.578   9.490  0.4684 -0.7866 -0.5430
  110OSM   H17G11414   4.382   3.497   9.341  0.9651 -0.4141  0.4555
  110OSM   C18F11415   4.424   3.362   9.516 -0.5944 -0.1951  0.3708
  110OSM   H18F11416   4.421   3.361   9.627  0.2008  1.3491  0.4412
  110OSM   H18G11417   4.528   3.335   9.486 -1.0227 -0.2901 -1.1306
  110OSM   H18H11418   4.356   3.285   9.473 -3.4626  1.5495  1.5029
  111OSM      N11419   4.104   2.371  10.628  0.1719 -0.1282 -0.7425
  111OSM    C1511420   4.239   2.368  10.564  0.0782 -0.1258  0.2241
  111OSM   H15A11421   4.258   2.457  10.505  1.1452  0.6473  1.6870
  111OSM   H15B11422   4.246   2.279  10.504  2.0604  1.0132 -1.3483
  111OSM   H15C11423   4.323   2.346  10.628  1.3993 -1.2525 -1.7782
  111OSM    C1411424   4.088   2.491  10.720  0.6773 -0.2281  0.0679
  111OSM   H14A11425   4.110   2.570  10.649  0.7762 -1.6788 -1.5961
  111OSM   H14B11426   4.160   2.478  10.799  0.4404  1.8224  0.6629
  111OSM   H14C11427   3.985   2.498  10.750  0.0352  0.0211 -2.0115
  111OSM    C1311428   3.995   2.380  10.526 -0.2613  0.0481 -0.5500
  111OSM   H13A11429   4.008   2.299  10.456  0.9530  0.4698 -0.8373
  111OSM   H13B11430   4.004   2.473  10.471  0.9052  0.3572  0.1254
  111OSM   H13C11431   3.901   2.376  10.580 -0.0841 -0.4745 -0.2753
  111OSM    C1211432   4.083   2.254  10.711  0.5367 -0.0801 -0.5183
  111OSM   H12A11433   4.154   2.280  10.789  0.1879  2.1060 -0.8539
  111OSM   H12B11434   4.113   2.163  10.661 -0.0819  1.0065 -3.0239
  111OSM    C1111435   3.950   2.210  10.779 -0.2053 -0.2284 -0.6148
  111OSM   H11A11436   3.917   2.303  10.831  0.0205  0.0148 -0.9019
  111OSM   H11B11437   3.965   2.140  10.864 -1.7165 -0.2168 -0.3146
  111OSM      P11438   3.868   2.030  10.608  0.2812 -0.1334 -0.7930
  111OSM    O1311439   4.004   2.029  10.547 -0.1466  0.1730 -0.0060
  111OSM    O1411440   3.841   1.927  10.711  0.4820  0.1575 -0.1310
  111OSM    O1111441   3.746   2.035  10.504  0.4382  0.5060 -0.3404
  111OSM    O1211442   3.850   2.162  10.685 -0.4247 -0.2681 -0.0831
  111OSM    C1S11443   3.778   2.081  10.373  0.3743  0.6282  0.1381
  111OSM    H1S11444   3.836   2.003  10.319 -2.5889  0.3342 -2.9395
  111OSM    H1T11445   3.825   2.180  10.388 -2.7899  2.1240  0.9632
  111OSM     NF11446   3.726   2.197  10.166 -0.6686 -0.3095  0.5910
  111OSM    HNF11447   3.735   2.296  10.159  0.6918 -0.4963 -0.6936
  111OSM    C2S11448   3.663   2.132  10.278  0.0615  0.4710 -0.2780
  111OSM    H2S11449   3.602   2.045  10.247  2.3659 -2.1345  2.0373
  111OSM    C3S11450   3.568   2.227  10.359 -0.8015 -1.0160  0.2709
  111OSM    H3S11451   3.637   2.295  10.414 -1.2518  0.6864 -1.1498
  111OSM     O311452   3.493   2.171  10.463 -0.2989 -0.1652  0.2841
  111OSM    HO311453   3.514   2.078  10.474 -1.3677 -0.4195  0.2654
  111OSM    C4S11454   3.474   2.295  10.268  0.3218  0.5401  0.0127
  111OSM    H4S11455   3.418   2.219  10.212  1.2944 -1.0855  1.1225
  111OSM    C5S11456   3.446   2.425  10.259 -0.5060  0.0328 -0.2818
  111OSM    H5S11457   3.505   2.488  10.327 -0.2750 -0.0046 -0.4468
  111OSM    C6S11458   3.344   2.492  10.169 -0.2904  0.1204  0.9142
  111OSM    H6S11459   3.270   2.556  10.222 -0.1271 -0.9117  2.4609
  111OSM    H6T11460   3.293   2.424  10.097 -1.5420  2.1414 -0.1993
  111OSM    C7S11461   3.411   2.585  10.063  0.2700  0.6875 -0.0380
  111OSM    H7S11462   3.463   2.524   9.986 -0.6494  1.6369 -1.4736
  111OSM    H7T11463   3.487   2.643  10.120 -0.5503  1.5090  0.2423
  111OSM    C8S11464   3.313   2.679   9.989  0.3820  0.7322 -0.5519
  111OSM    H8S11465   3.233   2.709  10.061 -1.5407 -0.5712 -2.0215
  111OSM    H8T11466   3.264   2.626   9.904  1.0611 -0.8206 -0.0121
  111OSM    C9S11467   3.379   2.803   9.944 -0.0188 -0.5671  0.4591
  111OSM    H9S11468   3.453   2.780   9.864  2.1550 -1.1108  2.5008
  111OSM    H9T11469   3.459   2.834  10.014  3.0580 -2.1272 -2.0739
  111OSM   C10S11470   3.286   2.926   9.939  0.0637  1.0982  0.2275
  111OSM   H10S11471   3.242   2.928  10.041  1.8654 -1.5943  1.1846
  111OSM   H10T11472   3.197   2.912   9.874 -0.1450 -2.3877  1.0156
  111OSM   C11S11473   3.353   3.062   9.913  0.0431  0.1221  0.1244
  111OSM   H11S11474   3.417   3.094   9.998  0.5213 -0.6179  0.0574
  111OSM   H11T11475   3.269   3.131   9.896 -0.2357  0.2691  1.9957
  111OSM   C12S11476   3.449   3.066   9.791  1.2689 -0.4099 -0.6452
  111OSM   H12S11477   3.544   3.008   9.800  0.4485 -1.8388 -0.8476
  111OSM   H12T11478   3.482   3.171   9.775  1.4525 -0.3356  0.1702
  111OSM   C13S11479   3.390   3.014   9.659 -0.1138  0.4042 -0.4503
  111OSM   H13S11480   3.316   3.086   9.618 -0.0169  0.7550 -0.0263
  111OSM   H13T11481   3.354   2.910   9.678  2.8933 -0.5132  0.7776
  111OSM   C14S11482   3.506   2.999   9.560  0.6924  0.1014  0.1884
  111OSM   H14S11483   3.600   2.961   9.607 -0.0898 -0.4931  1.3058
  111OSM   H14T11484   3.532   3.102   9.528  0.3470  0.1702  0.1317
  111OSM   C15S11485   3.470   2.901   9.448  0.1322 -1.1298  0.2803
  111OSM   H15S11486   3.382   2.949   9.400  0.2836 -0.8207  0.3108
  111OSM   H15T11487   3.440   2.801   9.485 -0.7575 -0.5729  1.1028
  111OSM   C16S11488   3.578   2.896   9.335  0.0470 -0.4947  0.2605
  111OSM   H16S11489   3.652   2.817   9.358 -2.0055 -2.3230  0.9367
  111OSM   H16T11490   3.626   2.996   9.333 -3.4058  1.3379 -1.8042
  111OSM   C17S11491   3.524   2.869   9.197 -0.7308  0.9336  0.1817
  111OSM   H17S11492   3.461   2.957   9.171 -1.3536  0.5709  0.4418
  111OSM   H17T11493   3.449   2.788   9.206 -0.5346  0.2316 -3.1520
  111OSM   C18S11494   3.631   2.842   9.088  0.1201  0.3854 -0.5847
  111OSM   H18S11495   3.587   2.844   8.986 -0.1282  1.0222 -0.4709
  111OSM   H18T11496   3.677   2.743   9.109 -2.9822 -1.3112 -1.1969
  111OSM   H18U11497   3.713   2.917   9.090  0.0869  0.5266 -2.3820
  111OSM    C1F11498   3.779   2.121  10.071 -0.6026 -0.2349  0.2377
  111OSM     OF11499   3.774   1.998  10.071 -0.1566  0.0312 -0.2253
  111OSM    C2F11500   3.836   2.198   9.952  0.0649 -0.7067 -0.5267
  111OSM    H2F11501   3.922   2.263   9.980 -0.5118  2.6803 -5.2975
  111OSM    H2G11502   3.760   2.269   9.915  1.7868  1.5347 -0.0322
  111OSM    C3F11503   3.876   2.104   9.840 -0.1148  0.7861  0.0758
  111OSM    H3F11504   3.788   2.041   9.814  1.9197 -1.2501 -2.3976
  111OSM    H3G11505   3.956   2.031   9.867 -0.5996 -0.4064 -1.5637
  111OSM    C4F11506   3.934   2.186   9.727 -0.1592  0.5448  0.6772
  111OSM    H4F11507   4.020   2.249   9.759  1.1842 -0.6867 -0.3205
  111OSM    H4G11508   3.858   2.257   9.690 -1.3150  0.9648  3.6130
  111OSM    C5F11509   3.998   2.107   9.614 -0.9911 -0.7112 -0.2731
  111OSM    H5F11510   4.084   2.050   9.654 -0.3151  0.0091 -0.6703
  111OSM    H5G11511   4.035   2.185   9.545  0.8155 -1.6895 -0.4571
  111OSM    C6F11512   3.922   2.006   9.533  0.5145 -0.3998  0.1023
  111OSM    H6F11513   3.854   1.953   9.603 -0.7585 -1.4267 -1.7994
  111OSM    H6G11514   3.999   1.935   9.494  0.3739 -1.0968  1.0515
  111OSM    C7F11515   3.836   2.058   9.416  0.0686  0.1720 -0.6790
  111OSM    H7F11516   3.759   2.122   9.464 -0.8908 -0.6625 -1.0706
  111OSM    H7G11517   3.783   1.975   9.364 -0.2960 -0.7551  1.1019
  111OSM    C8F11518   3.910   2.158   9.314  0.0810  0.0321  0.2411
  111OSM    H8F11519   3.967   2.233   9.373  2.8086 -2.1666  0.5766
  111OSM    H8G11520   3.829   2.215   9.263 -0.6550 -0.4410  0.8465
  111OSM    C9F11521   3.987   2.077   9.216 -0.3806 -0.7404  0.6926
  111OSM    H9F11522   4.091   2.055   9.245  0.0808  0.6484  0.1607
  111OSM   C10F11523   3.951   2.028   9.087 -0.1149  0.2550 -0.2979
  111OSM   H10F11524   4.019   1.954   9.042  0.7844 -0.7445  2.4374
  111OSM   C11F11525   3.820   2.039   9.029 -0.7909 -0.3976  0.7775
  111OSM   H11F11526   3.767   2.120   9.084  1.3476  0.2199  2.0538
  111OSM   H11G11527   3.770   1.941   9.045 -2.6944  0.6369  1.4335
  111OSM   C12F11528   3.821   2.083   8.876 -0.3768 -0.6759  0.0369
  111OSM   H12F11529   3.865   2.001   8.814 -0.6681  0.0464 -1.1679
  111OSM   H12G11530   3.882   2.175   8.877 -1.9561  0.4119  2.1079
  111OSM   C13F11531   3.677   2.114   8.825  0.2204  0.8636  1.0378
  111OSM   H13F11532   3.626   2.178   8.899  1.0599  1.0707  1.4532
  111OSM   H13G11533   3.623   2.018   8.809  0.8161  0.9690 -2.2291
  111OSM   C14F11534   3.674   2.190   8.691  0.2727  0.6222  0.7836
  111OSM   H14F11535   3.712   2.131   8.604  1.2843  0.9660  0.9757
  111OSM   H14G11536   3.756   2.266   8.693  2.3585 -1.5138  3.0233
  111OSM   C15F11537   3.541   2.256   8.655 -0.4807 -0.4597 -0.3141
  111OSM   H15F11538   3.520   2.336   8.729 -0.0110 -0.8432  0.2458
  111OSM   H15G11539   3.455   2.185   8.662 -2.4444  1.9482  3.9333
  111OSM   C16F11540   3.546   2.303   8.504  0.0916 -0.0553 -0.3077
  111OSM   H16F11541   3.554   2.210   8.443  0.0612 -0.4206  0.2384
  111OSM   H16G11542   3.645   2.352   8.487  1.1132 -2.4008 -1.6800
  111OSM   C17F11543   3.419   2.390   8.466 -0.2294  0.5764  0.4615
  111OSM   H17F11544   3.384   2.446   8.555  1.0420  1.6535  0.3192
  111OSM   H17G11545   3.361   2.297   8.449 -0.0561  0.6625 -0.6818
  111OSM   C18F11546   3.438   2.466   8.337  0.0515 -0.2326  0.4208
  111OSM   H18F11547   3.347   2.528   8.321  1.7664  3.3373  2.9556
  111OSM   H18G11548   3.465   2.390   8.261  0.9757 -0.6785  1.1727
  111OSM   H18H11549   3.524   2.534   8.356  0.0113 -0.3358  0.9926
  112OSM      N11550   2.041   1.007  11.116  0.2698  0.5820 -0.8933
  112OSM    C1511551   2.005   0.858  11.125  0.1859  0.3902 -0.1408
  112OSM   H15A11552   2.085   0.791  11.096 -0.5077 -0.0694 -1.0300
  112OSM   H15B11553   1.909   0.842  11.078  0.2165  1.4666 -0.5952
  112OSM   H15C11554   1.985   0.832  11.228 -1.0356  2.0896  0.0973
  112OSM    C1411555   1.926   1.079  11.180  0.2332 -0.2919  0.0896
  112OSM   H14A11556   1.848   1.092  11.106 -0.6337 -1.7087  0.7116
  112OSM   H14B11557   1.961   1.176  11.211  1.3823  0.0488 -2.1164
  112OSM   H14C11558   1.882   1.031  11.267 -0.6571  2.4768  1.2862
  112OSM    C1311559   2.164   1.021  11.203  0.7317 -0.5386  0.2831
  112OSM   H13A11560   2.245   0.956  11.172  3.0022  2.1372  0.2172
  112OSM   H13B11561   2.141   0.993  11.305  0.6517 -0.3442  0.3171
  112OSM   H13C11562   2.188   1.126  11.201  0.5041 -0.4770  0.6109
  112OSM    C1211563   2.052   1.055  10.978 -0.4499  0.2870 -0.5085
  112OSM   H12A11564   2.141   1.020  10.928 -0.2316 -0.1438  0.1653
  112OSM   H12B11565   2.046   1.163  10.980  0.0325  0.3400 -1.4291
  112OSM    C1111566   1.937   1.018  10.874 -0.4141 -0.1649  0.2578
  112OSM   H11A11567   1.908   0.911  10.875 -4.5623  0.8218  0.3256
  112OSM   H11B11568   1.986   1.043  10.778  1.1241  0.3917  1.1484
  112OSM      P11569   1.782   1.213  10.806 -0.3828  0.3591  0.0416
  112OSM    O1311570   1.634   1.224  10.818  0.0625 -1.1103 -0.3307
  112OSM    O1411571   1.860   1.335  10.832  0.2021  0.0666 -0.3913
  112OSM    O1111572   1.815   1.157  10.662  0.3107  0.7917 -0.6281
  112OSM    O1211573   1.828   1.096  10.906  0.5241 -0.2889 -0.0014
  112OSM    C1S11574   1.735   1.035  10.622  0.5255 -0.1375 -0.8576
  112OSM    H1S11575   1.627   1.059  10.623  0.9131  1.8864 -2.3184
  112OSM    H1T11576   1.758   0.949  10.689 -0.1233  0.8463  0.6674
  112OSM     NF11577   1.680   0.877  10.432 -0.8161  0.1675  0.1367
  112OSM    HNF11578   1.707   0.783  10.450  1.9107  1.1121  1.4022
  112OSM    C2S11579   1.771   0.986  10.476  0.0523 -0.3134  0.6388
  112OSM    H2S11580   1.762   1.070  10.403  2.5913  1.5752  2.3305
  112OSM    C3S11581   1.924   0.954  10.475  0.0946 -0.5777 -0.6304
  112OSM    H3S11582   1.946   0.867  10.541  2.5730  0.4219 -0.0277
  112OSM     O311583   2.020   1.059  10.502  0.1243 -0.3273  0.1275
  112OSM    HO311584   1.977   1.106  10.575 -2.0870  1.1662 -1.9734
  112OSM    C4S11585   1.965   0.893  10.340  0.0728  0.4920 -0.0054
  112OSM    H4S11586   1.999   0.789  10.341  1.3494  0.8860 -0.4289
  112OSM    C5S11587   1.982   0.961  10.229 -0.2377  0.3513 -0.2976
  112OSM    H5S11588   1.967   1.070  10.239  3.2450  0.7515  6.6678
  112OSM    C6S11589   2.055   0.898  10.114 -0.3995 -0.5222 -0.2393
  112OSM    H6S11590   1.974   0.881  10.040 -0.0003 -0.0795 -0.7887
  112OSM    H6T11591   2.094   0.799  10.144 -1.4689 -1.1258 -0.7758
  112OSM    C7S11592   2.159   0.987  10.050  0.3508 -1.1682  0.4730
  112OSM    H7S11593   2.229   1.027  10.126 -1.2541  1.0241  0.9207
  112OSM    H7T11594   2.103   1.071  10.003 -4.4735 -3.2647  1.7798
  112OSM    C8S11595   2.223   0.917   9.942 -0.0486 -0.0628  0.1204
  112OSM    H8S11596   2.239   0.811   9.971  0.3537  0.0930  0.4765
  112OSM    H8T11597   2.324   0.956   9.919 -0.0288  0.4229  0.9968
  112OSM    C9S11598   2.148   0.918   9.808 -0.3636 -0.8344 -0.0944
  112OSM    H9S11599   2.141   1.024   9.776  1.2497 -0.4032  0.8534
  112OSM    H9T11600   2.044   0.879   9.814 -1.3165  1.4370 -0.7070
  112OSM   C10S11601   2.224   0.847   9.694 -0.2065 -0.1400  0.1584
  112OSM   H10S11602   2.225   0.738   9.714  0.7954 -0.0809  0.5124
  112OSM   H10T11603   2.330   0.879   9.703 -0.6262  1.6064 -0.6238
  112OSM   C11S11604   2.148   0.868   9.565 -0.2651  0.4552 -0.2255
  112OSM   H11S11605   2.092   0.963   9.556  0.0861  1.0473  2.8758
  112OSM   H11T11606   2.072   0.787   9.566  1.0194 -0.7786  0.7728
  112OSM   C12S11607   2.229   0.836   9.435 -0.9396 -0.4399 -0.1709
  112OSM   H12S11608   2.244   0.727   9.421  0.1328 -0.2268 -0.7546
  112OSM   H12T11609   2.327   0.887   9.442  0.8818 -3.6581 -0.1458
  112OSM   C13S11610   2.157   0.875   9.305  0.0827  0.1573 -0.0095
  112OSM   H13S11611   2.114   0.974   9.330 -1.2983 -0.9027  2.1373
  112OSM   H13T11612   2.061   0.820   9.291 -0.1720  0.9678 -1.7922
  112OSM   C14S11613   2.253   0.872   9.190 -0.4514  0.1749 -0.8002
  112OSM   H14S11614   2.282   0.769   9.159  0.0503  0.2747 -0.6722
  112OSM   H14T11615   2.337   0.931   9.231 -1.6457  1.3997 -0.0529
  112OSM   C15S11616   2.206   0.946   9.071 -0.5969  0.3531  0.1415
  112OSM   H15S11617   2.213   1.055   9.091  1.0243  0.1245  0.9104
  112OSM   H15T11618   2.103   0.916   9.041 -0.5492  1.5244 -1.2672
  112OSM   C16S11619   2.299   0.938   8.954  0.1125 -0.3337 -0.3179
  112OSM   H16S11620   2.295   0.833   8.918  0.3421 -0.2448 -0.6041
  112OSM   H16T11621   2.402   0.966   8.982 -0.1075 -0.3209  0.5023
  112OSM   C17S11622   2.256   1.030   8.836  0.4958 -0.3936 -0.0490
  112OSM   H17S11623   2.240   1.131   8.880  0.1533 -0.4715  0.0051
  112OSM   H17T11624   2.159   1.004   8.789 -1.0702  2.9792  0.9302
  112OSM   C18S11625   2.362   1.048   8.731  0.1474  0.0688  0.4345
  112OSM   H18S11626   2.465   1.034   8.772  0.8765 -1.0732 -1.6088
  112OSM   H18T11627   2.363   1.148   8.684 -2.4192  0.2848  0.7242
  112OSM   H18U11628   2.353   0.966   8.656 -1.6956  1.2224 -0.6655
  112OSM    C1F11629   1.557   0.912  10.394  0.1516  0.5486  0.4197
  112OSM     OF11630   1.523   1.027  10.368 -0.2150  0.1302 -0.1519
  112OSM    C2F11631   1.458   0.800  10.364 -0.0405 -0.0888  0.7791
  112OSM    H2F11632   1.383   0.808  10.445  0.8212  0.2476  1.5664
  112OSM    H2G11633   1.511   0.702  10.365  0.2346  0.0640  0.9821
  112OSM    C3F11634   1.386   0.816  10.229  0.3992  0.0939 -0.2999
  112OSM    H3F11635   1.326   0.908  10.243  1.0850  0.5040 -0.0198
  112OSM    H3G11636   1.318   0.729  10.215 -0.9592  1.1111 -0.2636
  112OSM    C4F11637   1.481   0.840  10.110 -0.5382 -0.1507  0.2789
  112OSM    H4F11638   1.545   0.930  10.128 -0.9975  0.3036 -0.3281
  112OSM    H4G11639   1.419   0.858  10.020 -1.1348 -0.1395  0.6901
  112OSM    C5F11640   1.580   0.720  10.090 -1.1580  0.2200  0.4365
  112OSM    H5F11641   1.524   0.626  10.105 -1.5845  0.7879  3.0076
  112OSM    H5G11642   1.652   0.724  10.175 -0.8725  1.9385  0.1525
  112OSM    C6F11643   1.657   0.716   9.956 -0.2031  0.8974 -0.2578
  112OSM    H6F11644   1.709   0.812   9.935  1.3133  1.0064  3.2608
  112OSM    H6G11645   1.577   0.713   9.879 -0.8184 -1.1704  0.3836
  112OSM    C7F11646   1.769   0.613   9.959  0.0595  0.0198 -0.3686
  112OSM    H7F11647   1.731   0.509   9.973  0.5714  0.0666  1.7249
  112OSM    H7G11648   1.833   0.643  10.044 -0.8598  0.3191  0.2383
  112OSM    C8F11649   1.861   0.611   9.840 -0.8595 -0.6681 -0.0084
  112OSM    H8F11650   1.961   0.573   9.868  0.2734  0.3047 -2.4734
  112OSM    H8G11651   1.882   0.717   9.814  0.1879 -0.7250  0.5606
  112OSM    C9F11652   1.809   0.531   9.723 -0.0393  0.0717 -0.0233
  112OSM    H9F11653   1.779   0.430   9.752  0.3710  0.0342  0.2836
  112OSM   C10F11654   1.786   0.564   9.599 -0.2807 -0.4453  0.4662
  112OSM   H10F11655   1.738   0.498   9.525 -0.2248 -0.4956  0.4742
  112OSM   C11F11656   1.816   0.699   9.540  1.3854  0.8410  0.1956
  112OSM   H11F11657   1.909   0.693   9.479  0.2755 -3.1056 -1.4492
  112OSM   H11G11658   1.818   0.786   9.609 -1.8341  3.5828 -2.7782
  112OSM   C12F11659   1.693   0.741   9.454  0.0392 -0.3785  0.0457
  112OSM   H12F11660   1.707   0.848   9.429  0.2674 -0.4164  0.0096
  112OSM   H12G11661   1.602   0.731   9.517 -0.5068  1.4395 -0.4161
  112OSM   C13F11662   1.681   0.662   9.325 -0.8653 -0.0508 -0.0334
  112OSM   H13F11663   1.673   0.554   9.349 -0.1083  0.1478  1.2285
  112OSM   H13G11664   1.779   0.681   9.277  1.0933  0.3068  3.7162
  112OSM   C14F11665   1.558   0.706   9.249 -0.5223  0.5824  0.3574
  112OSM   H14F11666   1.560   0.809   9.207 -0.8649  0.5030  0.1399
  112OSM   H14G11667   1.476   0.699   9.323  0.5047  0.0231  1.4740
  112OSM   C15F11668   1.506   0.613   9.144  0.3260 -0.1339  0.9057
  112OSM   H15F11669   1.400   0.636   9.120  0.2627  0.4209  1.6637
  112OSM   H15G11670   1.512   0.510   9.185  3.8662  0.0793  1.1907
  112OSM   C16F11671   1.575   0.606   9.012 -0.5590 -0.4546  0.1708
  112OSM   H16F11672   1.681   0.574   9.005 -0.4688  0.1502 -1.7178
  112OSM   H16G11673   1.580   0.714   8.987 -0.9044 -0.5938 -0.5053
  112OSM   C17F11674   1.502   0.531   8.897 -0.0834 -0.0215  0.3842
  112OSM   H17F11675   1.397   0.566   8.908 -0.1492 -0.5148  1.4551
  112OSM   H17G11676   1.497   0.422   8.914 -0.9193 -0.0151  0.2636
  112OSM   C18F11677   1.558   0.560   8.755  0.5432  0.0677  0.1491
  112OSM   H18F11678   1.485   0.533   8.676 -0.5002 -2.1336  1.7781
  112OSM   H18G11679   1.649   0.503   8.726  1.4964  1.4820  0.2607
  112OSM   H18H11680   1.587   0.667   8.746  0.4264  0.3064  2.2062
  113OSM      N11681   5.492   3.995  10.759  0.0626 -0.2738 -0.3183
  113OSM    C1511682   5.419   3.980  10.884  0.1349 -0.6273 -0.3203
  113OSM   H15A11683   5.355   4.067  10.897  0.6090 -0.4396  0.9352
  113OSM   H15B11684   5.474   3.988  10.976 -0.6692  1.0458  0.0531
  113OSM   H15C11685   5.358   3.891  10.888  0.1186 -0.5945  0.1543
  113OSM    C1411686   5.576   4.126  10.756 -0.0083  0.5766 -0.4466
  113OSM   H14A11687   5.519   4.210  10.792 -0.3285  0.1651  0.0236
  113OSM   H14B11688   5.611   4.138  10.655 -1.3795 -0.0760 -1.0112
  113OSM   H14C11689   5.658   4.106  10.824 -1.9708 -2.6976  1.2454
  113OSM    C1311690   5.580   3.878  10.747 -0.4945  0.2293  0.8160
  113OSM   H13A11691   5.654   3.876  10.826  0.6277  1.5422 -0.1741
  113OSM   H13B11692   5.637   3.884  10.656 -1.8668 -2.6319 -0.3454
  113OSM   H13C11693   5.529   3.783  10.758  1.5698 -1.2020 -1.1617
  113OSM    C1211694   5.398   4.003  10.640 -0.1743  0.5220 -0.0119
  113OSM   H12A11695   5.331   3.919  10.649 -1.7598  1.7638  0.2328
  113OSM   H12B11696   5.455   3.994  10.548  0.9605 -0.8569  0.7891
  113OSM    C1111697   5.299   4.119  10.626  0.3632  0.0447 -0.4590
  113OSM   H11A11698   5.266   4.141  10.522 -1.6148  2.8491  0.6259
  113OSM   H11B11699   5.340   4.214  10.667 -0.0679 -0.2062  0.5744
  113OSM      P11700   5.073   3.999  10.698  0.1468  0.5514 -0.3945
  113OSM    O1311701   5.130   3.866  10.678 -0.0339  0.2249  0.6724
  113OSM    O1411702   4.967   4.016  10.802  0.1062 -0.0761  0.0423
  113OSM    O1111703   5.027   4.047  10.552  0.3866 -0.1137 -0.0997
  113OSM    O1211704   5.189   4.102  10.718  0.1422 -0.0695  0.6733
  113OSM    C1S11705   4.911   4.123  10.529  0.2206  0.5707 -0.0305
  113OSM    H1S11706   4.886   4.194  10.610  0.8427 -2.1694  2.7694
  113OSM    H1T11707   4.821   4.057  10.523 -0.9026  1.9240  1.1189
  113OSM     NF11708   4.798   4.277  10.366 -0.1338 -0.4882  0.3484
  113OSM    HNF11709   4.726   4.243  10.305  0.4985  0.8194 -1.1992
  113OSM    C2S11710   4.922   4.198  10.387 -0.8819 -0.4623 -0.0235
  113OSM    H2S11711   5.010   4.266  10.391 -0.4562 -1.0705  1.2692
  113OSM    C3S11712   4.963   4.098  10.278  0.1271 -0.1052 -0.7948
  113OSM    H3S11713   4.886   4.019  10.266 -0.6346  0.7304 -1.5230
  113OSM     O311714   5.099   4.051  10.295 -0.1729  0.0796 -0.2556
  113OSM    HO311715   5.120   4.064  10.387 -0.1302  0.4210 -0.3115
  113OSM    C4S11716   4.952   4.178  10.154 -0.0436 -0.1355 -0.7784
  113OSM    H4S11717   5.019   4.265  10.154 -0.5689  0.2996  0.8749
  113OSM    C5S11718   4.868   4.153  10.049 -0.3353 -0.1600  0.7234
  113OSM    H5S11719   4.798   4.069  10.060 -0.5204 -0.0940  0.1057
  113OSM    C6S11720   4.861   4.247   9.933 -0.7170 -0.4539 -0.3646
  113OSM    H6S11721   4.877   4.349   9.973 -0.7924 -0.2980 -0.7259
  113OSM    H6T11722   4.758   4.264   9.895 -0.2964  2.2564 -0.4795
  113OSM    C7S11723   4.953   4.204   9.820 -0.3740  0.0293  1.0981
  113OSM    H7S11724   4.923   4.102   9.785 -0.2631 -0.4527  2.3576
  113OSM    H7T11725   5.061   4.186   9.841 -0.0399 -0.1999 -0.6139
  113OSM    C8S11726   4.952   4.299   9.696 -0.5756 -0.6175  0.1109
  113OSM    H8S11727   5.010   4.388   9.727 -0.5976 -1.1058  1.6879
  113OSM    H8T11728   4.845   4.326   9.687 -0.4469  0.1295  0.7446
  113OSM    C9S11729   4.998   4.224   9.568 -0.2101 -0.7583 -1.2876
  113OSM    H9S11730   4.950   4.124   9.569  0.9587 -1.3435 -1.7925
  113OSM    H9T11731   5.109   4.217   9.571 -0.1464 -0.4362  3.0709
  113OSM   C10S11732   4.967   4.294   9.432  0.5371  0.0697 -0.2981
  113OSM   H10S11733   5.030   4.385   9.422  0.5585 -0.0978 -1.8208
  113OSM   H10T11734   4.861   4.327   9.424 -0.0449 -1.9333 -1.6166
  113OSM   C11S11735   4.996   4.191   9.314  0.0718  0.3682 -0.3700
  113OSM   H11S11736   4.938   4.097   9.331 -0.0937  0.3672 -0.9411
  113OSM   H11T11737   5.104   4.169   9.330  0.0820 -0.3067 -1.3004
  113OSM   C12S11738   4.975   4.251   9.179  0.2988  0.1096  0.6255
  113OSM   H12S11739   5.045   4.337   9.186 -0.6255  1.1990 -2.0528
  113OSM   H12T11740   4.873   4.292   9.171 -0.1990 -1.2673 -0.7262
  113OSM   C13S11741   4.999   4.157   9.060  0.1731 -0.1690 -0.2761
  113OSM   H13S11742   4.903   4.105   9.039 -0.0121 -0.2243  0.6991
  113OSM   H13T11743   5.077   4.082   9.087  0.2770  0.1028  0.1941
  113OSM   C14S11744   5.048   4.219   8.923  0.2868  0.3673  0.4102
  113OSM   H14S11745   5.145   4.267   8.948  0.2746  0.5046  0.1958
  113OSM   H14T11746   4.979   4.304   8.904 -0.7735 -0.8014 -1.2154
  113OSM   C15S11747   5.056   4.117   8.803  0.4584 -0.0094  0.2513
  113OSM   H15S11748   4.972   4.045   8.799 -0.0131  0.4866  0.9423
  113OSM   H15T11749   5.146   4.054   8.818  0.6789  0.4600  1.0066
  113OSM   C16S11750   5.057   4.192   8.673 -0.5422  0.2223  1.2832
  113OSM   H16S11751   5.150   4.253   8.666 -1.1653  1.3735  2.6597
  113OSM   H16T11752   4.968   4.257   8.680  0.1790  1.3470  0.3290
  113OSM   C17S11753   5.032   4.108   8.553  0.4073 -0.3368  0.2129
  113OSM   H17S11754   4.952   4.033   8.571 -2.2480  1.3778 -3.3752
  113OSM   H17T11755   5.119   4.043   8.529 -0.2996 -0.7666 -1.2896
  113OSM   C18S11756   4.983   4.187   8.434 -0.4351 -0.1558  0.9566
  113OSM   H18S11757   4.895   4.248   8.462  1.2472  2.7772  0.3044
  113OSM   H18T11758   4.967   4.121   8.346 -1.2779  0.6133  0.5127
  113OSM   H18U11759   5.061   4.259   8.400 -1.2305  1.0494  1.6044
  113OSM    C1F11760   4.762   4.378  10.442 -1.1822  0.3962 -0.1103
  113OSM     OF11761   4.829   4.427  10.531  0.2684 -0.2703  0.1995
  113OSM    C2F11762   4.620   4.431  10.422 -0.0590 -0.1519  0.8225
  113OSM    H2F11763   4.620   4.519  10.491 -0.4825 -0.2734  0.9801
  113OSM    H2G11764   4.541   4.360  10.456 -1.5305  0.5445 -0.9820
  113OSM    C3F11765   4.586   4.470  10.277  0.2391 -0.2858 -0.2108
  113OSM    H3F11766   4.476   4.485  10.268  0.3688 -0.1089 -1.6816
  113OSM    H3G11767   4.595   4.377  10.216  0.6453 -1.6092  1.7682
  113OSM    C4F11768   4.656   4.593  10.225  0.2089 -0.6949 -0.5460
  113OSM    H4F11769   4.763   4.577  10.203  0.8820  0.0040  1.9292
  113OSM    H4G11770   4.660   4.662  10.312 -1.1464  0.6025 -1.4578
  113OSM    C5F11771   4.597   4.669  10.100  0.3605 -0.2118  0.0089
  113OSM    H5F11772   4.663   4.750  10.061 -1.2962  1.7641  1.1151
  113OSM    H5G11773   4.509   4.728  10.133  1.2872  1.4455 -0.3713
  113OSM    C6F11774   4.577   4.581   9.977  0.0040  0.6175  0.0546
  113OSM    H6F11775   4.496   4.505   9.988 -0.1345  0.6369 -0.8091
  113OSM    H6G11776   4.669   4.523   9.956 -0.1451 -0.3953  1.9228
  113OSM    C7F11777   4.568   4.667   9.858 -0.2283  0.1957  0.0398
  113OSM    H7F11778   4.659   4.731   9.858  1.8554 -2.5656  1.1052
  113OSM    H7G11779   4.479   4.732   9.871  0.2822  0.5596  2.0367
  113OSM    C8F11780   4.573   4.584   9.722  0.2878 -0.2445 -0.3043
  113OSM    H8F11781   4.654   4.509   9.729 -0.6686 -2.4003 -6.3797
  113OSM    H8G11782   4.613   4.652   9.644  1.4533 -0.6214 -0.0512
  113OSM    C9F11783   4.451   4.512   9.676 -0.7107 -0.1894 -0.1628
  113OSM    H9F11784   4.359   4.544   9.727 -0.3379  0.4975  0.0838
  113OSM   C10F11785   4.449   4.397   9.604 -0.0643  0.5206 -0.5406
  113OSM   H10F11786   4.347   4.356   9.595 -1.2690  3.0225  0.7427
  113OSM   C11F11787   4.564   4.324   9.541  0.3916  0.0874  0.7640
  113OSM   H11F11788   4.576   4.223   9.584 -0.3455 -0.4877 -0.3296
  113OSM   H11G11789   4.653   4.388   9.561 -1.3497  2.2221  2.1330
  113OSM   C12F11790   4.564   4.304   9.388  0.1140 -0.6705 -0.3026
  113OSM   H12F11791   4.664   4.270   9.354  0.6831  0.6620 -0.0245
  113OSM   H12G11792   4.562   4.400   9.332  2.6508 -1.8465 -2.6323
  113OSM   C13F11793   4.443   4.219   9.337 -0.2957  0.4137 -0.1213
  113OSM   H13F11794   4.348   4.253   9.384 -1.0097 -1.9185  0.2432
  113OSM   H13G11795   4.456   4.113   9.367  4.6994  1.0179  0.8024
  113OSM   C14F11796   4.430   4.233   9.190  0.0079 -0.0125 -0.2066
  113OSM   H14F11797   4.527   4.222   9.137  0.3639 -0.4584  0.5167
  113OSM   H14G11798   4.384   4.333   9.178  0.4986  0.1475 -0.7925
  113OSM   C15F11799   4.332   4.123   9.131  0.0685 -0.8993 -0.1597
  113OSM   H15F11800   4.308   4.155   9.028 -0.2965  0.5205  0.3426
  113OSM   H15G11801   4.238   4.112   9.189  0.2194  0.6646  0.4350
  113OSM   C16F11802   4.389   3.977   9.115 -0.4333  0.5662 -0.1631
  113OSM   H16F11803   4.406   3.934   9.216 -0.4283  1.8064  0.3921
  113OSM   H16G11804   4.487   3.978   9.062  0.3960 -0.9964  1.2328
  113OSM   C17F11805   4.288   3.888   9.030  0.4318 -0.8196  0.1599
  113OSM   H17F11806   4.287   3.933   8.928 -0.4708  0.8769  0.8799
  113OSM   H17G11807   4.183   3.901   9.062  0.2520 -0.4720 -0.5431
  113OSM   C18F11808   4.327   3.746   9.020 -0.5416  0.3703  0.6180
  113OSM   H18F11809   4.432   3.748   8.984 -0.1037  1.3380  1.8842
  113OSM   H18G11810   4.270   3.683   8.948 -0.0160 -0.1678  0.6597
  113OSM   H18H11811   4.333   3.697   9.120 -1.0317 -2.1112 -0.4873
  114OSM      N11812   4.156   5.489  11.573  0.2483  0.1235  0.4473
  114OSM    C1511813   4.135   5.557  11.708  0.4376  0.5186  0.4694
  114OSM   H15A11814   4.220   5.541  11.773  1.7483 -1.1320 -1.5303
  114OSM   H15B11815   4.050   5.510  11.754 -0.4522  0.3403 -1.2794
  114OSM   H15C11816   4.117   5.663  11.694 -1.1506  0.2275  0.1412
  114OSM    C1411817   4.279   5.547  11.515  0.6131  0.0150  0.0012
  114OSM   H14A11818   4.270   5.653  11.494 -2.3874  0.0900  1.2171
  114OSM   H14B11819   4.312   5.493  11.427  1.2170 -2.6290  1.7608
  114OSM   H14C11820   4.364   5.534  11.580  0.3065 -0.5928  0.2864
  114OSM    C1311821   4.187   5.347  11.586 -0.5878 -0.3542  0.8220
  114OSM   H13A11822   4.105   5.298  11.636 -0.5427  1.7498  3.1115
  114OSM   H13B11823   4.279   5.336  11.641 -1.8726 -0.5856  3.0381
  114OSM   H13C11824   4.203   5.297  11.491  0.1272  1.5664 -0.1292
  114OSM    C1211825   4.039   5.516  11.480  0.3226 -0.7635  0.2603
  114OSM   H12A11826   4.008   5.618  11.493  0.1905 -0.7555 -0.1170
  114OSM   H12B11827   3.949   5.467  11.516 -1.1343 -0.9745 -3.2900
  114OSM    C1111828   4.050   5.490  11.335  0.2001 -1.2100 -0.6331
  114OSM   H11A11829   4.130   5.552  11.290 -0.3508 -0.6511 -0.8496
  114OSM   H11B11830   3.959   5.525  11.281  0.3781  0.7935  0.3050
  114OSM      P11831   3.964   5.242  11.319 -0.1601 -0.1080 -0.0661
  114OSM    O1311832   4.022   5.114  11.360  0.2953 -0.3506 -0.1649
  114OSM    O1411833   3.855   5.291  11.402  0.4645 -0.6619  0.2095
  114OSM    O1111834   3.900   5.241  11.180  0.0082 -0.4898  0.5320
  114OSM    O1211835   4.077   5.350  11.309  0.8463 -0.0635  0.0238
  114OSM    C1S11836   3.994   5.247  11.064 -0.4386 -0.1002 -0.9311
  114OSM    H1S11837   4.048   5.150  11.060  0.5874  0.3422  1.0737
  114OSM    H1T11838   4.061   5.335  11.072  0.2020 -0.6266 -0.4738
  114OSM     NF11839   3.999   5.217  10.821 -0.8037  0.4698  0.2735
  114OSM    HNF11840   4.051   5.288  10.776 -0.0614  0.9589  1.8356
  114OSM    C2S11841   3.917   5.262  10.931 -0.4449 -1.0338 -0.1490
  114OSM    H2S11842   3.830   5.193  10.934 -0.3900 -1.1820 -1.4037
  114OSM    C3S11843   3.872   5.412  10.922  0.5494  0.0285 -0.7010
  114OSM    H3S11844   3.962   5.477  10.917  1.4775 -1.0991  0.5258
  114OSM     O311845   3.785   5.444  11.030  0.0515  0.2906  0.2397
  114OSM    HO311846   3.811   5.384  11.100 -0.6448 -1.2900 -0.7748
  114OSM    C4S11847   3.779   5.439  10.812  0.3176  0.0201  0.2003
  114OSM    H4S11848   3.679   5.393  10.822  0.5548 -0.8246 -1.0349
  114OSM    C5S11849   3.806   5.490  10.692 -0.2773 -0.2572 -0.1524
  114OSM    H5S11850   3.903   5.541  10.682 -0.6348  0.3749 -0.5257
  114OSM    C6S11851   3.705   5.514  10.585  0.5342  1.1019 -0.6715
  114OSM    H6S11852   3.687   5.622  10.567  2.2353  1.6050  0.3581
  114OSM    H6T11853   3.600   5.486  10.607  0.9139 -0.5950 -0.9096
  114OSM    C7S11854   3.743   5.444  10.456 -0.0174  0.0217 -0.9956
  114OSM    H7S11855   3.749   5.338  10.488 -1.1500 -0.2186 -1.5042
  114OSM    H7T11856   3.842   5.475  10.418 -0.1280  2.1554  0.3229
  114OSM    C8S11857   3.640   5.463  10.343  0.0212 -0.8200 -0.3550
  114OSM    H8S11858   3.640   5.573  10.327  2.8264 -0.2916  2.2661
  114OSM    H8T11859   3.536   5.443  10.378 -0.0921  0.7565  0.2796
  114OSM    C9S11860   3.665   5.390  10.214  0.3655  0.6950 -0.1619
  114OSM    H9S11861   3.652   5.282  10.236 -0.6095  1.2829  2.6594
  114OSM    H9T11862   3.768   5.412  10.178 -0.2751 -0.9287 -3.2836
  114OSM   C10S11863   3.556   5.431  10.111 -0.3192  0.1434 -0.1651
  114OSM   H10S11864   3.543   5.541  10.102  1.0589  0.5634  2.1248
  114OSM   H10T11865   3.464   5.377  10.144  1.3452 -3.8781 -1.4978
  114OSM   C11S11866   3.584   5.363   9.971 -0.3908 -0.5699  0.2271
  114OSM   H11S11867   3.642   5.270   9.988  0.4697  0.4114  3.2825
  114OSM   H11T11868   3.636   5.428   9.898 -1.0815  0.3848  0.5680
  114OSM   C12S11869   3.463   5.324   9.891  0.9534 -0.1020  1.5622
  114OSM   H12S11870   3.381   5.399   9.900  0.3466 -0.1648 -1.9598
  114OSM   H12T11871   3.408   5.230   9.913  0.0732  0.2954  1.1329
  114OSM   C13S11872   3.495   5.311   9.738 -0.8621 -0.2219 -0.0997
  114OSM   H13S11873   3.574   5.233   9.731  0.3894  0.9675  0.2112
  114OSM   H13T11874   3.544   5.408   9.714  0.3563 -0.5909  0.8187
  114OSM   C14S11875   3.384   5.279   9.636  0.0818 -0.1871 -0.1839
  114OSM   H14S11876   3.313   5.364   9.642 -0.2669 -0.5444  0.7609
  114OSM   H14T11877   3.335   5.183   9.661  0.3402 -0.2792 -0.0248
  114OSM   C15S11878   3.433   5.278   9.483 -0.1994  0.2811 -0.0859
  114OSM   H15S11879   3.500   5.190   9.471 -1.6550 -0.9676  0.6667
  114OSM   H15T11880   3.498   5.368   9.472 -0.7341  0.5007 -1.8532
  114OSM   C16S11881   3.312   5.289   9.385 -0.9333  0.0713  0.5093
  114OSM   H16S11882   3.276   5.394   9.382  1.9558  1.1281 -2.2245
  114OSM   H16T11883   3.232   5.216   9.413 -1.0013  0.1495  0.5197
  114OSM   C17S11884   3.349   5.283   9.236  0.0204  0.0531  0.1533
  114OSM   H17S11885   3.258   5.275   9.172  0.4868  1.4688 -0.7124
  114OSM   H17T11886   3.409   5.190   9.221 -1.2652 -0.8123  0.1810
  114OSM   C18S11887   3.428   5.412   9.191  0.4712  0.3825  0.2583
  114OSM   H18S11888   3.441   5.402   9.082  1.9729  0.7394  0.3847
  114OSM   H18T11889   3.523   5.434   9.245 -0.4868 -0.0059  2.1965
  114OSM   H18U11890   3.362   5.499   9.212  1.9103  1.1999  1.6580
  114OSM    C1F11891   4.033   5.089  10.799 -0.1871 -0.1914 -0.4472
  114OSM     OF11892   3.987   5.003  10.875 -1.0780 -0.1013  0.0369
  114OSM    C2F11893   4.138   5.057  10.697 -0.4004  0.0985 -0.0213
  114OSM    H2F11894   4.210   4.987  10.744  0.8849  1.4119 -0.0065
  114OSM    H2G11895   4.187   5.150  10.662  1.3240 -0.9816 -0.6076
  114OSM    C3F11896   4.068   4.972  10.588  0.1380  0.2607 -0.1898
  114OSM    H3F11897   3.990   5.036  10.541  0.2946 -0.6515 -1.7482
  114OSM    H3G11898   4.018   4.884  10.633 -0.4845 -0.9359 -2.9802
  114OSM    C4F11899   4.175   4.917  10.490  0.1773 -0.2546 -0.2405
  114OSM    H4F11900   4.202   4.816  10.527  0.2110  0.4550  1.7822
  114OSM    H4G11901   4.268   4.978  10.493  1.5388 -2.1304  3.8946
  114OSM    C5F11902   4.098   4.913  10.354 -0.2159 -0.2953 -0.8008
  114OSM    H5F11903   4.066   5.016  10.325  1.0824  0.4016  0.1308
  114OSM    H5G11904   4.004   4.855  10.371 -0.6994  0.2981 -1.3923
  114OSM    C6F11905   4.192   4.856  10.249  0.3236 -0.1267 -0.1337
  114OSM    H6F11906   4.210   4.752  10.282 -1.8124 -0.6824 -0.6050
  114OSM    H6G11907   4.286   4.915  10.254  0.2190 -0.0052  0.5246
  114OSM    C7F11908   4.142   4.850  10.105  0.3376 -0.5824  0.4616
  114OSM    H7F11909   4.091   4.948  10.089  1.3331  0.3117  2.4645
  114OSM    H7G11910   4.069   4.767  10.115 -3.2411  2.2684  0.2113
  114OSM    C8F11911   4.250   4.821   9.999 -0.3874  0.1818  1.0209
  114OSM    H8F11912   4.207   4.787   9.903  0.9570 -0.2485  0.5529
  114OSM    H8G11913   4.316   4.737  10.030 -0.3215  0.0681  0.5716
  114OSM    C9F11914   4.339   4.940   9.989  0.1972  0.0263  1.3531
  114OSM    H9F11915   4.393   4.964  10.082 -0.1319  1.8480  1.1299
  114OSM   C10F11916   4.346   5.034   9.887 -0.4282 -0.7409  0.7934
  114OSM   H10F11917   4.397   5.132   9.894  0.8309 -1.0355 -2.4624
  114OSM   C11F11918   4.272   5.024   9.754  0.0744  0.3174  0.4310
  114OSM   H11F11919   4.238   5.125   9.722  0.6014  1.0930  2.2017
  114OSM   H11G11920   4.180   4.962   9.759  0.0633  0.4010  1.5233
  114OSM   C12F11921   4.369   4.963   9.648  0.6370  0.7759  0.5810
  114OSM   H12F11922   4.306   4.963   9.556 -0.0387  1.3162  1.0296
  114OSM   H12G11923   4.411   4.864   9.675  1.2532  0.3325 -1.8248
  114OSM   C13F11924   4.487   5.064   9.622 -0.0356  0.2182 -0.1738
  114OSM   H13F11925   4.556   5.065   9.709  0.6673 -0.9692 -0.6928
  114OSM   H13G11926   4.449   5.168   9.610  0.4037  0.3185 -0.7321
  114OSM   C14F11927   4.571   5.006   9.505 -0.5270 -0.4485 -0.3868
  114OSM   H14F11928   4.510   4.976   9.417  2.6505 -0.7290 -2.6747
  114OSM   H14G11929   4.627   4.917   9.539 -1.6220 -1.3841 -0.9702
  114OSM   C15F11930   4.677   5.103   9.447  0.0304 -0.3651 -0.3118
  114OSM   H15F11931   4.737   5.155   9.524 -0.3906  1.3232 -1.0864
  114OSM   H15G11932   4.633   5.188   9.391 -0.8559  0.7990  2.0583
  114OSM   C16F11933   4.773   5.021   9.351 -0.2543 -0.3648 -0.0761
  114OSM   H16F11934   4.707   4.949   9.300  0.7217 -0.4807 -1.1973
  114OSM   H16G11935   4.842   4.962   9.415  0.1172  0.5783  0.4244
  114OSM   C17F11936   4.859   5.103   9.254 -0.6942  0.2097  0.0346
  114OSM   H17F11937   4.949   5.146   9.304 -0.3913  0.4530 -0.7026
  114OSM   H17G11938   4.799   5.193   9.229 -1.9356 -0.1704  1.4725
  114OSM   C18F11939   4.908   5.024   9.126  0.4194 -0.0067 -0.2570
  114OSM   H18F11940   4.958   5.100   9.061  1.2048  0.9816  1.4353
  114OSM   H18G11941   4.820   4.995   9.065 -0.0848  2.3348 -0.7451
  114OSM   H18H11942   4.977   4.938   9.134  0.0416 -0.2965 -0.0959
  115OSM      N11943   2.145   0.345   5.895  0.2203 -0.7806 -0.4203
  115OSM    C1511944   2.277   0.354   5.824  0.2402 -0.2446 -0.3695
  115OSM   H15A11945   2.358   0.320   5.887  2.1810 -0.6397 -2.9338
  115OSM   H15B11946   2.304   0.452   5.788  0.2835  0.4134  1.3623
  115OSM   H15C11947   2.266   0.284   5.743 -0.7939  0.6890 -1.0570
  115OSM    C1411948   2.036   0.396   5.804 -0.4500  0.1871 -0.1088
  115OSM   H14A11949   2.063   0.499   5.784  1.4769 -0.4541 -1.0271
  115OSM   H14B11950   1.944   0.403   5.862  0.2264  0.9779  0.9105
  115OSM   H14C11951   2.017   0.333   5.719 -4.0627  0.1404  0.5712
  115OSM    C1311952   2.115   0.197   5.914  0.0588 -0.0507  0.4181
  115OSM   H13A11953   2.021   0.176   5.963  0.5044 -3.4095  0.0834
  115OSM   H13B11954   2.185   0.154   5.983 -0.3685  1.4865  1.8860
  115OSM   H13C11955   2.135   0.134   5.828 -1.6125  1.4554 -1.1725
  115OSM    C1211956   2.153   0.417   6.031 -0.4071 -0.6138  0.5313
  115OSM   H12A11957   2.049   0.422   6.059 -0.8997  2.1701 -1.3333
  115OSM   H12B11958   2.185   0.519   6.014  2.9369 -1.7703 -0.9339
  115OSM    C1111959   2.246   0.360   6.148  0.4438 -0.4445  0.1248
  115OSM   H11A11960   2.212   0.258   6.174  1.3991 -0.0969  3.2108
  115OSM   H11B11961   2.234   0.420   6.241 -0.1528  0.6439 -0.6358
  115OSM      P11962   2.470   0.494   6.096 -0.2285  0.2369  0.0247
  115OSM    O1311963   2.535   0.502   5.964  0.4516  0.4796  0.6258
  115OSM    O1411964   2.394   0.613   6.143 -0.3598  0.3328 -0.0564
  115OSM    O1111965   2.590   0.463   6.203 -0.3998 -0.1035 -0.1766
  115OSM    O1211966   2.381   0.360   6.107 -0.2691  0.1450  0.1901
  115OSM    C1S11967   2.534   0.461   6.337  0.0975  0.0802  0.3788
  115OSM    H1S11968   2.474   0.369   6.351 -3.7400  1.8879 -2.3703
  115OSM    H1T11969   2.472   0.551   6.360  1.6711  0.9792  1.2925
  115OSM     NF11970   2.567   0.478   6.584  0.6949 -0.2767 -0.2859
  115OSM    HNF11971   2.547   0.559   6.638 -2.9391  0.1698 -1.9678
  115OSM    C2S11972   2.643   0.475   6.462 -0.2202 -0.3911  0.3875
  115OSM    H2S11973   2.713   0.389   6.455 -1.1644 -1.1888  0.5309
  115OSM    C3S11974   2.732   0.602   6.428  0.2161 -0.3327 -0.1712
  115OSM    H3S11975   2.666   0.690   6.413 -0.5095 -1.1607 -2.2170
  115OSM     O311976   2.802   0.593   6.306 -0.3022 -0.1513 -0.1474
  115OSM    HO311977   2.757   0.522   6.260 -0.7102 -0.2698  0.4356
  115OSM    C4S11978   2.827   0.644   6.536 -0.1429  0.3547 -0.5319
  115OSM    H4S11979   2.882   0.563   6.587 -1.6267  0.4876  1.3774
  115OSM    C5S11980   2.841   0.771   6.578  0.7397  0.1640  0.3305
  115OSM    H5S11981   2.779   0.848   6.531  0.2891 -1.0440 -1.1208
  115OSM    C6S11982   2.937   0.814   6.685 -0.3962  0.3611  0.4465
  115OSM    H6S11983   2.984   0.908   6.652  1.8488 -0.5727  0.7998
  115OSM    H6T11984   3.013   0.733   6.687 -0.5320  0.0037 -3.0497
  115OSM    C7S11985   2.867   0.828   6.823 -0.1309 -0.2512  0.5285
  115OSM    H7S11986   2.817   0.732   6.849 -0.5944  0.5008  2.6041
  115OSM    H7T11987   2.786   0.903   6.814 -0.3979 -0.5190  0.6955
  115OSM    C8S11988   2.963   0.852   6.943 -0.5693 -0.5695  0.1866
  115OSM    H8S11989   3.037   0.934   6.929  0.3861 -1.1294  1.6961
  115OSM    H8T11990   3.005   0.751   6.963 -0.8147 -0.6287  0.4097
  115OSM    C9S11991   2.900   0.886   7.080  0.3555  0.0386  0.0776
  115OSM    H9S11992   2.840   0.802   7.122  0.6531 -0.8282 -1.1632
  115OSM    H9T11993   2.832   0.973   7.067  0.9771  0.4850 -0.2000
  115OSM   C10S11994   2.995   0.916   7.197  0.5613 -0.1772 -0.1407
  115OSM   H10S11995   3.045   1.015   7.196 -0.7462  0.6191  2.4982
  115OSM   H10T11996   3.079   0.844   7.199 -0.9126 -1.9594  0.6115
  115OSM   C11S11997   2.924   0.909   7.338  0.7564  0.2695 -0.0916
  115OSM   H11S11998   2.910   0.801   7.357 -2.5486  0.2291 -2.0561
  115OSM   H11T11999   2.831   0.970   7.335  1.1817  0.8944 -1.0235
  115OSM   C12S12000   3.011   0.978   7.445  0.2322 -0.4316  0.0315
  115OSM   H12S12001   3.014   1.084   7.413  1.4082 -0.4712 -0.0205
  115OSM   H12T12002   3.110   0.928   7.437 -0.9002 -2.9045  0.3712
  115OSM   C13S12003   2.948   0.961   7.590  0.0176  0.2543 -0.4309
  115OSM   H13S12004   2.940   0.852   7.613 -0.6298  0.4226  0.1664
  115OSM   H13T12005   2.841   0.990   7.594 -0.0403  0.1585 -1.0929
  115OSM   C14S12006   3.030   1.023   7.703 -0.6022  0.1898  0.1785
  115OSM   H14S12007   3.063   1.125   7.674 -1.9518  0.5265 -0.2705
  115OSM   H14T12008   3.126   0.972   7.725 -0.7008  0.5332  1.4887
  115OSM   C15S12009   2.945   1.059   7.823  0.2827  0.5798 -0.3392
  115OSM   H15S12010   2.925   0.958   7.864 -2.2247  0.4042 -1.8109
  115OSM   H15T12011   2.848   1.102   7.792 -0.4377 -0.5058  0.3392
  115OSM   C16S12012   3.022   1.134   7.925 -0.6289  0.6178 -0.4641
  115OSM   H16S12013   3.028   1.242   7.897 -1.8886  0.1235 -2.9019
  115OSM   H16T12014   3.127   1.101   7.938 -0.3137  1.4641 -0.7449
  115OSM   C17S12015   2.946   1.132   8.060 -0.9597  0.5246  0.0662
  115OSM   H17S12016   2.953   1.031   8.105  0.4840  1.0047  0.9986
  115OSM   H17T12017   2.840   1.162   8.043 -0.4197  2.0388 -0.8448
  115OSM   C18S12018   2.990   1.235   8.160 -0.1283  0.0706 -0.4534
  115OSM   H18S12019   2.936   1.234   8.257  0.6532  0.7917  0.0078
  115OSM   H18T12020   2.997   1.335   8.113  1.7730 -0.7228 -1.9628
  115OSM   H18U12021   3.096   1.212   8.187 -0.6808  0.2137  2.0968
  115OSM    C1F12022   2.510   0.370   6.629  0.3659 -0.1859  0.1460
  115OSM     OF12023   2.526   0.259   6.576 -0.1210  0.1949 -0.1018
  115OSM    C2F12024   2.456   0.392   6.765 -0.1721 -0.4358 -0.1935
  115OSM    H2F12025   2.526   0.450   6.829  1.4193 -1.7562 -0.6693
  115OSM    H2G12026   2.430   0.297   6.816 -2.1627  0.1475 -0.0008
  115OSM    C3F12027   2.312   0.454   6.757  0.4801  0.1201  0.4239
  115OSM    H3F12028   2.262   0.405   6.671  1.7783 -3.3027  1.4261
  115OSM    H3G12029   2.317   0.561   6.728 -1.3333  0.0960 -0.1000
  115OSM    C4F12030   2.241   0.429   6.891 -0.0023 -0.3357 -0.3413
  115OSM    H4F12031   2.253   0.519   6.956 -0.4064 -2.2876  2.5986
  115OSM    H4G12032   2.264   0.332   6.939 -0.2767 -0.7284 -0.9931
  115OSM    C5F12033   2.084   0.426   6.872 -0.1891 -1.0171 -1.0453
  115OSM    H5F12034   2.053   0.329   6.827  0.4094 -2.0149  0.6062
  115OSM    H5G12035   2.058   0.507   6.800  0.4919  1.0627  0.9243
  115OSM    C6F12036   2.003   0.457   7.003 -0.3076  0.5088  0.2633
  115OSM    H6F12037   1.905   0.500   6.973 -0.1934 -0.7196 -2.1674
  115OSM    H6G12038   2.057   0.532   7.064  2.9637 -0.5599 -1.0836
  115OSM    C7F12039   1.990   0.326   7.081  0.6979  0.4436  0.2828
  115OSM    H7F12040   2.069   0.261   7.037 -3.0138 -3.4175 -1.3071
  115OSM    H7G12041   1.898   0.268   7.057  1.0234 -0.6832  1.6391
  115OSM    C8F12042   2.001   0.343   7.238 -0.1801 -0.0139  0.6782
  115OSM    H8F12043   2.091   0.402   7.264  0.1314  0.0330 -0.4566
  115OSM    H8G12044   2.005   0.237   7.271  0.7841  0.0460  0.7766
  115OSM    C9F12045   1.874   0.406   7.295 -0.0909 -0.4166 -0.5658
  115OSM    H9F12046   1.785   0.345   7.276  0.7610 -1.6148 -0.8440
  115OSM   C10F12047   1.860   0.529   7.350 -0.7267 -0.3427  0.7105
  115OSM   H10F12048   1.763   0.539   7.401 -0.7096 -0.6855  0.8147
  115OSM   C11F12049   1.965   0.636   7.376 -0.1294 -0.0305 -0.2554
  115OSM   H11F12050   1.926   0.724   7.321  0.8194 -1.0872 -2.7444
  115OSM   H11G12051   2.063   0.604   7.335  0.1467  1.1668 -0.5625
  115OSM   C12F12052   1.984   0.681   7.523 -0.6766  0.0534  0.3863
  115OSM   H12F12053   1.893   0.738   7.553 -1.5405 -2.0220  1.9379
  115OSM   H12G12054   2.073   0.743   7.545 -0.6523 -1.2430  4.8333
  115OSM   C13F12055   2.024   0.564   7.606  1.0079  0.4197  0.1324
  115OSM   H13F12056   2.122   0.530   7.567  0.8107  0.8130 -0.7136
  115OSM   H13G12057   1.950   0.481   7.606  0.2760  1.0479  0.8139
  115OSM   C14F12058   2.041   0.615   7.756  0.0606 -0.1796 -0.0614
  115OSM   H14F12059   1.939   0.645   7.787 -0.4098 -0.1549 -1.5174
  115OSM   H14G12060   2.108   0.703   7.757 -0.4966  0.2780 -0.9055
  115OSM   C15F12061   2.100   0.512   7.850 -0.0635 -0.7928 -0.1438
  115OSM   H15F12062   2.211   0.516   7.847  0.0084 -1.4329  0.9579
  115OSM   H15G12063   2.081   0.405   7.828 -3.0533 -0.4912  0.5637
  115OSM   C16F12064   2.075   0.551   7.995 -0.0583 -0.7532 -0.4454
  115OSM   H16F12065   1.970   0.541   8.028  0.4672 -0.7317  1.3628
  115OSM   H16G12066   2.099   0.658   8.017 -0.4624 -0.4876 -1.2869
  115OSM   C17F12067   2.150   0.456   8.089 -0.4139  0.4496  0.2169
  115OSM   H17F12068   2.258   0.469   8.071  0.1380 -1.0576  2.1163
  115OSM   H17G12069   2.115   0.353   8.064 -1.3912  0.1968  2.4012
  115OSM   C18F12070   2.135   0.492   8.237 -0.3192 -0.0166  0.3704
  115OSM   H18F12071   2.216   0.439   8.291 -1.1727  0.3885  2.1363
  115OSM   H18G12072   2.038   0.450   8.270 -1.6892  1.2194 -1.8223
  115OSM   H18H12073   2.144   0.603   8.231  0.8116  0.0811  2.7176
  116OSM      N12074   4.632   2.875   5.732 -0.2912 -0.3569  0.6267
  116OSM    C1512075   4.593   3.015   5.768 -0.2788 -0.7276  0.1070
  116OSM   H15A12076   4.561   3.023   5.871 -0.4240  0.9653 -0.0450
  116OSM   H15B12077   4.511   3.042   5.703  1.0056 -2.2559 -2.2646
  116OSM   H15C12078   4.676   3.080   5.749  1.3964 -2.3307  1.5967
  116OSM    C1412079   4.627   2.866   5.584  1.2824 -0.4338  0.0711
  116OSM   H14A12080   4.522   2.856   5.561  1.5934 -1.6362 -0.9306
  116OSM   H14B12081   4.686   2.782   5.552  2.1476  0.3961 -0.5434
  116OSM   H14C12082   4.670   2.951   5.534  1.8808  0.5538  2.1292
  116OSM    C1312083   4.771   2.857   5.779 -0.1993  0.1386  0.6380
  116OSM   H13A12084   4.836   2.932   5.739 -0.4195  0.4276  0.8151
  116OSM   H13B12085   4.802   2.754   5.772 -3.4990 -1.0606  1.5801
  116OSM   H13C12086   4.770   2.878   5.885 -2.6062  1.7318  0.3844
  116OSM    C1212087   4.540   2.776   5.798  0.2285  0.6198  0.1326
  116OSM   H12A12088   4.568   2.674   5.777  0.5372  0.4730  1.2250
  116OSM   H12B12089   4.442   2.788   5.753  0.4223 -0.1257 -0.5121
  116OSM    C1112090   4.522   2.785   5.957  0.7251  0.0151  0.3722
  116OSM   H11A12091   4.435   2.720   5.982  0.8391 -0.2469  0.0949
  116OSM   H11B12092   4.478   2.885   5.974  0.8701  0.6725 -2.6146
  116OSM      P12093   4.690   2.616   6.057 -0.4417 -0.5330  0.1594
  116OSM    O1312094   4.634   2.525   5.955 -0.3252  0.2445 -0.2932
  116OSM    O1412095   4.840   2.609   6.081 -0.0012  0.2448  0.3003
  116OSM    O1112096   4.617   2.599   6.199 -0.6312 -0.1232 -0.4321
  116OSM    O1212097   4.644   2.763   6.026 -0.9452 -0.1305  0.2943
  116OSM    C1S12098   4.655   2.674   6.312 -0.2695 -0.9921 -0.0534
  116OSM    H1S12099   4.586   2.761   6.314  0.5945 -0.3215  1.4034
  116OSM    H1T12100   4.759   2.711   6.301 -0.3366 -0.7968 -0.0271
  116OSM     NF12101   4.708   2.679   6.549 -0.0680 -0.4498  0.0653
  116OSM    HNF12102   4.805   2.669   6.569  0.7563  2.6563 -1.8026
  116OSM    C2S12103   4.647   2.600   6.443 -0.1526 -0.4414  0.4454
  116OSM    H2S12104   4.539   2.586   6.466 -0.4574  2.2407  0.9506
  116OSM    C3S12105   4.715   2.459   6.434  0.6745  0.6955  0.1781
  116OSM    H3S12106   4.817   2.472   6.392 -0.3250 -0.6422 -2.9449
  116OSM     O312107   4.654   2.366   6.339  0.2337 -0.4846 -0.2061
  116OSM    HO312108   4.611   2.416   6.269 -1.2345 -0.1081  0.9151
  116OSM    C4S12109   4.714   2.396   6.571  0.4837  0.7720  0.4876
  116OSM    H4S12110   4.798   2.424   6.636  0.3934 -0.6022  1.2301
  116OSM    C5S12111   4.625   2.316   6.632  0.1123 -0.0536 -0.6234
  116OSM    H5S12112   4.533   2.294   6.576 -0.9829  1.4850  0.4781
  116OSM    C6S12113   4.632   2.264   6.771  0.1867  0.2093  0.7857
  116OSM    H6S12114   4.650   2.155   6.758 -1.1383 -0.4157  3.5304
  116OSM    H6T12115   4.535   2.275   6.825 -0.7100  3.3269 -1.1648
  116OSM    C7S12116   4.724   2.350   6.865 -0.2116 -0.6417 -0.4625
  116OSM    H7S12117   4.707   2.459   6.854 -1.5912 -0.8437 -0.4583
  116OSM    H7T12118   4.826   2.316   6.838 -0.8360 -1.0976 -2.4269
  116OSM    C8S12119   4.703   2.306   7.009 -0.2792  0.4275 -0.0919
  116OSM    H8S12120   4.700   2.195   7.012  0.0540  0.4246  0.1642
  116OSM    H8T12121   4.605   2.345   7.045 -1.1736 -2.6631  1.1372
  116OSM    C9S12122   4.814   2.369   7.105  0.4571 -0.5117  1.0752
  116OSM    H9S12123   4.824   2.478   7.089 -1.7197 -0.5850 -1.5951
  116OSM    H9T12124   4.915   2.330   7.079  1.3876  2.2979  0.1507
  116OSM   C10S12125   4.784   2.349   7.251  0.2022 -0.4271 -0.1690
  116OSM   H10S12126   4.732   2.251   7.258 -1.2864  0.3441 -0.1366
  116OSM   H10T12127   4.706   2.423   7.277 -1.5413 -1.6735 -1.6284
  116OSM   C11S12128   4.907   2.361   7.338 -0.1510  0.1431  0.0315
  116OSM   H11S12129   4.943   2.466   7.327  1.7099 -0.5418 -0.8086
  116OSM   H11T12130   4.995   2.299   7.310  0.1727  0.5198  0.1948
  116OSM   C12S12131   4.887   2.326   7.486  0.1016  0.0720 -0.5262
  116OSM   H12S12132   4.861   2.219   7.468 -0.5865  0.4141 -1.6377
  116OSM   H12T12133   4.813   2.393   7.533  0.2996  0.3475 -0.6016
  116OSM   C13S12134   5.023   2.338   7.560  0.6659 -0.0071 -0.3008
  116OSM   H13S12135   5.045   2.447   7.560 -0.5790  0.2667  1.3060
  116OSM   H13T12136   5.092   2.282   7.492  0.3098 -0.3406 -0.3931
  116OSM   C14S12137   5.030   2.278   7.706  0.6182  0.8167  0.4306
  116OSM   H14S12138   5.137   2.284   7.733  1.0869 -0.8351 -0.8660
  116OSM   H14T12139   4.998   2.173   7.690  0.8537  1.0250 -1.7364
  116OSM   C15S12140   4.938   2.337   7.811  0.6615 -0.1480  0.1628
  116OSM   H15S12141   4.829   2.329   7.790  0.3852 -1.7504  1.9032
  116OSM   H15T12142   4.975   2.442   7.814 -0.7337  0.5462 -2.7090
  116OSM   C16S12143   4.967   2.270   7.943  0.3843 -0.0043 -0.1045
  116OSM   H16S12144   5.075   2.266   7.969 -0.1504  0.4781  2.4652
  116OSM   H16T12145   4.926   2.167   7.950 -2.1068  0.9037 -0.0699
  116OSM   C17S12146   4.908   2.359   8.054  0.3525 -0.4308 -0.0789
  116OSM   H17S12147   4.798   2.355   8.041  0.0151 -1.0292  2.4283
  116OSM   H17T12148   4.947   2.460   8.031 -0.2662 -0.1658  0.0090
  116OSM   C18S12149   4.964   2.319   8.189  0.2720  0.2043 -0.0106
  116OSM   H18S12150   4.912   2.222   8.203  1.3516 -0.7890 -2.3307
  116OSM   H18T12151   4.939   2.403   8.256 -1.2936  0.3561 -0.7455
  116OSM   H18U12152   5.072   2.293   8.191  0.7697  2.0406  3.1461
  116OSM    C1F12153   4.647   2.790   6.588  0.0621 -0.2896 -0.8216
  116OSM     OF12154   4.540   2.828   6.543 -0.2164 -0.3974 -0.1420
  116OSM    C2F12155   4.709   2.873   6.693  0.1251  0.6626  0.0849
  116OSM    H2F12156   4.814   2.878   6.657  0.3998 -2.0201  0.3251
  116OSM    H2G12157   4.705   2.820   6.790  0.0174  0.2853 -0.1238
  116OSM    C3F12158   4.644   3.009   6.711  0.1260  0.5010 -0.3432
  116OSM    H3F12159   4.536   2.987   6.728  0.1841 -3.5617 -3.5358
  116OSM    H3G12160   4.653   3.073   6.620 -1.8006 -0.6934 -1.4472
  116OSM    C4F12161   4.697   3.082   6.834  0.3944 -0.3382  0.4176
  116OSM    H4F12162   4.682   3.191   6.817  0.4464 -0.5001 -0.7988
  116OSM    H4G12163   4.803   3.053   6.850 -0.2080 -2.5768  0.7318
  116OSM    C5F12164   4.604   3.070   6.955  0.5415 -0.4564 -0.1196
  116OSM    H5F12165   4.602   2.961   6.977 -0.1300 -0.6859 -1.2378
  116OSM    H5G12166   4.502   3.111   6.937 -0.2023 -0.3137  3.6829
  116OSM    C6F12167   4.660   3.147   7.079  0.9953 -0.1517  0.0269
  116OSM    H6F12168   4.669   3.254   7.050 -1.5829  0.3923  1.0045
  116OSM    H6G12169   4.760   3.107   7.109  1.5372  0.2896 -1.1259
  116OSM    C7F12170   4.570   3.137   7.209 -0.7745  0.1604 -0.3513
  116OSM    H7F12171   4.536   3.034   7.231 -0.8789  0.2036 -0.3078
  116OSM    H7G12172   4.479   3.200   7.203 -0.7717  0.4515  1.8886
  116OSM    C8F12173   4.637   3.200   7.339 -0.5305  0.8391 -0.3919
  116OSM    H8F12174   4.559   3.220   7.415  1.0550  0.1480  1.5072
  116OSM    H8G12175   4.671   3.302   7.308 -0.3374  1.3254  1.3412
  116OSM    C9F12176   4.753   3.124   7.403  0.2558 -0.1050 -0.5710
  116OSM    H9F12177   4.819   3.063   7.340  0.9859 -1.1151  1.1181
  116OSM   C10F12178   4.791   3.139   7.533 -0.7270 -0.0120 -0.3969
  116OSM   H10F12179   4.879   3.082   7.566 -1.7718 -0.4565  1.7933
  116OSM   C11F12180   4.726   3.232   7.637 -0.6720 -0.6168 -0.6842
  116OSM   H11F12181   4.648   3.289   7.583  0.4004  0.6184 -0.9839
  116OSM   H11G12182   4.803   3.298   7.681  0.7248 -1.8253 -1.2076
  116OSM   C12F12183   4.652   3.179   7.762  0.0825  0.2479  0.3466
  116OSM   H12F12184   4.721   3.127   7.832  0.9656  0.0405 -0.6477
  116OSM   H12G12185   4.592   3.097   7.717  1.3269  0.5976 -2.1581
  116OSM   C13F12186   4.571   3.285   7.834 -0.0568  0.7952 -0.0107
  116OSM   H13F12187   4.497   3.341   7.774 -0.5266  1.8571  1.4854
  116OSM   H13G12188   4.639   3.353   7.891  0.5515  1.1864 -1.1778
  116OSM   C14F12189   4.495   3.226   7.951  0.2089  0.1404  0.4335
  116OSM   H14F12190   4.567   3.170   8.015  0.3884  0.3252  0.3962
  116OSM   H14G12191   4.426   3.144   7.923 -0.3788  0.5532  0.6610
  116OSM   C15F12192   4.442   3.340   8.037  0.5629  0.1512  0.0513
  116OSM   H15F12193   4.363   3.391   7.977 -0.7767  1.8814  3.0446
  116OSM   H15G12194   4.526   3.408   8.061  1.5380 -1.1807  0.5197
  116OSM   C16F12195   4.372   3.278   8.164  0.5330 -0.7809 -0.1568
  116OSM   H16F12196   4.443   3.205   8.207  0.9834  0.7077  1.8132
  116OSM   H16G12197   4.281   3.225   8.130 -0.6216  1.2147 -0.3552
  116OSM   C17F12198   4.327   3.386   8.263  0.0935  0.1937 -0.6182
  116OSM   H17F12199   4.288   3.341   8.356 -0.2860  0.6566 -0.5496
  116OSM   H17G12200   4.250   3.458   8.227 -1.2302 -0.2440  1.2039
  116OSM   C18F12201   4.445   3.469   8.323  0.2506 -0.4709  0.2230
  116OSM   H18F12202   4.427   3.540   8.407  2.9286  0.1779  0.3501
  116OSM   H18G12203   4.496   3.523   8.240 -1.6125 -1.3886 -1.6155
  116OSM   H18H12204   4.521   3.396   8.358  0.5540 -1.2528 -1.8750
  117OSM      N12205   3.515   3.692   6.179  0.2257 -0.6282  0.0251
  117OSM    C1512206   3.646   3.751   6.201  0.6031  0.6088  0.2175
  117OSM   H15A12207   3.708   3.702   6.274 -0.4604  0.2098  0.8805
  117OSM   H15B12208   3.639   3.857   6.223  0.2308  0.1750  2.5119
  117OSM   H15C12209   3.698   3.737   6.108  0.9776  1.4179  0.2942
  117OSM    C1412210   3.459   3.753   6.057 -0.0948 -0.2855  0.0644
  117OSM   H14A12211   3.361   3.719   6.027 -0.0151 -0.2220 -0.2766
  117OSM   H14B12212   3.531   3.742   5.977 -0.3804 -2.1547  0.0231
  117OSM   H14C12213   3.440   3.857   6.083 -0.6461 -0.2688 -0.3706
  117OSM    C1312214   3.525   3.540   6.157  0.0887  0.7128 -0.0416
  117OSM   H13A12215   3.567   3.486   6.241  1.2345 -0.1797 -1.1459
  117OSM   H13B12216   3.577   3.516   6.066 -2.2923 -0.1911 -1.2546
  117OSM   H13C12217   3.427   3.495   6.147  0.6972 -0.3780 -1.4581
  117OSM    C1212218   3.421   3.717   6.298  0.5348 -0.7772 -0.3886
  117OSM   H12A12219   3.475   3.676   6.382  0.3948  0.8270  0.5229
  117OSM   H12B12220   3.329   3.664   6.277  0.5001 -0.7144 -0.3980
  117OSM    C1112221   3.399   3.872   6.325  0.1109 -1.2408  0.8426
  117OSM   H11A12222   3.501   3.913   6.345  0.2906 -0.7932 -0.8296
  117OSM   H11B12223   3.335   3.878   6.415 -0.2790  0.1222  0.4998
  117OSM      P12224   3.337   4.110   6.220 -0.0819  0.0814  0.1087
  117OSM    O1312225   3.441   4.156   6.127 -0.3992  0.1021  0.3495
  117OSM    O1412226   3.198   4.165   6.200 -0.7511  0.3048  0.8069
  117OSM    O1112227   3.374   4.140   6.368  0.1942 -0.5108  0.1110
  117OSM    O1212228   3.334   3.955   6.219  0.0010  0.1548 -0.0577
  117OSM    C1S12229   3.473   4.232   6.409  0.1493 -0.4331 -0.1258
  117OSM    H1S12230   3.465   4.331   6.358  0.2681  0.0132  0.6867
  117OSM    H1T12231   3.575   4.188   6.414 -0.1219 -1.2157 -1.2005
  117OSM     NF12232   3.535   4.390   6.601  0.1269  0.4013 -0.0429
  117OSM    HNF12233   3.617   4.366   6.652 -0.6422 -2.6523 -0.0069
  117OSM    C2S12234   3.454   4.275   6.564  0.3382  0.2994  0.2930
  117OSM    H2S12235   3.347   4.302   6.576  0.1136  2.0285 -3.7871
  117OSM    C3S12236   3.472   4.160   6.664  0.2526 -0.7993 -0.1119
  117OSM    H3S12237   3.579   4.133   6.660  0.4901  0.2190 -1.2837
  117OSM     O312238   3.422   4.041   6.615  0.0725  0.8925 -0.7923
  117OSM    HO312239   3.399   4.063   6.524 -0.0979  2.9422 -0.3157
  117OSM    C4S12240   3.426   4.196   6.796  0.6343 -0.1311  0.3135
  117OSM    H4S12241   3.504   4.245   6.856 -1.4116  3.5007  0.3188
  117OSM    C5S12242   3.307   4.183   6.852 -0.3952 -0.1262  0.1453
  117OSM    H5S12243   3.225   4.137   6.795  0.8662 -3.1594  0.5675
  117OSM    C6S12244   3.266   4.215   6.989 -0.5374 -0.4448  0.0625
  117OSM    H6S12245   3.236   4.125   7.047 -1.3414  0.1666  0.6152
  117OSM    H6T12246   3.178   4.283   6.993 -0.7012 -0.7036  1.7598
  117OSM    C7S12247   3.374   4.275   7.085  0.5527 -0.0415 -0.0346
  117OSM    H7S12248   3.412   4.371   7.044 -0.1587  0.0877 -0.3986
  117OSM    H7T12249   3.450   4.195   7.076  2.6179  2.0564 -2.9153
  117OSM    C8S12250   3.328   4.282   7.226 -0.1041  1.5515 -0.2242
  117OSM    H8S12251   3.341   4.181   7.269 -0.0883  1.2216 -0.9892
  117OSM    H8T12252   3.225   4.322   7.237 -0.4862  0.1824  1.7887
  117OSM    C9S12253   3.398   4.390   7.303  0.1160 -0.4968 -0.3226
  117OSM    H9S12254   3.395   4.487   7.249 -0.7433 -1.0722 -1.3494
  117OSM    H9T12255   3.506   4.366   7.307 -0.3625 -3.0324 -0.5972
  117OSM   C10S12256   3.346   4.410   7.446 -0.3636  0.3127 -0.3103
  117OSM   H10S12257   3.235   4.408   7.439 -0.3217 -2.1572 -1.0909
  117OSM   H10T12258   3.384   4.507   7.485  2.1638 -0.2759 -1.0968
  117OSM   C11S12259   3.392   4.297   7.540  0.0363  0.0479 -0.8067
  117OSM   H11S12260   3.491   4.264   7.502  0.3918 -0.1611  0.2451
  117OSM   H11T12261   3.326   4.208   7.531 -0.4552 -0.0214  2.2386
  117OSM   C12S12262   3.395   4.354   7.683 -0.2580 -0.0543 -0.1732
  117OSM   H12S12263   3.292   4.389   7.704 -0.5486 -1.0196  0.0802
  117OSM   H12T12264   3.467   4.437   7.697  0.1487 -0.5547  0.7987
  117OSM   C13S12265   3.430   4.249   7.788  0.3325  0.3251 -0.0224
  117OSM   H13S12266   3.535   4.216   7.773  1.1654  1.9161  1.9387
  117OSM   H13T12267   3.368   4.161   7.760  0.7106  0.0659 -0.0479
  117OSM   C14S12268   3.412   4.281   7.938 -0.0284  0.0859  0.1379
  117OSM   H14S12269   3.311   4.316   7.967  0.0392 -0.7879  1.4852
  117OSM   H14T12270   3.476   4.371   7.946  0.2756 -0.1960  0.9272
  117OSM   C15S12271   3.451   4.166   8.034 -0.2027  0.1246  0.0360
  117OSM   H15S12272   3.545   4.119   7.998 -0.7230 -0.3602 -0.7227
  117OSM   H15T12273   3.373   4.089   8.017 -0.1468  0.0844 -0.0424
  117OSM   C16S12274   3.453   4.197   8.178  0.4159 -0.3658 -0.3707
  117OSM   H16S12275   3.476   4.105   8.237  0.4228 -0.8797 -1.1632
  117OSM   H16T12276   3.354   4.234   8.213  0.4631  0.6271 -1.2543
  117OSM   C17S12277   3.540   4.314   8.225 -0.6359 -0.6724 -0.4589
  117OSM   H17S12278   3.508   4.412   8.185  1.4985 -0.3887 -1.6190
  117OSM   H17T12279   3.638   4.301   8.174 -0.3356  0.8182 -0.2993
  117OSM   C18S12280   3.555   4.314   8.380 -0.2590 -0.2597  0.3258
  117OSM   H18S12281   3.635   4.387   8.402  1.0952 -0.9996 -1.8959
  117OSM   H18T12282   3.580   4.210   8.410 -2.8724 -1.6983 -1.9790
  117OSM   H18U12283   3.465   4.341   8.441 -0.6077 -0.5966 -0.0350
  117OSM    C1F12284   3.517   4.512   6.563  0.2735 -0.5208 -0.2119
  117OSM     OF12285   3.424   4.552   6.492 -0.1583 -0.2302  0.2238
  117OSM    C2F12286   3.612   4.615   6.608  0.1316 -0.4715 -0.8494
  117OSM    H2F12287   3.663   4.656   6.518  0.1789 -1.0133 -1.0755
  117OSM    H2G12288   3.693   4.576   6.672 -2.2739  1.1218  3.5749
  117OSM    C3F12289   3.551   4.729   6.700 -0.1332 -0.4960  0.8690
  117OSM    H3F12290   3.454   4.763   6.659  0.5892  0.5481 -0.0377
  117OSM    H3G12291   3.624   4.813   6.702 -1.8388  1.0466  1.3338
  117OSM    C4F12292   3.537   4.689   6.844 -0.4897  0.6099 -0.2383
  117OSM    H4F12293   3.508   4.582   6.848 -0.0019  0.4844  3.1491
  117OSM    H4G12294   3.450   4.740   6.890 -0.0236  0.1924  1.1862
  117OSM    C5F12295   3.670   4.698   6.930  0.9897  0.2965  0.1131
  117OSM    H5F12296   3.711   4.794   6.892 -0.0839  0.7867  0.1694
  117OSM    H5G12297   3.743   4.624   6.891 -1.5774 -2.6265  0.4563
  117OSM    C6F12298   3.655   4.680   7.075 -0.1729  0.5250 -0.1268
  117OSM    H6F12299   3.759   4.697   7.112 -0.2277  2.7228 -0.8031
  117OSM    H6G12300   3.612   4.583   7.106  1.0939  0.1149  0.4036
  117OSM    C7F12301   3.558   4.783   7.140  0.7455 -0.1709  0.2501
  117OSM    H7F12302   3.452   4.759   7.118  0.2954 -0.4342  2.4691
  117OSM    H7G12303   3.588   4.878   7.090 -0.1742  0.2050  0.4006
  117OSM    C8F12304   3.571   4.794   7.293  0.5489  0.2849 -0.8317
  117OSM    H8F12305   3.532   4.694   7.321 -1.6101  0.6026 -2.4977
  117OSM    H8G12306   3.504   4.874   7.331  0.2644  0.2005 -1.1527
  117OSM    C9F12307   3.718   4.817   7.332 -0.2196  0.4230  0.0335
  117OSM    H9F12308   3.770   4.869   7.250 -0.6340 -1.2136 -1.3386
  117OSM   C10F12309   3.770   4.800   7.452 -0.3898  0.5561 -0.3722
  117OSM   H10F12310   3.876   4.813   7.478  0.2108 -4.6063  0.8114
  117OSM   C11F12311   3.680   4.770   7.569 -0.1602 -0.2331  0.4536
  117OSM   H11F12312   3.617   4.681   7.548  1.1739 -1.6429  2.1771
  117OSM   H11G12313   3.617   4.862   7.573  1.2612  0.7634  0.5140
  117OSM   C12F12314   3.744   4.741   7.702  0.5915 -0.9214 -1.1827
  117OSM   H12F12315   3.833   4.805   7.716 -0.0822 -0.6498  2.9301
  117OSM   H12G12316   3.785   4.638   7.710  0.7614 -0.7958 -0.3494
  117OSM   C13F12317   3.651   4.770   7.822  0.7446 -0.3684  0.4835
  117OSM   H13F12318   3.560   4.706   7.817 -0.2577  1.0327  0.1989
  117OSM   H13G12319   3.627   4.877   7.805  1.4862 -0.0886  1.1405
  117OSM   C14F12320   3.701   4.744   7.966  1.0428  0.3256 -0.4897
  117OSM   H14F12321   3.739   4.640   7.971  0.3194 -0.0586 -2.2593
  117OSM   H14G12322   3.620   4.751   8.042 -1.9219  1.1162 -3.4534
  117OSM   C15F12323   3.826   4.822   8.008 -0.3215 -0.4959  0.8424
  117OSM   H15F12324   3.790   4.927   8.013  0.5162 -0.2300  1.5115
  117OSM   H15G12325   3.911   4.813   7.936 -0.0524  4.1747  0.2064
  117OSM   C16F12326   3.856   4.787   8.148  0.1059 -0.0007 -0.3298
  117OSM   H16F12327   3.879   4.679   8.161  1.6755  0.0184 -2.4142
  117OSM   H16G12328   3.764   4.813   8.205 -1.0834 -1.9387 -1.2564
  117OSM   C17F12329   3.972   4.858   8.206 -0.4535  0.1867 -0.1544
  117OSM   H17F12330   3.999   4.822   8.308 -1.1937  0.8772  0.2985
  117OSM   H17G12331   4.054   4.830   8.137 -1.4625  0.1792 -1.3839
  117OSM   C18F12332   3.958   5.013   8.214  0.1961  0.6645  0.1179
  117OSM   H18F12333   4.058   5.052   8.243  0.2176 -1.0152  2.5349
  117OSM   H18G12334   3.881   5.049   8.285  1.1919 -1.6178  2.4865
  117OSM   H18H12335   3.936   5.049   8.111 -3.6166 -2.0887 -0.2441
  118OSM      N12336   4.289   0.672   5.937 -0.4408  0.2950 -0.0142
  118OSM    C1512337   4.370   0.594   5.839 -0.3579  0.3674  0.0695
  118OSM   H15A12338   4.356   0.488   5.852  2.2398 -0.2994 -1.7609
  118OSM   H15B12339   4.475   0.619   5.844 -0.9053  2.9078  0.2169
  118OSM   H15C12340   4.329   0.613   5.741  0.0715 -0.9862 -0.3926
  118OSM    C1412341   4.356   0.674   6.069 -0.5307 -0.4581 -0.4843
  118OSM   H14A12342   4.448   0.730   6.058 -0.1390 -0.7645  0.9804
  118OSM   H14B12343   4.380   0.575   6.105  1.8151  0.1751 -0.1695
  118OSM   H14C12344   4.303   0.731   6.144  1.6031 -0.0687  0.8163
  118OSM    C1312345   4.278   0.808   5.887  0.4875 -0.9793 -0.0117
  118OSM   H13A12346   4.374   0.853   5.870 -0.0263 -0.0517 -0.5242
  118OSM   H13B12347   4.224   0.873   5.954  0.8834 -0.0374 -0.5979
  118OSM   H13C12348   4.220   0.808   5.796  2.6632  0.1751 -1.4643
  118OSM    C1212349   4.153   0.603   5.952  0.7141 -0.6482  0.0586
  118OSM   H12A12350   4.114   0.597   5.852  1.4300 -0.2801 -0.2443
  118OSM   H12B12351   4.081   0.668   5.999 -1.1380 -2.2722 -0.3630
  118OSM    C1112352   4.150   0.461   6.025  0.1765 -0.2954  0.3021
  118OSM   H11A12353   4.222   0.400   5.965 -1.8484 -0.4049 -2.1708
  118OSM   H11B12354   4.046   0.424   6.010 -0.7796  1.1738  2.7464
  118OSM      P12355   4.097   0.514   6.279  0.3567  0.1255  0.3047
  118OSM    O1312356   4.164   0.541   6.408 -0.0835  0.2850 -0.0647
  118OSM    O1412357   4.005   0.615   6.224 -0.2347 -0.3800  0.1687
  118OSM    O1112358   4.007   0.383   6.305  0.1370 -0.0472  0.1000
  118OSM    O1212359   4.199   0.461   6.163 -0.5219  0.3448  0.1791
  118OSM    C1S12360   4.076   0.257   6.314 -0.2011  0.0833  0.1397
  118OSM    H1S12361   4.170   0.262   6.255 -0.0036  2.5126  0.5660
  118OSM    H1T12362   4.013   0.177   6.268 -0.2905  0.3665 -0.2340
  118OSM     NF12363   4.181   0.089   6.458  0.4954  0.4900 -0.2611
  118OSM    HNF12364   4.127   0.011   6.487  0.9324 -0.6357 -2.2660
  118OSM    C2S12365   4.102   0.214   6.457  0.2738  0.0902 -0.1989
  118OSM    H2S12366   4.165   0.297   6.496  1.5129  0.5366 -2.8880
  118OSM    C3S12367   3.961   0.209   6.530  0.3693 -0.3097 -0.4162
  118OSM    H3S12368   3.912   0.120   6.485 -1.1978  0.7223 -0.8316
  118OSM     O312369   3.876   0.319   6.519 -0.4554 -0.1749 -0.2439
  118OSM    HO312370   3.912   0.372   6.446 -0.6329 -0.7024 -0.7225
  118OSM    C4S12371   3.982   0.167   6.675 -0.2362 -0.3723 -0.1483
  118OSM    H4S12372   4.007   0.060   6.684 -1.7259 -0.6496  1.1321
  118OSM    C5S12373   3.997   0.246   6.784  0.3184 -0.0622  0.3698
  118OSM    H5S12374   4.000   0.355   6.765 -1.6750  0.2859  1.7853
  118OSM    C6S12375   4.030   0.210   6.923 -0.1933  0.5402 -0.3798
  118OSM    H6S12376   3.930   0.199   6.969 -0.2331 -0.6564 -0.7154
  118OSM    H6T12377   4.094   0.290   6.967 -0.8570  0.8692 -0.0061
  118OSM    C7S12378   4.117   0.080   6.936  0.2127 -0.1959 -1.0863
  118OSM    H7S12379   4.221   0.086   6.897  1.4600  3.4593  2.0798
  118OSM    H7T12380   4.060  -0.005   6.892 -3.0000  1.6763 -0.8818
  118OSM    C8S12381   4.144   0.063   7.086 -0.5243  0.0322 -0.5458
  118OSM    H8S12382   4.175  -0.042   7.102 -0.3066 -0.0791 -1.6359
  118OSM    H8T12383   4.053   0.074   7.149  0.7803 -0.2912  1.4687
  118OSM    C9S12384   4.256   0.151   7.135  0.6653 -0.3997 -0.5662
  118OSM    H9S12385   4.221   0.256   7.148  1.6977  0.1384 -1.9076
  118OSM    H9T12386   4.342   0.154   7.065  0.6780 -0.3709 -0.5485
  118OSM   C10S12387   4.303   0.099   7.271 -0.4201 -1.0414  0.4840
  118OSM   H10S12388   4.385   0.170   7.296 -1.8712  0.5118  1.0062
  118OSM   H10T12389   4.341  -0.005   7.277  0.4995 -0.6624  1.6109
  118OSM   C11S12390   4.202   0.121   7.384 -0.0700  0.1080 -0.0950
  118OSM   H11S12391   4.103   0.081   7.352 -0.6654  1.6086 -0.2139
  118OSM   H11T12392   4.195   0.232   7.393  1.0937  0.0527  2.1804
  118OSM   C12S12393   4.256   0.053   7.518  0.8351 -0.9642  0.1247
  118OSM   H12S12394   4.359   0.091   7.535  0.3309  0.7947 -0.5582
  118OSM   H12T12395   4.272  -0.054   7.492  2.1973 -0.0520 -3.4894
  118OSM   C13S12396   4.161   0.081   7.635  0.5252 -0.6155  0.2594
  118OSM   H13S12397   4.062   0.034   7.617  0.3180  0.7315 -2.6927
  118OSM   H13T12398   4.137   0.189   7.642 -1.1190 -0.9298 -0.0369
  118OSM   C14S12399   4.210   0.029   7.775  0.0717 -0.2897 -0.1429
  118OSM   H14S12400   4.287   0.101   7.809  0.3846  1.4435 -4.0068
  118OSM   H14T12401   4.255  -0.072   7.771 -1.9896 -1.2877  0.2155
  118OSM   C15S12402   4.095   0.026   7.878  0.1204 -0.4412  0.6833
  118OSM   H15S12403   4.016  -0.035   7.831  0.9256 -1.8770  1.1258
  118OSM   H15T12404   4.054   0.129   7.885 -2.3837 -1.1225 -2.1094
  118OSM   C16S12405   4.147  -0.038   8.004  0.5592 -0.3309  0.4578
  118OSM   H16S12406   4.212   0.039   8.050  4.6829 -2.1275 -1.8601
  118OSM   H16T12407   4.200  -0.131   7.975 -1.3638 -2.3408  2.9080
  118OSM   C17S12408   4.038  -0.068   8.106 -0.6238 -0.4117  0.0313
  118OSM   H17S12409   3.967  -0.140   8.059 -1.6509  0.4247  0.2882
  118OSM   H17T12410   3.992   0.030   8.130  1.9975  0.7673  0.6667
  118OSM   C18S12411   4.087  -0.140   8.240 -0.4815 -0.6589  0.4784
  118OSM   H18S12412   4.111  -0.246   8.219 -2.4788 -1.0213 -0.1562
  118OSM   H18T12413   4.004  -0.121   8.312 -2.4013 -0.5502 -1.6269
  118OSM   H18U12414   4.173  -0.079   8.275 -0.5868 -1.1801  1.6909
  118OSM    C1F12415   4.313   0.093   6.421 -1.1101  0.5106 -0.7833
  118OSM     OF12416   4.368   0.192   6.367 -0.2893 -0.2720 -0.1752
  118OSM    C2F12417   4.396  -0.029   6.444 -0.2881 -0.0922  0.0864
  118OSM    H2F12418   4.458  -0.040   6.352 -0.1931 -0.1153  0.1531
  118OSM    H2G12419   4.337  -0.123   6.440  0.1378 -0.3619 -0.0223
  118OSM    C3F12420   4.475  -0.023   6.579 -1.3580  0.7885  0.4425
  118OSM    H3F12421   4.523   0.077   6.579 -0.6850  0.5814 -3.0024
  118OSM    H3G12422   4.555  -0.101   6.585 -2.5376 -0.6142 -1.1517
  118OSM    C4F12423   4.402  -0.027   6.715  0.7584 -0.1827  0.2663
  118OSM    H4F12424   4.330  -0.112   6.712 -0.2023  0.5296  1.7791
  118OSM    H4G12425   4.346   0.068   6.729  2.3749  0.5132  2.6059
  118OSM    C5F12426   4.493  -0.048   6.840 -0.4602 -0.5272  0.3121
  118OSM    H5F12427   4.524  -0.154   6.850  1.9379  0.0974  0.0754
  118OSM    H5G12428   4.433  -0.033   6.932  1.1549 -2.0887  1.6787
  118OSM    C6F12429   4.621   0.038   6.845 -0.0166 -0.0444 -0.4514
  118OSM    H6F12430   4.597   0.145   6.829  1.2671  0.0401 -2.0441
  118OSM    H6G12431   4.682   0.026   6.753 -1.5620  2.4876 -1.9379
  118OSM    C7F12432   4.706   0.031   6.970  0.2183  0.6010 -0.1266
  118OSM    H7F12433   4.772  -0.059   6.970 -0.4854  0.0737  0.2688
  118OSM    H7G12434   4.638   0.021   7.057  0.4539 -0.0830 -0.0082
  118OSM    C8F12435   4.802   0.152   6.990  0.2764 -0.4154  0.7238
  118OSM    H8F12436   4.828   0.151   7.098 -1.2505 -1.7262  1.1035
  118OSM    H8G12437   4.730   0.237   6.993  0.3904 -0.3509  2.4103
  118OSM    C9F12438   4.932   0.169   6.907  0.5109  0.5365  0.0974
  118OSM    H9F12439   4.914   0.222   6.813 -0.7740 -0.5026 -0.2769
  118OSM   C10F12440   5.057   0.139   6.938  0.1248 -0.4536 -0.0895
  118OSM   H10F12441   5.133   0.165   6.863 -1.9214  0.0675 -2.1122
  118OSM   C11F12442   5.108   0.079   7.068 -0.4373 -0.1552  0.5547
  118OSM   H11F12443   5.100   0.143   7.159  2.5220  0.2649  0.5906
  118OSM   H11G12444   5.216   0.060   7.055 -0.5741 -0.8722  0.3825
  118OSM   C12F12445   5.047  -0.059   7.108  0.2511  0.0179  0.3717
  118OSM   H12F12446   5.064  -0.133   7.027  0.2792  0.7477 -0.3033
  118OSM   H12G12447   4.936  -0.046   7.110 -0.0399 -1.4058 -2.3349
  118OSM   C13F12448   5.104  -0.116   7.237 -0.7127  0.2970  0.7476
  118OSM   H13F12449   5.214  -0.116   7.223 -0.3943 -1.4334  2.6909
  118OSM   H13G12450   5.069  -0.221   7.240 -0.4309  0.2211  1.9223
  118OSM   C14F12451   5.068  -0.042   7.366  0.2330  0.3111 -0.8187
  118OSM   H14F12452   5.072   0.067   7.346 -1.2429  0.5394 -0.0491
  118OSM   H14G12453   5.132  -0.070   7.452 -0.8485 -0.4982 -0.2558
  118OSM   C15F12454   4.924  -0.068   7.408  0.2879  0.2063 -0.3091
  118OSM   H15F12455   4.931  -0.120   7.506 -0.6432 -0.3573 -0.5233
  118OSM   H15G12456   4.872  -0.146   7.347  0.4037  0.3990 -0.6522
  118OSM   C16F12457   4.832   0.043   7.432 -0.5678 -0.1877  0.1482
  118OSM   H16F12458   4.809   0.095   7.336  1.1476 -1.2955 -0.9251
  118OSM   H16G12459   4.897   0.107   7.496 -0.5304  0.6044 -0.6568
  118OSM   C17F12460   4.707  -0.002   7.502 -0.6354 -0.7412 -0.3664
  118OSM   H17F12461   4.668   0.095   7.538  0.5774 -0.2759 -0.2683
  118OSM   H17G12462   4.740  -0.066   7.586  1.7225 -0.8917 -1.3417
  118OSM   C18F12463   4.599  -0.081   7.419 -0.0856 -0.4841  0.2084
  118OSM   H18F12464   4.561  -0.032   7.327  1.0944 -0.4057 -0.2586
  118OSM   H18G12465   4.525  -0.142   7.474  0.7932 -1.4796  0.3175
  118OSM   H18H12466   4.653  -0.161   7.364  1.5748  0.8061 -0.1577
  119OSM      N12467   2.407   5.325   5.722 -0.2344  0.2100  0.1354
  119OSM    C1512468   2.494   5.259   5.621  0.7544  0.0678 -0.6144
  119OSM   H15A12469   2.588   5.311   5.612  0.7799  0.2291  0.3735
  119OSM   H15B12470   2.435   5.249   5.531  0.3188  0.0976 -0.3372
  119OSM   H15C12471   2.511   5.153   5.632 -1.3007 -0.2367  0.1205
  119OSM    C1412472   2.278   5.254   5.739  0.1466  0.3638  0.1785
  119OSM   H14A12473   2.286   5.146   5.738 -2.2281  0.1164 -2.0555
  119OSM   H14B12474   2.215   5.274   5.654  0.4036  0.1315 -0.0668
  119OSM   H14C12475   2.226   5.267   5.833  1.8238 -3.1630  1.8059
  119OSM    C1312476   2.472   5.319   5.859  0.3361 -0.9764 -0.5772
  119OSM   H13A12477   2.567   5.370   5.867  0.6792 -1.5390 -1.0462
  119OSM   H13B12478   2.481   5.218   5.895  1.0507 -0.4582  0.7945
  119OSM   H13C12479   2.416   5.376   5.933  0.6783 -1.1157 -0.2096
  119OSM    C1212480   2.384   5.473   5.684  0.5469  0.0534  0.2062
  119OSM   H12A12481   2.339   5.468   5.587 -0.3623  0.4731  0.5955
  119OSM   H12B12482   2.482   5.517   5.678  1.4890 -1.7269  1.4175
  119OSM    C1112483   2.306   5.562   5.782 -0.1401 -0.2088  0.5963
  119OSM   H11A12484   2.206   5.520   5.805  1.2924 -4.6042 -0.0949
  119OSM   H11B12485   2.263   5.648   5.726  2.7326  0.7828 -0.2910
  119OSM      P12486   2.484   5.710   5.908  0.0197  0.3341  0.0799
  119OSM    O1312487   2.541   5.733   5.775 -0.1069 -0.3752 -0.0155
  119OSM    O1412488   2.422   5.823   5.975  0.7249 -0.2728 -0.3706
  119OSM    O1112489   2.599   5.646   5.998 -0.2519  0.0054 -0.7356
  119OSM    O1212490   2.378   5.597   5.898  0.6267 -0.1318 -0.0776
  119OSM    C1S12491   2.554   5.616   6.138 -0.0546 -0.5749  0.0863
  119OSM    H1S12492   2.556   5.505   6.140 -0.2358 -0.5890 -0.5105
  119OSM    H1T12493   2.451   5.645   6.169 -0.6735 -1.4595 -1.0875
  119OSM     NF12494   2.633   5.597   6.375 -0.4669  0.0189 -0.3924
  119OSM    HNF12495   2.599   5.660   6.444  1.3461  2.0778 -1.2822
  119OSM    C2S12496   2.658   5.668   6.243  0.1195  0.6407 -0.8868
  119OSM    H2S12497   2.760   5.642   6.207  0.0498  0.3464 -0.8720
  119OSM    C3S12498   2.652   5.823   6.251 -0.5991  0.3828  0.6260
  119OSM    H3S12499   2.545   5.852   6.251 -0.5291  0.6568  0.9004
  119OSM     O312500   2.692   5.879   6.126  0.0392 -0.6970  0.1083
  119OSM    HO312501   2.676   5.804   6.068 -0.2599 -1.1441  0.7564
  119OSM    C4S12502   2.724   5.880   6.365  0.7584  0.6192 -0.5736
  119OSM    H4S12503   2.826   5.839   6.360  0.1817 -0.7865 -1.1543
  119OSM    C5S12504   2.676   5.965   6.457 -0.3858  0.3823  0.2317
  119OSM    H5S12505   2.570   5.988   6.439 -0.4013 -0.6261 -1.0227
  119OSM    C6S12506   2.747   6.028   6.568 -0.1187 -0.1892  0.4243
  119OSM    H6S12507   2.737   6.138   6.556 -1.3902 -0.4490 -1.1810
  119OSM    H6T12508   2.857   6.015   6.578 -0.4627 -2.1028  2.9510
  119OSM    C7S12509   2.702   5.986   6.706 -0.2333 -0.4716 -0.1419
  119OSM    H7S12510   2.699   5.876   6.715 -0.1741 -0.4137  0.6185
  119OSM    H7T12511   2.594   6.009   6.721 -0.4949 -1.0325 -1.0453
  119OSM    C8S12512   2.796   6.006   6.829  0.1266  0.9478 -0.3397
  119OSM    H8S12513   2.846   6.105   6.822 -1.4253  1.7955  0.0558
  119OSM    H8T12514   2.881   5.935   6.841  0.5974  1.4215 -0.7684
  119OSM    C9S12515   2.720   6.005   6.962  0.7317 -0.5457  0.9216
  119OSM    H9S12516   2.653   5.916   6.964 -0.3083  0.2289  1.6232
  119OSM    H9T12517   2.646   6.088   6.964  1.6088  0.4706 -2.2971
  119OSM   C10S12518   2.789   6.013   7.098 -0.1299 -0.4676 -0.0307
  119OSM   H10S12519   2.837   6.113   7.103 -1.3330  0.0825  1.0615
  119OSM   H10T12520   2.856   5.926   7.111 -0.3333 -0.6343 -0.1030
  119OSM   C11S12521   2.678   6.017   7.206 -0.2196 -0.5650 -1.2423
  119OSM   H11S12522   2.632   5.917   7.219  0.8300 -0.8617  0.5227
  119OSM   H11T12523   2.612   6.103   7.184 -1.0765 -0.8577  0.0802
  119OSM   C12S12524   2.741   6.048   7.349 -0.6355  0.2151  0.0505
  119OSM   H12S12525   2.780   6.152   7.348 -1.1913  0.4348  0.5420
  119OSM   H12T12526   2.835   5.990   7.357 -0.5740  0.1796 -0.8286
  119OSM   C13S12527   2.645   6.028   7.462 -0.8271 -0.3037  0.4169
  119OSM   H13S12528   2.593   5.930   7.468 -0.6749 -0.5189 -1.3177
  119OSM   H13T12529   2.561   6.101   7.458 -2.1985 -1.8202  0.3358
  119OSM   C14S12530   2.716   6.057   7.597  0.2500 -0.4352  0.6137
  119OSM   H14S12531   2.761   6.159   7.590  1.9784 -1.2165 -0.0546
  119OSM   H14T12532   2.805   5.994   7.616  2.8970  3.6560  3.6195
  119OSM   C15S12533   2.622   6.053   7.723  0.2932 -0.2743 -0.1660
  119OSM   H15S12534   2.571   5.954   7.729  4.5841 -2.6500  0.7493
  119OSM   H15T12535   2.539   6.125   7.702  0.3537 -1.0266 -3.3285
  119OSM   C16S12536   2.690   6.087   7.858  0.5965  0.3237  0.3733
  119OSM   H16S12537   2.744   6.184   7.850  0.5694  0.3321  0.2940
  119OSM   H16T12538   2.772   6.014   7.879 -0.1870  0.0721  2.8993
  119OSM   C17S12539   2.595   6.098   7.984 -0.6455 -0.5617 -0.3183
  119OSM   H17S12540   2.525   6.182   7.964 -1.8318 -1.1478  1.1556
  119OSM   H17T12541   2.670   6.127   8.060 -0.9425  1.5732 -0.7870
  119OSM   C18S12542   2.529   5.973   8.041 -0.4141  0.7260  0.2589
  119OSM   H18S12543   2.599   5.887   8.034 -0.7914  0.4294  0.0176
  119OSM   H18T12544   2.451   5.942   7.967  0.8754 -0.1754 -0.7776
  119OSM   H18U12545   2.490   5.979   8.145  0.6867  2.0636  0.6098
  119OSM    C1F12546   2.650   5.465   6.402 -0.6031 -1.0703  0.1028
  119OSM     OF12547   2.710   5.391   6.322  0.4324 -0.0167  0.1875
  119OSM    C2F12548   2.583   5.407   6.527 -0.7986  0.1608 -0.5569
  119OSM    H2F12549   2.478   5.392   6.496 -0.1063  0.4162 -3.3089
  119OSM    H2G12550   2.581   5.481   6.610 -0.3255 -1.3291  0.8231
  119OSM    C3F12551   2.635   5.269   6.567  0.2152  0.1127 -0.0114
  119OSM    H3F12552   2.745   5.274   6.582  0.3615  1.2514 -1.3298
  119OSM    H3G12553   2.601   5.204   6.484 -1.9805  0.0434  0.8726
  119OSM    C4F12554   2.565   5.230   6.704 -0.4246 -0.2429  0.5533
  119OSM    H4F12555   2.463   5.197   6.677 -0.2096 -1.2702  0.9242
  119OSM    H4G12556   2.565   5.320   6.770 -1.4026  0.6472 -0.6384
  119OSM    C5F12557   2.643   5.120   6.775  0.3509 -0.0294  0.7447
  119OSM    H5F12558   2.752   5.142   6.783  0.5173 -0.7775  0.5790
  119OSM    H5G12559   2.643   5.025   6.717 -4.8126 -0.9059  1.6837
  119OSM    C6F12560   2.588   5.097   6.917 -0.4061  0.6717  0.5239
  119OSM    H6F12561   2.483   5.059   6.914  0.2633 -1.1822 -1.7335
  119OSM    H6G12562   2.599   5.200   6.959 -0.8091  1.4520 -1.2121
  119OSM    C7F12563   2.682   5.005   7.007 -0.1849  0.1648 -0.1867
  119OSM    H7F12564   2.784   5.049   7.015 -0.9480  1.6133  3.6696
  119OSM    H7G12565   2.695   4.899   6.976 -1.1909 -0.8411  2.4780
  119OSM    C8F12566   2.631   5.002   7.156  0.6224 -0.5361 -0.3006
  119OSM    H8F12567   2.678   4.910   7.195 -0.9598 -2.3968 -2.4938
  119OSM    H8G12568   2.523   4.980   7.153  0.6303 -0.7279  0.6245
  119OSM    C9F12569   2.654   5.129   7.249 -0.4543  0.6286  0.9697
  119OSM    H9F12570   2.607   5.218   7.205  0.1940  0.1281 -0.8084
  119OSM   C10F12571   2.714   5.135   7.369  0.2227  0.0785  0.3209
  119OSM   H10F12572   2.724   5.237   7.409 -2.0077  0.8092 -0.7640
  119OSM   C11F12573   2.765   5.019   7.453  0.7229 -0.4035 -0.7482
  119OSM   H11F12574   2.875   5.021   7.463  0.7024  1.8345 -0.4392
  119OSM   H11G12575   2.736   4.922   7.407  2.8211 -1.4356 -0.0055
  119OSM   C12F12576   2.713   5.028   7.602  0.3364  0.5446 -0.3775
  119OSM   H12F12577   2.749   4.943   7.664  1.3367  2.1551  1.3406
  119OSM   H12G12578   2.602   5.026   7.596  0.2709 -2.5196  0.2808
  119OSM   C13F12579   2.756   5.157   7.676 -0.1404  0.2638 -0.5480
  119OSM   H13F12580   2.691   5.245   7.652  1.5216  0.9426 -2.8900
  119OSM   H13G12581   2.859   5.176   7.640  0.0282 -0.1549 -0.2907
  119OSM   C14F12582   2.759   5.145   7.829 -0.1151  0.8316  0.3462
  119OSM   H14F12583   2.835   5.222   7.856 -0.2993  1.8465 -1.8293
  119OSM   H14G12584   2.805   5.047   7.853 -0.1303 -0.0503 -2.8516
  119OSM   C15F12585   2.621   5.163   7.893  1.2173 -0.3537 -0.1806
  119OSM   H15F12586   2.560   5.087   7.840  2.1496 -1.1214 -0.1796
  119OSM   H15G12587   2.584   5.267   7.882  0.0060 -0.8016 -0.4339
  119OSM   C16F12588   2.644   5.125   8.037 -0.1317 -0.4727 -0.9147
  119OSM   H16F12589   2.697   5.027   8.036  0.3423 -0.2155 -0.9612
  119OSM   H16G12590   2.549   5.109   8.093  1.9080 -2.4512  2.2975
  119OSM   C17F12591   2.711   5.238   8.124 -0.6019  0.2963  0.9528
  119OSM   H17F12592   2.648   5.329   8.124 -0.6656  0.2563  0.4834
  119OSM   H17G12593   2.807   5.258   8.073 -0.2219 -1.4962  0.8863
  119OSM   C18F12594   2.748   5.199   8.271  0.4129  0.0549  0.3096
  119OSM   H18F12595   2.666   5.152   8.329  0.9237 -2.3875 -0.8197
  119OSM   H18G12596   2.797   5.276   8.334 -0.1158 -0.0555  0.8609
  119OSM   H18H12597   2.805   5.104   8.275  0.8393  0.3152  0.5393
  120OSM      N12598   5.677   2.175   6.356  0.6189 -0.2287  0.2296
  120OSM    C1512599   5.728   2.135   6.225  0.2903  0.2240 -0.0281
  120OSM   H15A12600   5.721   2.029   6.204 -0.5772  0.0275  1.1975
  120OSM   H15B12601   5.830   2.171   6.225 -0.1285  1.4469  0.8134
  120OSM   H15C12602   5.691   2.191   6.140 -0.2719  1.5486  1.0499
  120OSM    C1412603   5.749   2.094   6.462 -0.0008  0.3262 -0.5801
  120OSM   H14A12604   5.706   2.087   6.561  2.9080 -1.2419  0.6934
  120OSM   H14B12605   5.851   2.127   6.471  0.3366 -0.1658 -2.1531
  120OSM   H14C12606   5.746   1.989   6.434 -0.2131 -0.0474  0.7550
  120OSM    C1312607   5.710   2.324   6.372  0.1653  0.0204 -0.3749
  120OSM   H13A12608   5.680   2.376   6.283  2.2529 -0.1978 -1.2539
  120OSM   H13B12609   5.817   2.335   6.384  0.5757 -0.6978 -2.8336
  120OSM   H13C12610   5.654   2.370   6.452  1.4761  0.2065  0.4689
  120OSM    C1212611   5.521   2.153   6.362  0.2190 -0.2886  0.0770
  120OSM   H12A12612   5.501   2.190   6.461 -0.4790 -1.2679  0.3159
  120OSM   H12B12613   5.516   2.046   6.357  2.8676 -0.4242 -1.2436
  120OSM    C1112614   5.430   2.223   6.255 -0.6909 -0.0126  0.1116
  120OSM   H11A12615   5.327   2.183   6.258 -0.6669 -0.4681 -2.7422
  120OSM   H11B12616   5.465   2.214   6.150 -1.8769  0.1172 -0.3103
  120OSM      P12617   5.369   2.420   6.405  0.3755 -0.1944 -0.3854
  120OSM    O1312618   5.224   2.390   6.399  0.1647  0.7418 -0.2154
  120OSM    O1412619   5.445   2.379   6.523  0.2838 -0.2432  0.3704
  120OSM    O1112620   5.397   2.574   6.384 -0.4631 -0.0982  0.0888
  120OSM    O1212621   5.438   2.361   6.276 -0.0310 -0.6984 -0.1946
  120OSM    C1S12622   5.351   2.670   6.476  0.4425 -0.4705 -0.0427
  120OSM    H1S12623   5.247   2.645   6.508 -0.0795  1.4447 -0.0738
  120OSM    H1T12624   5.343   2.768   6.425  1.5822 -0.0754  0.4980
  120OSM     NF12625   5.368   2.790   6.677 -0.1624 -0.3395  0.4996
  120OSM    HNF12626   5.393   2.885   6.663 -0.1083 -0.5766 -1.1743
  120OSM    C2S12627   5.439   2.694   6.603 -0.0344 -0.3821  0.3700
  120OSM    H2S12628   5.446   2.601   6.662 -4.0845 -0.9791  0.1842
  120OSM    C3S12629   5.578   2.745   6.548  0.6628  0.1915  0.3696
  120OSM    H3S12630   5.558   2.827   6.476  1.5530  0.4580  0.4190
  120OSM     O312631   5.646   2.654   6.468  0.1993  0.3627 -0.3192
  120OSM    HO312632   5.578   2.590   6.450  0.3047 -1.0118  3.3416
  120OSM    C4S12633   5.666   2.807   6.658  0.1363  0.2741 -0.0875
  120OSM    H4S12634   5.659   2.917   6.661  3.0211  0.5907 -1.3329
  120OSM    C5S12635   5.746   2.741   6.742  0.2427 -0.2309  0.9286
  120OSM    H5S12636   5.750   2.631   6.744 -0.8239 -0.2812  1.3025
  120OSM    C6S12637   5.814   2.804   6.857 -0.1686  0.3655 -0.1962
  120OSM    H6S12638   5.924   2.790   6.842  0.0743  2.0996 -0.2038
  120OSM    H6T12639   5.787   2.741   6.944  1.9147  0.2373  0.4130
  120OSM    C7S12640   5.778   2.950   6.891 -0.1088  0.0363 -0.0836
  120OSM    H7S12641   5.668   2.952   6.906 -0.1332 -1.3922  0.0861
  120OSM    H7T12642   5.784   3.011   6.798 -2.2738 -3.1760 -2.5705
  120OSM    C8S12643   5.873   3.008   6.998  0.0709 -0.0846  0.2864
  120OSM    H8S12644   5.981   2.991   6.980  0.0832 -0.0381  0.3163
  120OSM    H8T12645   5.850   2.959   7.095 -0.1125 -1.8559 -0.6111
  120OSM    C9S12646   5.869   3.165   7.023 -0.1648  0.4477 -0.4403
  120OSM    H9S12647   5.763   3.194   7.035 -1.0353 -2.5747  0.1009
  120OSM    H9T12648   5.919   3.221   6.941 -0.6499  1.6345  0.0500
  120OSM   C10S12649   5.940   3.202   7.159  0.2040  0.1714 -0.2400
  120OSM   H10S12650   5.972   3.308   7.165 -0.8189  0.3903  3.2007
  120OSM   H10T12651   6.031   3.143   7.183  1.3575  2.6504  1.9325
  120OSM   C11S12652   5.848   3.166   7.282  0.3083 -0.7446 -0.1610
  120OSM   H11S12653   5.821   3.059   7.294  1.0952 -0.9707 -0.3953
  120OSM   H11T12654   5.760   3.234   7.279  0.3575 -0.6800 -0.1463
  120OSM   C12S12655   5.907   3.197   7.416 -0.0432  0.8775  0.4792
  120OSM   H12S12656   5.944   3.302   7.413  0.9074  0.5742 -3.4474
  120OSM   H12T12657   6.000   3.137   7.425 -0.3799 -0.0071 -1.3689
  120OSM   C13S12658   5.807   3.167   7.529  0.6185 -0.3320  0.2641
  120OSM   H13S12659   5.791   3.058   7.545  1.1257 -0.7777 -1.8744
  120OSM   H13T12660   5.716   3.230   7.519  0.5960 -0.2343  1.0457
  120OSM   C14S12661   5.868   3.208   7.664  0.1042 -0.2142  0.5514
  120OSM   H14S12662   5.916   3.308   7.655  4.0408 -1.9596 -0.2176
  120OSM   H14T12663   5.947   3.133   7.687  0.6746 -0.4292 -1.8269
  120OSM   C15S12664   5.761   3.202   7.775 -0.3257  0.6674  0.2288
  120OSM   H15S12665   5.698   3.112   7.762 -0.3048  0.5636  0.8226
  120OSM   H15T12666   5.704   3.298   7.769 -2.2342 -0.4771 -0.8262
  120OSM   C16S12667   5.834   3.178   7.909  0.5333 -1.0480  0.3339
  120OSM   H16S12668   5.911   3.257   7.925 -3.3720  3.2309  0.2598
  120OSM   H16T12669   5.882   3.078   7.906  2.0909 -0.4277  2.2453
  120OSM   C17S12670   5.722   3.192   8.022 -0.6639 -0.0003  0.0204
  120OSM   H17S12671   5.661   3.108   7.981 -0.6673  1.1043 -2.3939
  120OSM   H17T12672   5.665   3.287   8.023 -1.9643 -0.7565  1.0451
  120OSM   C18S12673   5.775   3.179   8.165 -0.3443  1.0831 -0.1273
  120OSM   H18S12674   5.805   3.075   8.192  2.4239  1.4501 -1.4133
  120OSM   H18T12675   5.700   3.206   8.242 -2.6902 -1.4124 -1.3534
  120OSM   H18U12676   5.863   3.246   8.174  1.3746 -0.9823 -0.6549
  120OSM    C1F12677   5.259   2.758   6.739 -0.2019  0.0540 -0.1851
  120OSM     OF12678   5.220   2.645   6.751  0.6010  1.3945  0.3722
  120OSM    C2F12679   5.181   2.873   6.795 -0.0076  0.1245  0.6651
  120OSM    H2F12680   5.164   2.954   6.721 -0.2986  2.2475  2.9396
  120OSM    H2G12681   5.251   2.916   6.869  2.1210  0.9085 -1.6566
  120OSM    C3F12682   5.038   2.850   6.858  0.0737 -0.4563  0.4131
  120OSM    H3F12683   4.966   2.800   6.790 -1.8128 -2.1183  3.3973
  120OSM    H3G12684   4.998   2.954   6.860  0.1955 -0.3852 -0.5967
  120OSM    C4F12685   5.032   2.776   6.989 -0.0861 -0.0145 -0.1056
  120OSM    H4F12686   5.127   2.804   7.039  0.9019 -1.7222 -0.9529
  120OSM    H4G12687   5.034   2.667   6.971  0.0934 -0.3420  1.6813
  120OSM    C5F12688   4.911   2.808   7.067  0.4473  0.8238 -0.4854
  120OSM    H5F12689   4.825   2.747   7.029  1.9811 -2.2390  0.5987
  120OSM    H5G12690   4.880   2.914   7.060 -1.2245  0.4130  0.0348
  120OSM    C6F12691   4.909   2.772   7.211  1.0508 -0.0007 -0.4265
  120OSM    H6F12692   4.906   2.661   7.213 -0.6715  0.0182 -0.5320
  120OSM    H6G12693   4.814   2.803   7.258 -1.5437 -4.7184 -1.8729
  120OSM    C7F12694   5.030   2.817   7.302  0.5817 -0.0948 -0.5127
  120OSM    H7F12695   5.030   2.924   7.271 -2.0376 -0.0218 -0.5241
  120OSM    H7G12696   5.122   2.767   7.266  0.2003  1.1555 -3.5454
  120OSM    C8F12697   5.015   2.790   7.454 -0.2846  0.2150 -0.1514
  120OSM    H8F12698   5.028   2.683   7.481 -3.5029 -0.1217  0.4505
  120OSM    H8G12699   4.908   2.809   7.478  0.2316  3.6135 -0.0361
  120OSM    C9F12700   5.102   2.863   7.549 -0.5376  0.1038  0.4386
  120OSM    H9F12701   5.180   2.926   7.504  1.4697 -0.2942  3.0721
  120OSM   C10F12702   5.098   2.848   7.682 -0.3303 -0.7464  0.2717
  120OSM   H10F12703   5.167   2.903   7.748  1.5938 -3.9331  1.0970
  120OSM   C11F12704   5.012   2.755   7.750  0.0740  0.2536 -0.0439
  120OSM   H11F12705   5.070   2.729   7.841 -1.9642  2.1703  1.9096
  120OSM   H11G12706   5.001   2.665   7.685 -0.1629  0.2962 -0.0651
  120OSM   C12F12707   4.874   2.802   7.804 -0.0370 -0.2659 -1.3934
  120OSM   H12F12708   4.797   2.803   7.724 -2.5795 -0.1813  0.9365
  120OSM   H12G12709   4.880   2.909   7.836 -0.9648  0.4755 -3.5004
  120OSM   C13F12710   4.825   2.715   7.924  0.3353 -0.4366  0.0755
  120OSM   H13F12711   4.907   2.652   7.966  1.2790  0.2476 -0.6939
  120OSM   H13G12712   4.762   2.639   7.872 -0.6379  1.0071 -0.9077
  120OSM   C14F12713   4.749   2.792   8.034  0.1378 -0.0815  0.3393
  120OSM   H14F12714   4.648   2.814   7.993  0.6227  1.9833  0.1618
  120OSM   H14G12715   4.801   2.888   8.051  0.3877 -0.0315 -0.6316
  120OSM   C15F12716   4.729   2.723   8.165 -0.6166  0.5705 -0.4512
  120OSM   H15F12717   4.832   2.720   8.206  0.2106  1.3438 -2.3708
  120OSM   H15G12718   4.704   2.615   8.162  0.9236  0.1832 -0.1650
  120OSM   C16F12719   4.639   2.806   8.261 -0.2875 -0.2425  0.4608
  120OSM   H16F12720   4.682   2.907   8.247 -0.1503 -0.5674 -1.9168
  120OSM   H16G12721   4.645   2.782   8.369  1.8910  0.6618  0.5807
  120OSM   C17F12722   4.491   2.816   8.217  0.3671  0.0367 -0.1435
  120OSM   H17F12723   4.454   2.711   8.211  2.3573 -0.6124 -2.4542
  120OSM   H17G12724   4.478   2.849   8.112 -1.3342  0.4298  0.1508
  120OSM   C18F12725   4.412   2.901   8.310  0.1683 -0.2681  0.2082
  120OSM   H18F12726   4.433   2.874   8.416 -0.7231 -2.5233 -0.1269
  120OSM   H18G12727   4.304   2.891   8.290 -0.1991  1.2003  1.3311
  120OSM   H18H12728   4.436   3.009   8.314 -1.0238  0.1076 -1.6873
  121OSM      N12729   0.793   6.376   5.977  0.0534  0.4839  0.1918
  121OSM    C1512730   0.801   6.224   5.987 -0.1319  0.7701 -0.4981
  121OSM   H15A12731   0.776   6.186   6.085 -2.1818 -0.7066 -1.5010
  121OSM   H15B12732   0.904   6.194   5.974  0.8600  1.5001  3.9676
  121OSM   H15C12733   0.746   6.174   5.908 -1.1288  0.4817  0.3499
  121OSM    C1412734   0.816   6.408   5.825  0.3473 -0.4411  0.0963
  121OSM   H14A12735   0.915   6.385   5.789 -0.0610 -0.2179 -1.2181
  121OSM   H14B12736   0.795   6.514   5.821  2.7895  0.0521 -1.1988
  121OSM   H14C12737   0.744   6.359   5.762  0.0424  1.3042 -0.9597
  121OSM    C1312738   0.652   6.410   6.013  0.3590  0.5985  0.4693
  121OSM   H13A12739   0.624   6.513   5.995  1.8645  0.9307 -0.0955
  121OSM   H13B12740   0.639   6.399   6.120 -1.4254  0.4076  0.2722
  121OSM   H13C12741   0.591   6.334   5.966  0.1218  1.1885 -0.1979
  121OSM    C1212742   0.891   6.453   6.063 -0.3903  0.4204  0.8227
  121OSM   H12A12743   0.986   6.402   6.061 -1.1544 -1.0636 -1.0908
  121OSM   H12B12744   0.862   6.441   6.166  0.8940  2.7640  1.5244
  121OSM    C1112745   0.916   6.602   6.039  0.4274 -0.3914 -0.0963
  121OSM   H11A12746   0.971   6.621   5.944 -1.3334  0.2836 -1.0353
  121OSM   H11B12747   0.975   6.630   6.129 -1.1471 -0.8989  1.1309
  121OSM      P12748   0.713   6.732   6.145  0.3824 -0.6252 -0.2310
  121OSM    O1312749   0.670   6.869   6.110  0.0241 -0.1869 -0.4835
  121OSM    O1412750   0.618   6.639   6.205  0.5859  0.4357 -0.2235
  121OSM    O1112751   0.826   6.758   6.254 -0.1111  0.6923 -0.6038
  121OSM    O1212752   0.792   6.673   6.020 -0.7495 -0.1811  0.0540
  121OSM    C1S12753   0.799   6.850   6.360  0.3241 -0.0602  0.0986
  121OSM    H1S12754   0.739   6.931   6.313 -0.8631 -1.3887 -0.7528
  121OSM    H1T12755   0.900   6.885   6.391  0.4807 -0.1071 -0.3530
  121OSM     NF12756   0.682   6.920   6.563  0.3557 -0.4594 -0.1693
  121OSM    HNF12757   0.736   6.947   6.642 -0.9462 -0.6985  0.8471
  121OSM    C2S12758   0.725   6.804   6.490  0.1601 -0.1399  0.3119
  121OSM    H2S12759   0.635   6.748   6.457 -0.3995  1.7618 -1.5785
  121OSM    C3S12760   0.813   6.706   6.570  0.8689 -0.1558  0.2417
  121OSM    H3S12761   0.908   6.748   6.610  0.6004  0.3741  0.3378
  121OSM     O312762   0.843   6.589   6.493 -0.2615 -0.8669 -0.1498
  121OSM    HO312763   0.806   6.611   6.407 -0.2715 -0.9593 -0.1692
  121OSM    C4S12764   0.741   6.653   6.696  0.9269 -0.6056  0.2537
  121OSM    H4S12765   0.659   6.580   6.683  1.7690 -1.4244 -0.6623
  121OSM    C5S12766   0.775   6.674   6.823  0.0972 -0.6916  0.7307
  121OSM    H5S12767   0.852   6.751   6.834 -1.3393  0.9900 -0.4934
  121OSM    C6S12768   0.710   6.614   6.943  0.1482 -0.5756 -0.8377
  121OSM    H6S12769   0.606   6.652   6.932  0.4630  0.8872  0.6791
  121OSM    H6T12770   0.760   6.657   7.033  1.3637 -1.7195 -0.9491
  121OSM    C7S12771   0.705   6.464   6.958 -0.4797 -0.2005 -0.0745
  121OSM    H7S12772   0.808   6.424   6.951  0.2381  1.6279 -0.5491
  121OSM    H7T12773   0.645   6.430   6.871  1.5868  0.1218 -1.7244
  121OSM    C8S12774   0.641   6.420   7.086 -0.3784 -0.2092 -0.2329
  121OSM    H8S12775   0.628   6.311   7.069 -0.5280  0.0197 -1.7238
  121OSM    H8T12776   0.539   6.461   7.098  0.2197  1.5113 -0.7260
  121OSM    C9S12777   0.728   6.443   7.219  1.0861  0.5990 -0.5304
  121OSM    H9S12778   0.738   6.553   7.234 -1.7888  0.7064  1.4347
  121OSM    H9T12779   0.831   6.404   7.203 -0.0690 -2.0828 -2.1343
  121OSM   C10S12780   0.657   6.370   7.339  0.3375  0.5072  0.0544
  121OSM   H10S12781   0.616   6.271   7.310 -1.0115  1.3098 -0.9121
  121OSM   H10T12782   0.568   6.435   7.357 -0.1106  0.1664 -0.8596
  121OSM   C11S12783   0.747   6.338   7.463  0.0152 -0.3052  0.5396
  121OSM   H11S12784   0.803   6.434   7.475  0.1831 -0.2848 -0.3501
  121OSM   H11T12785   0.821   6.258   7.439  0.0476 -0.1642  0.1730
  121OSM   C12S12786   0.670   6.291   7.586 -0.0778 -0.0239 -0.8316
  121OSM   H12S12787   0.615   6.197   7.564 -0.1271 -0.2973  0.4072
  121OSM   H12T12788   0.597   6.368   7.621 -0.1945 -1.5233  2.6000
  121OSM   C13S12789   0.749   6.275   7.717 -0.1515  0.4480  1.2788
  121OSM   H13S12790   0.788   6.377   7.741 -0.1313  0.9639 -0.7556
  121OSM   H13T12791   0.835   6.205   7.715 -0.7728 -0.3292  1.4594
  121OSM   C14S12792   0.665   6.236   7.842 -0.4908  0.5649 -0.8467
  121OSM   H14S12793   0.669   6.125   7.841  0.3303  0.5572  0.4460
  121OSM   H14T12794   0.563   6.278   7.827 -1.8372 -2.5955 -1.5222
  121OSM   C15S12795   0.724   6.277   7.984  0.6739 -0.3882 -0.5518
  121OSM   H15S12796   0.808   6.205   7.998 -0.4450 -1.4407  1.0839
  121OSM   H15T12797   0.650   6.253   8.063  0.5959  0.6560 -0.2915
  121OSM   C16S12798   0.773   6.420   7.991  0.3710  0.8767  0.7480
  121OSM   H16S12799   0.689   6.482   7.951  0.7553  0.7347 -0.3136
  121OSM   H16T12800   0.861   6.441   7.927 -0.3033  2.9103  0.4018
  121OSM   C17S12801   0.805   6.461   8.137  0.1583 -0.1525 -0.3405
  121OSM   H17S12802   0.867   6.382   8.182 -0.7253 -0.2310  0.7872
  121OSM   H17T12803   0.703   6.462   8.181  0.1279  1.1248 -0.4118
  121OSM   C18S12804   0.869   6.600   8.159  0.1665  0.2175  0.4179
  121OSM   H18S12805   0.970   6.604   8.115 -0.2815 -1.8979 -0.9596
  121OSM   H18T12806   0.859   6.639   8.263 -3.1639 -1.1634  0.7541
  121OSM   H18U12807   0.807   6.669   8.098 -0.7716 -0.0459  1.0456
  121OSM    C1F12808   0.573   6.988   6.526  0.3823  0.0932 -0.7773
  121OSM     OF12809   0.498   6.942   6.438  0.1726  0.1126 -0.4625
  121OSM    C2F12810   0.540   7.115   6.599 -0.2698  0.9925 -0.1772
  121OSM    H2F12811   0.536   7.198   6.525 -0.1388 -0.4743 -1.9022
  121OSM    H2G12812   0.607   7.137   6.685  0.7315  1.8903 -1.1520
  121OSM    C3F12813   0.400   7.104   6.660  0.4606 -0.0958 -0.3573
  121OSM    H3F12814   0.332   7.104   6.572  1.3137 -0.8920 -1.0454
  121OSM    H3G12815   0.375   7.189   6.727 -1.6209 -1.1083  0.2340
  121OSM    C4F12816   0.377   6.984   6.750  0.2744  0.4546 -0.4024
  121OSM    H4F12817   0.402   6.893   6.691  3.6526  1.3147 -0.5068
  121OSM    H4G12818   0.268   6.966   6.757  0.3680 -0.1416 -0.4061
  121OSM    C5F12819   0.455   7.002   6.882 -0.1728  0.4057 -0.0937
  121OSM    H5F12820   0.447   7.097   6.940 -1.2323 -1.0762  2.3801
  121OSM    H5G12821   0.560   6.979   6.853 -0.7615  0.2617 -2.2301
  121OSM    C6F12822   0.411   6.886   6.978  0.2217 -0.3334  0.2008
  121OSM    H6F12823   0.414   6.780   6.945  1.2978 -0.5340  0.8936
  121OSM    H6G12824   0.304   6.905   7.001  0.2891 -0.6243  0.7745
  121OSM    C7F12825   0.500   6.882   7.098  0.1642 -0.0882 -0.9580
  121OSM    H7F12826   0.527   6.981   7.141  1.5423 -1.0284  0.4592
  121OSM    H7G12827   0.598   6.845   7.061  1.2264  0.8760  0.7611
  121OSM    C8F12828   0.438   6.797   7.214 -0.1818  0.0265 -0.2297
  121OSM    H8F12829   0.511   6.791   7.298 -1.0649  2.6261  0.7939
  121OSM    H8G12830   0.419   6.689   7.196 -0.3684 -0.6065  3.1257
  121OSM    C9F12831   0.304   6.842   7.263 -0.5625 -0.3553 -0.3471
  121OSM    H9F12832   0.226   6.814   7.191 -0.4179 -1.0936 -0.2226
  121OSM   C10F12833   0.276   6.915   7.371 -0.9686  0.3209 -0.3609
  121OSM   H10F12834   0.170   6.941   7.388 -2.2307 -3.4630 -1.3409
  121OSM   C11F12835   0.370   6.970   7.473 -1.0972 -0.6912  0.3123
  121OSM   H11F12836   0.341   7.074   7.500 -0.2271 -0.6442  1.1549
  121OSM   H11G12837   0.479   6.967   7.451 -0.8658  1.2760  1.0239
  121OSM   C12F12838   0.363   6.896   7.610 -0.3573 -0.2266  0.1734
  121OSM   H12F12839   0.257   6.884   7.642 -0.9589 -2.0594 -2.2512
  121OSM   H12G12840   0.416   6.960   7.685 -0.5254  1.1026 -0.8188
  121OSM   C13F12841   0.428   6.757   7.628 -0.1985  0.3830 -0.7251
  121OSM   H13F12842   0.366   6.680   7.577 -1.1913  1.2400 -0.8575
  121OSM   H13G12843   0.425   6.728   7.735  0.3294 -1.5404 -1.2053
  121OSM   C14F12844   0.577   6.749   7.584  0.0432 -0.0227 -0.0608
  121OSM   H14F12845   0.583   6.753   7.473 -0.3163 -0.2509 -0.0876
  121OSM   H14G12846   0.614   6.648   7.613  0.4309  0.1702  0.1312
  121OSM   C15F12847   0.670   6.855   7.635  0.6543 -0.5687  0.3334
  121OSM   H15F12848   0.634   6.953   7.597  0.0148 -1.0511 -0.3379
  121OSM   H15G12849   0.769   6.838   7.586  1.2062  2.7329  0.0596
  121OSM   C16F12850   0.693   6.854   7.785 -0.9572  0.3246  0.7618
  121OSM   H16F12851   0.719   6.752   7.819  0.0224  1.4341  3.6670
  121OSM   H16G12852   0.601   6.889   7.836 -0.5964 -0.0217  1.6862
  121OSM   C17F12853   0.805   6.949   7.814 -0.0743  0.2195  0.0720
  121OSM   H17F12854   0.882   6.936   7.735 -0.1136 -0.1694  0.0947
  121OSM   H17G12855   0.856   6.918   7.908 -0.4355 -1.6743 -0.3184
  121OSM   C18F12856   0.756   7.098   7.805  0.0855  0.8223 -0.4637
  121OSM   H18F12857   0.820   7.166   7.865 -1.5418  1.2447  0.8575
  121OSM   H18G12858   0.656   7.098   7.853  0.1382 -3.2883 -0.0068
  121OSM   H18H12859   0.737   7.130   7.700 -1.3268  1.4465 -0.0379
  122OSM      N12860   0.121   0.791   5.792 -0.0597 -0.6493  0.2897
  122OSM    C1512861   0.268   0.791   5.799  0.0206  1.3475  0.9055
  122OSM   H15A12862   0.320   0.874   5.844  2.4605 -0.4810  1.6870
  122OSM   H15B12863   0.306   0.773   5.699 -0.9881 -1.4798  0.9270
  122OSM   H15C12864   0.304   0.711   5.862 -1.1886  0.6217  0.7148
  122OSM    C1412865   0.074   0.902   5.715  0.5803  0.3606 -0.0814
  122OSM   H14A12866  -0.033   0.892   5.703  0.6434  0.2707 -0.6183
  122OSM   H14B12867   0.119   0.898   5.617  0.0182 -0.0294 -0.3296
  122OSM   H14C12868   0.092   0.998   5.761  0.6273  0.0956  0.4585
  122OSM    C1312869   0.064   0.665   5.728 -0.1370 -0.3067 -0.1294
  122OSM   H13A12870  -0.037   0.698   5.709  0.3003  1.6278  0.6747
  122OSM   H13B12871   0.081   0.579   5.792  2.1046  0.5863  0.5684
  122OSM   H13C12872   0.114   0.646   5.635  3.7446  3.2010  0.9667
  122OSM    C1212873   0.083   0.796   5.937 -0.2023 -0.8379  0.7661
  122OSM   H12A12874  -0.020   0.825   5.944 -0.4175 -1.2975 -0.2708
  122OSM   H12B12875   0.136   0.884   5.973  2.5507 -1.6375 -0.9562
  122OSM    C1112876   0.128   0.673   6.022 -0.3841  0.0329 -0.3849
  122OSM   H11A12877   0.111   0.699   6.129 -0.3146  1.4250 -0.6956
  122OSM   H11B12878   0.238   0.660   6.014 -0.3605  0.2664 -0.4488
  122OSM      P12879  -0.081   0.511   6.043  0.0366  0.0949 -0.0607
  122OSM    O1312880  -0.186   0.598   5.977 -0.0138  0.7850 -0.2001
  122OSM    O1412881  -0.095   0.364   6.026  0.5229  0.5047  0.0468
  122OSM    O1112882  -0.070   0.546   6.196  0.7904 -0.0684  0.0359
  122OSM    O1212883   0.058   0.553   5.990  0.3359 -0.4008  0.5483
  122OSM    C1S12884  -0.182   0.600   6.259  0.6636 -0.5508 -0.8819
  122OSM    H1S12885  -0.280   0.551   6.238 -1.6597  2.4192  2.0375
  122OSM    H1T12886  -0.191   0.709   6.242 -1.6229  0.3330  4.0669
  122OSM     NF12887  -0.288   0.626   6.474  0.3194  0.0203 -0.3700
  122OSM    HNF12888  -0.296   0.718   6.511  0.6673  0.0621 -0.3974
  122OSM    C2S12889  -0.165   0.585   6.409 -0.0290  0.1994 -0.7638
  122OSM    H2S12890  -0.142   0.482   6.442 -0.0447 -0.0416 -1.4806
  122OSM    C3S12891  -0.035   0.669   6.445  0.1004 -0.1600 -0.4292
  122OSM    H3S12892  -0.037   0.765   6.389  0.3099  0.2282  0.2285
  122OSM     O312893   0.085   0.601   6.410 -0.2963 -0.0353 -0.0605
  122OSM    HO312894   0.065   0.556   6.327  1.0159  0.8494 -0.8951
  122OSM    C4S12895  -0.031   0.686   6.593 -0.7780  0.0718 -0.0414
  122OSM    H4S12896  -0.038   0.591   6.648  1.0869  0.1604  0.4103
  122OSM    C5S12897  -0.022   0.804   6.665  0.3914 -0.0010  0.3942
  122OSM    H5S12898  -0.017   0.898   6.608 -0.8435 -1.2479 -1.9269
  122OSM    C6S12899  -0.023   0.805   6.815 -0.5775  0.0291  0.3491
  122OSM    H6S12900   0.041   0.891   6.844  0.8119 -1.0083  0.4701
  122OSM    H6T12901   0.033   0.716   6.852 -0.7839 -0.1721  0.1856
  122OSM    C7S12902  -0.167   0.796   6.882 -0.7352 -0.3736 -0.1590
  122OSM    H7S12903  -0.213   0.704   6.840  0.8799 -0.1926 -2.5211
  122OSM    H7T12904  -0.233   0.880   6.850 -1.7772 -0.9371  0.4625
  122OSM    C8S12905  -0.160   0.798   7.031 -0.0839 -0.3682  0.7065
  122OSM    H8S12906  -0.091   0.716   7.061  0.3134  0.0099  0.8371
  122OSM    H8T12907  -0.261   0.790   7.076 -0.4294 -1.1562 -0.1717
  122OSM    C9S12908  -0.100   0.930   7.096 -0.1017 -0.4441 -0.1484
  122OSM    H9S12909  -0.166   1.014   7.065  0.4997  0.1616  0.2073
  122OSM    H9T12910   0.003   0.940   7.055  0.1703 -0.3384  0.5606
  122OSM   C10S12911  -0.100   0.925   7.250 -0.7610  0.8427  0.5097
  122OSM   H10S12912  -0.180   0.861   7.293  0.2661 -0.2395  0.8461
  122OSM   H10T12913  -0.115   1.030   7.281 -0.0270  1.0171  0.3008
  122OSM   C11S12914   0.028   0.885   7.314 -0.5070  0.2553  0.0506
  122OSM   H11S12915   0.110   0.956   7.289  0.6196 -1.0577 -0.0667
  122OSM   H11T12916   0.053   0.781   7.285 -1.3560  0.3294 -1.0139
  122OSM   C12S12917   0.011   0.886   7.470  0.2064  0.1941  0.4287
  122OSM   H12S12918  -0.050   0.796   7.497  1.1663 -0.0540  1.8534
  122OSM   H12T12919  -0.052   0.972   7.499 -2.0088 -0.8671 -0.9281
  122OSM   C13S12920   0.135   0.878   7.559 -0.0587 -0.7891 -0.4162
  122OSM   H13S12921   0.193   0.972   7.547 -2.0122  0.4285 -0.8474
  122OSM   H13T12922   0.204   0.799   7.525  0.1268 -0.2961 -1.2085
  122OSM   C14S12923   0.095   0.863   7.708  0.0745  0.8173 -0.5415
  122OSM   H14S12924   0.029   0.774   7.712 -0.3868  1.1713 -0.2628
  122OSM   H14T12925   0.039   0.955   7.734  0.6106  1.1191 -0.4286
  122OSM   C15S12926   0.222   0.828   7.803  0.4316  0.2824 -0.1204
  122OSM   H15S12927   0.292   0.909   7.774 -1.0787  1.3764 -0.8416
  122OSM   H15T12928   0.275   0.734   7.778  1.0564  1.3565 -3.2187
  122OSM   C16S12929   0.177   0.840   7.949  0.0333 -0.6486  0.3164
  122OSM   H16S12930   0.087   0.779   7.970 -0.3038 -0.3319 -0.1978
  122OSM   H16T12931   0.144   0.945   7.964 -2.3486 -1.2095 -0.5822
  122OSM   C17S12932   0.295   0.803   8.047 -0.0358 -0.0659 -0.2428
  122OSM   H17S12933   0.386   0.855   8.010 -0.1771 -1.2873 -2.4755
  122OSM   H17T12934   0.319   0.695   8.038  2.4304  0.4066 -0.2030
  122OSM   C18S12935   0.283   0.847   8.192 -0.6286 -0.1895 -0.0473
  122OSM   H18S12936   0.294   0.957   8.200  2.1491 -0.3998  0.1455
  122OSM   H18T12937   0.357   0.796   8.257 -1.3109  1.2899  1.9808
  122OSM   H18U12938   0.183   0.817   8.228 -0.1494 -0.5653  1.0140
  122OSM    C1F12939  -0.395   0.544   6.468  0.3709 -0.3224  0.5729
  122OSM     OF12940  -0.373   0.423   6.451  0.1249  0.0034  0.0344
  122OSM    C2F12941  -0.527   0.605   6.496  0.4737 -0.1144  0.1160
  122OSM    H2F12942  -0.593   0.583   6.410  0.6362 -1.6802  0.3759
  122OSM    H2G12943  -0.514   0.716   6.501 -0.6795  0.0588 -0.5013
  122OSM    C3F12944  -0.591   0.560   6.623 -0.2427 -0.5624  0.0690
  122OSM    H3F12945  -0.629   0.456   6.615 -1.5555 -0.0614 -0.5517
  122OSM    H3G12946  -0.680   0.626   6.633  0.4252  0.3846 -0.0635
  122OSM    C4F12947  -0.513   0.594   6.750 -0.3422  0.0902 -0.1672
  122OSM    H4F12948  -0.534   0.699   6.778 -2.3965 -0.0461 -0.9827
  122OSM    H4G12949  -0.404   0.589   6.729 -0.3417  2.5679 -1.0198
  122OSM    C5F12950  -0.527   0.503   6.876  0.0224 -0.2963 -0.7499
  122OSM    H5F12951  -0.483   0.404   6.852  2.5374  0.8376 -1.1452
  122OSM    H5G12952  -0.631   0.494   6.914  0.6857  1.4642  1.7499
  122OSM    C6F12953  -0.449   0.567   6.991  0.2098  0.1043 -0.2325
  122OSM    H6F12954  -0.506   0.660   7.014 -1.0332 -0.0850 -2.2381
  122OSM    H6G12955  -0.349   0.590   6.947 -1.1042  1.9306 -2.4883
  122OSM    C7F12956  -0.419   0.484   7.111 -0.2692 -0.5713 -0.1992
  122OSM    H7F12957  -0.335   0.516   7.176 -0.2913  0.3932 -0.6304
  122OSM    H7G12958  -0.394   0.380   7.079  1.6651  0.2364 -1.5098
  122OSM    C8F12959  -0.545   0.478   7.209 -0.1154 -0.3125 -0.3025
  122OSM    H8F12960  -0.641   0.442   7.166 -0.5266  0.0334  0.3216
  122OSM    H8G12961  -0.560   0.575   7.260  2.0188 -1.1309  2.0883
  122OSM    C9F12962  -0.512   0.384   7.319  0.3476  0.0384  0.0883
  122OSM    H9F12963  -0.508   0.282   7.279  0.2893  0.3536 -0.7336
  122OSM   C10F12964  -0.490   0.419   7.452  0.3259 -0.0785 -0.6421
  122OSM   H10F12965  -0.453   0.349   7.528 -0.8552  1.2107  1.2110
  122OSM   C11F12966  -0.488   0.555   7.509 -0.3457  0.1343 -0.1394
  122OSM   H11F12967  -0.544   0.550   7.605 -0.9036 -3.4364 -0.4989
  122OSM   H11G12968  -0.538   0.630   7.445  1.6064  1.9359  0.3529
  122OSM   C12F12969  -0.342   0.605   7.534  0.5020 -0.3523 -0.1475
  122OSM   H12F12970  -0.295   0.610   7.433 -0.1448 -0.9447 -0.4882
  122OSM   H12G12971  -0.282   0.531   7.592  2.8205  0.3385 -1.5361
  122OSM   C13F12972  -0.332   0.740   7.601  0.4066 -0.0890  0.2829
  122OSM   H13F12973  -0.223   0.762   7.590  0.2121  0.1620 -1.5705
  122OSM   H13G12974  -0.350   0.737   7.710 -0.8560  1.5217  0.1559
  122OSM   C14F12975  -0.422   0.845   7.528 -0.7452 -0.0997  0.1142
  122OSM   H14F12976  -0.525   0.824   7.564 -0.3861 -1.3183  0.4799
  122OSM   H14G12977  -0.425   0.841   7.417 -1.8387  1.5118  0.0549
  122OSM   C15F12978  -0.382   0.986   7.565  0.2778 -0.8909 -0.3938
  122OSM   H15F12979  -0.274   0.999   7.545  0.2979 -3.0369 -2.0405
  122OSM   H15G12980  -0.409   1.009   7.671  0.8470  0.5805 -0.5474
  122OSM   C16F12981  -0.445   1.091   7.475 -0.0875 -0.1070 -0.0575
  122OSM   H16F12982  -0.552   1.098   7.506  0.3032  1.4823  1.0380
  122OSM   H16G12983  -0.429   1.054   7.372  0.5947  1.1228 -0.4149
  122OSM   C17F12984  -0.378   1.223   7.509 -0.0087 -0.3447 -0.0434
  122OSM   H17F12985  -0.380   1.240   7.619 -3.3897  2.7889 -0.3831
  122OSM   H17G12986  -0.426   1.303   7.449 -1.6385 -0.1016  1.4835
  122OSM   C18F12987  -0.237   1.237   7.453 -0.1972  0.3344 -0.3266
  122OSM   H18F12988  -0.233   1.257   7.343  1.3476 -1.3522 -0.6152
  122OSM   H18G12989  -0.171   1.149   7.466  0.1862  0.4641 -1.2661
  122OSM   H18H12990  -0.193   1.329   7.497  1.6332 -0.3666 -0.6246
  123OSM      N12991   2.943   3.922   6.175 -0.4111 -0.1023 -0.3204
  123OSM    C1512992   3.060   3.911   6.266 -0.6445  0.2316 -0.3846
  123OSM   H15A12993   3.030   3.850   6.351 -1.5412  2.5244  1.0266
  123OSM   H15B12994   3.096   4.006   6.302  1.6475 -1.7052  3.0478
  123OSM   H15C12995   3.144   3.864   6.216  0.5834 -0.4270  2.0859
  123OSM    C1412996   2.826   3.981   6.249 -0.0544 -0.5148 -0.1693
  123OSM   H14A12997   2.802   3.920   6.335  0.2000 -2.7572 -1.6150
  123OSM   H14B12998   2.746   3.969   6.178  1.3359 -1.3477 -1.6886
  123OSM   H14C12999   2.835   4.085   6.276 -0.8031 -0.9759  2.0828
  123OSM    C1313000   2.968   4.014   6.068  0.7241 -0.0360  0.1760
  123OSM   H13A13001   3.061   3.979   6.024  0.9819 -0.4218  1.0170
  123OSM   H13B13002   2.990   4.115   6.099  1.0062  0.4145 -1.3999
  123OSM   H13C13003   2.898   4.014   5.985  3.3057 -1.5598 -2.2067
  123OSM    C1213004   2.901   3.786   6.119 -0.0101 -0.4237 -0.0750
  123OSM   H12A13005   2.817   3.800   6.052  1.6758  1.6412 -1.9340
  123OSM   H12B13006   2.872   3.722   6.201  1.4442 -1.7687 -0.5481
  123OSM    C1113007   3.006   3.712   6.045 -1.1842 -0.7134 -0.1001
  123OSM   H11A13008   3.061   3.776   5.973 -0.9567  0.3222  0.9580
  123OSM   H11B13009   2.978   3.625   5.982  2.1982 -1.4693 -0.8106
  123OSM      P13010   3.095   3.532   6.211 -0.1203 -0.2121 -0.0146
  123OSM    O1313011   3.075   3.425   6.113  0.3200  0.3295  0.1646
  123OSM    O1413012   3.206   3.520   6.304  0.8509  0.3355  0.2795
  123OSM    O1113013   2.958   3.560   6.293 -0.3572  0.6934 -0.4786
  123OSM    O1213014   3.109   3.667   6.137 -0.5070 -0.0281 -0.6853
  123OSM    C1S13015   2.936   3.455   6.388 -0.0601 -0.2606 -0.7706
  123OSM    H1S13016   2.978   3.356   6.362 -1.8392 -0.7652 -1.9415
  123OSM    H1T13017   2.826   3.441   6.392 -0.3566  1.6985 -0.9297
  123OSM     NF13018   2.964   3.406   6.631 -0.0343  0.0944  0.2591
  123OSM    HNF13019   2.869   3.393   6.659  0.1774 -1.4600  0.3327
  123OSM    C2S13020   2.976   3.508   6.526  0.2360  0.5347  0.5104
  123OSM    H2S13021   3.082   3.542   6.526  1.0970 -1.5820  3.8941
  123OSM    C3S13022   2.890   3.633   6.569 -0.4985  0.2265  0.3452
  123OSM    H3S13023   2.791   3.596   6.605  0.7317 -1.0050  2.7489
  123OSM     O313024   2.863   3.730   6.467  0.3382  0.3447 -0.3260
  123OSM    HO313025   2.894   3.688   6.386 -2.0712 -1.2505 -0.5294
  123OSM    C4S13026   2.951   3.702   6.687 -0.9580  0.0762 -0.2972
  123OSM    H4S13027   2.899   3.702   6.783 -0.7751  0.5817 -0.1902
  123OSM    C5S13028   3.069   3.780   6.670  0.1283 -0.1508  0.0823
  123OSM    H5S13029   3.099   3.793   6.565 -2.4603  0.5772 -0.6551
  123OSM    C6S13030   3.124   3.863   6.782 -0.0387  0.0567  0.0767
  123OSM    H6S13031   3.080   3.965   6.787  1.6694  0.9314 -1.4731
  123OSM    H6T13032   3.233   3.868   6.761 -0.3851 -2.0990 -2.8245
  123OSM    C7S13033   3.119   3.793   6.911 -0.1042  0.4315  0.7626
  123OSM    H7S13034   3.180   3.701   6.902  0.2505  0.8626 -2.5187
  123OSM    H7T13035   3.011   3.772   6.927 -0.7686 -0.4570 -3.6413
  123OSM    C8S13036   3.166   3.871   7.032  0.3640 -0.3459 -0.1799
  123OSM    H8S13037   3.096   3.951   7.063  0.7248  0.6794 -1.9250
  123OSM    H8T13038   3.256   3.933   7.011 -0.2365  0.2244 -1.0798
  123OSM    C9S13039   3.195   3.776   7.147  0.0879 -0.0621  0.2390
  123OSM    H9S13040   3.267   3.699   7.113 -0.4518  0.0191 -1.1330
  123OSM    H9T13041   3.108   3.721   7.189  0.2411  1.3402  2.6098
  123OSM   C10S13042   3.260   3.858   7.264 -0.2284  0.0915 -0.2872
  123OSM   H10S13043   3.346   3.916   7.225 -1.7939  0.8767 -2.8499
  123OSM   H10T13044   3.285   3.776   7.334  2.3200  0.1984 -0.9691
  123OSM   C11S13045   3.167   3.951   7.344 -0.1648  0.0323  0.6922
  123OSM   H11S13046   3.090   3.988   7.274  0.7701 -0.0477 -0.4019
  123OSM   H11T13047   3.233   4.035   7.375  2.8235 -0.6641 -3.0706
  123OSM   C12S13048   3.104   3.899   7.468  0.4966  0.2157 -0.2568
  123OSM   H12S13049   3.058   3.799   7.453 -0.9551  1.0280 -1.3762
  123OSM   H12T13050   3.012   3.960   7.479 -0.4481 -1.1900 -0.1117
  123OSM   C13S13051   3.190   3.909   7.594 -0.8058  0.0019 -0.0163
  123OSM   H13S13052   3.202   4.013   7.629 -0.6235  0.4399 -1.3240
  123OSM   H13T13053   3.282   3.850   7.575 -1.9729 -2.9016  2.5015
  123OSM   C14S13054   3.125   3.837   7.720 -0.4232 -0.1827 -0.0961
  123OSM   H14S13055   3.113   3.727   7.708  3.5320 -0.8273  0.4277
  123OSM   H14T13056   3.022   3.877   7.734  0.0855  0.7158  1.2579
  123OSM   C15S13057   3.215   3.862   7.843  0.2540  0.2712 -0.6420
  123OSM   H15S13058   3.239   3.969   7.861  1.1048 -0.3893  3.0730
  123OSM   H15T13059   3.314   3.817   7.820 -0.5830 -1.7570 -0.5295
  123OSM   C16S13060   3.133   3.814   7.962  0.2869  0.6877  0.3890
  123OSM   H16S13061   3.098   3.710   7.943 -1.1920  0.9731  1.3889
  123OSM   H16T13062   3.041   3.875   7.968  0.0953  0.7421 -2.0887
  123OSM   C17S13063   3.192   3.816   8.106 -0.6781  0.0083 -0.4593
  123OSM   H17S13064   3.128   3.765   8.181 -0.6108  3.0950  1.8676
  123OSM   H17T13065   3.208   3.919   8.144 -0.2739  0.1159 -0.9204
  123OSM   C18S13066   3.330   3.749   8.119  0.3053 -0.6270 -0.2890
  123OSM   H18S13067   3.363   3.775   8.222 -2.1107 -0.8901  0.6265
  123OSM   H18T13068   3.403   3.791   8.047  1.6335 -0.9940  0.8073
  123OSM   H18U13069   3.330   3.640   8.099  1.6960 -0.7299  0.1453
  123OSM    C1F13070   3.064   3.319   6.654  0.1185 -0.6764  0.3215
  123OSM     OF13071   3.171   3.335   6.593 -0.1048  0.0924  0.1409
  123OSM    C2F13072   3.042   3.198   6.734  0.0760 -0.1420 -0.2063
  123OSM    H2F13073   3.127   3.184   6.804  1.1525  1.4565 -1.1263
  123OSM    H2G13074   3.055   3.108   6.670  0.3761 -1.1086  1.1709
  123OSM    C3F13075   2.909   3.184   6.816 -0.5329 -0.2311 -0.1333
  123OSM    H3F13076   2.917   3.080   6.854  2.0286  1.1129  3.5356
  123OSM    H3G13077   2.821   3.194   6.748 -0.0695  1.7553 -0.4989
  123OSM    C4F13078   2.888   3.288   6.935 -0.0227  0.3890 -0.5776
  123OSM    H4F13079   2.779   3.301   6.950  0.2450  2.6497 -0.2901
  123OSM    H4G13080   2.920   3.392   6.914  2.0186  0.3752  1.9870
  123OSM    C5F13081   2.968   3.250   7.061 -0.3398  0.2727 -0.4183
  123OSM    H5F13082   3.076   3.234   7.040 -0.2024  0.1558  0.3415
  123OSM    H5G13083   2.924   3.158   7.106  0.2805  0.5488  0.8043
  123OSM    C6F13084   2.961   3.357   7.167  0.7167 -0.1838  0.6547
  123OSM    H6F13085   2.854   3.388   7.170  0.9867  1.4628 -2.6139
  123OSM    H6G13086   3.008   3.447   7.122 -0.0324 -0.3673 -0.5466
  123OSM    C7F13087   3.016   3.305   7.302  0.0579  0.2626  0.8899
  123OSM    H7F13088   3.107   3.243   7.287 -1.7675 -2.4743  0.4566
  123OSM    H7G13089   2.944   3.233   7.347 -0.0635  0.0549  0.3679
  123OSM    C8F13090   3.045   3.407   7.412 -0.3940 -0.7927  0.4004
  123OSM    H8F13091   2.992   3.373   7.504  1.2382  0.2277  1.7885
  123OSM    H8G13092   2.993   3.501   7.386  0.2600  0.0028  1.8482
  123OSM    C9F13093   3.189   3.438   7.429  0.0323  0.3795  0.0010
  123OSM    H9F13094   3.247   3.467   7.340 -0.8688  1.1863 -0.3289
  123OSM   C10F13095   3.262   3.398   7.536 -0.5273 -0.5217  0.1901
  123OSM   H10F13096   3.369   3.424   7.527 -0.7896  0.5322  0.0430
  123OSM   C11F13097   3.228   3.334   7.665 -0.8004 -0.5598 -0.0430
  123OSM   H11F13098   3.244   3.224   7.672  0.0238 -0.4273  0.3132
  123OSM   H11G13099   3.121   3.339   7.691 -0.6201  0.9983  0.5028
  123OSM   C12F13100   3.312   3.399   7.784 -0.7642 -0.8759 -0.3992
  123OSM   H12F13101   3.311   3.510   7.775  1.2894 -0.8573 -0.7685
  123OSM   H12G13102   3.420   3.379   7.765 -1.0663 -3.9519  0.5186
  123OSM   C13F13103   3.270   3.366   7.927  0.0266 -0.7207  0.1963
  123OSM   H13F13104   3.162   3.389   7.922  0.4401  1.1161 -0.9257
  123OSM   H13G13105   3.313   3.431   8.005  0.0067 -0.6466  0.1452
  123OSM   C14F13106   3.299   3.223   7.975  0.1399  0.0353  0.6427
  123OSM   H14F13107   3.408   3.199   7.981  0.2895  0.7530  0.8421
  123OSM   H14G13108   3.266   3.153   7.895  3.0638 -1.8959  0.9726
  123OSM   C15F13109   3.241   3.199   8.110  0.4633 -0.2228 -0.3561
  123OSM   H15F13110   3.130   3.205   8.110  0.4761  0.2643  0.6144
  123OSM   H15G13111   3.278   3.282   8.174 -2.0755  1.4381 -0.9165
  123OSM   C16F13112   3.274   3.058   8.169 -0.0470 -1.3456  0.0477
  123OSM   H16F13113   3.383   3.045   8.188  0.1049 -1.6517 -0.9961
  123OSM   H16G13114   3.237   2.986   8.094 -2.0520  1.2116 -1.5813
  123OSM   C17F13115   3.199   3.043   8.302 -0.3711 -0.0262  0.4660
  123OSM   H17F13116   3.170   3.146   8.331 -1.4861 -0.3765  0.6487
  123OSM   H17G13117   3.290   3.018   8.360  1.0437 -1.0567 -2.0230
  123OSM   C18F13118   3.085   2.936   8.318 -0.3882  0.1089 -0.0030
  123OSM   H18F13119   3.117   2.830   8.329  0.5076  0.5397  1.9395
  123OSM   H18G13120   3.027   2.931   8.223  2.0417  0.5179 -1.6044
  123OSM   H18H13121   3.023   2.958   8.408  0.4940 -0.1940  0.6970
  124OSM      N13122   5.239   6.545   6.363  0.4217 -0.2716  0.1088
  124OSM    C1513123   5.093   6.586   6.374 -0.0812  0.2392 -1.1104
  124OSM   H15A13124   5.056   6.603   6.474 -0.8054  2.0570 -1.6556
  124OSM   H15B13125   5.030   6.509   6.332 -3.1623 -0.0485  3.3126
  124OSM   H15C13126   5.076   6.682   6.329  0.1145  0.2607 -1.1384
  124OSM    C1413127   5.318   6.662   6.420 -0.0030  0.6182  0.6668
  124OSM   H14A13128   5.301   6.750   6.360  0.5770  0.6980  0.6221
  124OSM   H14B13129   5.420   6.629   6.419 -0.4479 -0.8324  0.4258
  124OSM   H14C13130   5.279   6.685   6.519  1.6282 -2.0762  2.0590
  124OSM    C1313131   5.265   6.418   6.447  0.5249 -0.1156  0.4435
  124OSM   H13A13132   5.218   6.439   6.542  1.4081 -0.0626  0.8788
  124OSM   H13B13133   5.369   6.397   6.463  0.2411 -1.4233  0.6858
  124OSM   H13C13134   5.216   6.330   6.408  1.2227 -0.5327  0.4975
  124OSM    C1213135   5.278   6.515   6.223 -0.2793 -0.4497  0.9176
  124OSM   H12A13136   5.384   6.496   6.219 -0.2007  0.2132 -2.2653
  124OSM   H12B13137   5.265   6.607   6.169 -1.8500 -1.0625  0.1868
  124OSM    C1113138   5.207   6.418   6.126 -0.4212  0.3231 -0.2615
  124OSM   H11A13139   5.231   6.445   6.021  3.4558 -2.2691 -0.2487
  124OSM   H11B13140   5.097   6.413   6.144 -0.1381 -1.7770  1.3374
  124OSM      P13141   5.195   6.157   6.195  0.2179  0.1566 -0.0736
  124OSM    O1313142   5.131   6.083   6.080 -0.0025  0.4365  0.0873
  124OSM    O1413143   5.304   6.088   6.267 -0.0113 -0.5477  0.2805
  124OSM    O1113144   5.086   6.209   6.298  0.1530 -0.3872 -0.3080
  124OSM    O1213145   5.262   6.287   6.142  0.5420 -0.1666  0.3259
  124OSM    C1S13146   5.043   6.121   6.396 -0.2990 -0.1777 -0.6143
  124OSM    H1S13147   5.127   6.069   6.447 -0.7555  0.8909  1.3632
  124OSM    H1T13148   4.975   6.044   6.355 -3.4747  2.0397  0.0914
  124OSM     NF13149   4.905   6.097   6.601  0.0371 -0.0212  0.5529
  124OSM    HNF13150   4.806   6.094   6.605  0.0191  0.4416  0.4890
  124OSM    C2S13151   4.956   6.197   6.507 -0.2417 -0.5135 -0.5680
  124OSM    H2S13152   5.023   6.263   6.567 -2.3608  0.8892  0.3673
  124OSM    C3S13153   4.844   6.278   6.445  0.2930 -0.0164  0.1030
  124OSM    H3S13154   4.767   6.207   6.409 -0.0701 -0.3003  1.3822
  124OSM     O313155   4.877   6.349   6.329 -0.3584 -0.4193  0.0734
  124OSM    HO313156   4.951   6.298   6.294  0.2269 -0.4980  1.3539
  124OSM    C4S13157   4.790   6.372   6.547  0.5606  0.9463  0.2387
  124OSM    H4S13158   4.851   6.464   6.551  1.6046  0.3538 -1.2163
  124OSM    C5S13159   4.674   6.347   6.618  0.4124 -0.5058 -0.6983
  124OSM    H5S13160   4.608   6.265   6.588  0.0634  0.7004 -3.5538
  124OSM    C6S13161   4.608   6.438   6.721 -0.4148  0.2713 -0.1683
  124OSM    H6S13162   4.520   6.492   6.681 -0.2300  0.0341 -0.9243
  124OSM    H6T13163   4.690   6.510   6.743 -1.3065  1.2360  0.0554
  124OSM    C7S13164   4.580   6.370   6.860  0.3401 -0.1920  0.4995
  124OSM    H7S13165   4.528   6.273   6.847 -0.3730  0.3509 -0.9127
  124OSM    H7T13166   4.505   6.430   6.917 -1.2974 -0.9988 -0.7402
  124OSM    C8S13167   4.708   6.359   6.945  0.4184  0.1662 -0.5390
  124OSM    H8S13168   4.766   6.453   6.929  0.0419  0.8653  1.8842
  124OSM    H8T13169   4.775   6.279   6.907  0.5855  0.3461 -0.6302
  124OSM    C9S13170   4.671   6.322   7.087 -0.0551 -0.3333  1.3480
  124OSM    H9S13171   4.635   6.218   7.102 -1.3060  0.0425  1.0606
  124OSM    H9T13172   4.588   6.392   7.112  1.6108  1.4221  2.2032
  124OSM   C10S13173   4.780   6.346   7.189  0.0266  0.4996 -0.7005
  124OSM   H10S13174   4.818   6.449   7.172  1.4266 -0.1998 -2.0116
  124OSM   H10T13175   4.866   6.283   7.159 -2.2776 -3.3627  0.1157
  124OSM   C11S13176   4.734   6.305   7.324 -0.1659  0.2102 -0.2008
  124OSM   H11S13177   4.743   6.194   7.328  2.3957  0.3691 -0.0472
  124OSM   H11T13178   4.633   6.344   7.351  0.0422  0.1530  0.6759
  124OSM   C12S13179   4.824   6.371   7.440 -0.7283  0.8224 -1.1430
  124OSM   H12S13180   4.827   6.482   7.433 -0.2351  1.0815  1.8987
  124OSM   H12T13181   4.928   6.332   7.439 -1.0517 -0.0776 -0.7882
  124OSM   C13S13182   4.764   6.351   7.586 -0.3011  0.8699 -0.4038
  124OSM   H13S13183   4.783   6.244   7.608  2.8771  0.6564 -3.2008
  124OSM   H13T13184   4.657   6.380   7.583 -0.1449  1.3831 -1.9981
  124OSM   C14S13185   4.821   6.422   7.702  0.2986  0.2723 -0.4693
  124OSM   H14S13186   4.794   6.530   7.696 -0.4516  0.0598 -1.0342
  124OSM   H14T13187   4.931   6.427   7.687  0.2139 -0.2624 -1.3405
  124OSM   C15S13188   4.772   6.365   7.833 -0.4029 -0.8528  0.1838
  124OSM   H15S13189   4.780   6.255   7.835 -1.0041 -0.9131  1.9895
  124OSM   H15T13190   4.667   6.398   7.851  0.1540  1.1995 -0.1161
  124OSM   C16S13191   4.853   6.420   7.952 -0.6602  0.1217  0.0004
  124OSM   H16S13192   4.827   6.384   8.054  3.0320  0.0211  1.0342
  124OSM   H16T13193   4.846   6.530   7.937  0.9414 -0.1089 -3.2654
  124OSM   C17S13194   5.006   6.394   7.936  0.3769  0.6274  0.2390
  124OSM   H17S13195   5.055   6.428   8.030 -1.3717  0.8411  1.1100
  124OSM   H17T13196   5.033   6.465   7.855  0.3032  0.7995  0.3624
  124OSM   C18S13197   5.054   6.254   7.892 -0.1005  1.1250 -0.1660
  124OSM   H18S13198   5.162   6.239   7.912 -0.2595 -1.3880 -0.8891
  124OSM   H18T13199   5.032   6.229   7.786 -2.5622 -1.5185  0.8121
  124OSM   H18U13200   5.014   6.175   7.959 -0.4161  1.7984  0.4530
  124OSM    C1F13201   4.989   6.022   6.668  0.1264  0.3803 -0.0660
  124OSM     OF13202   5.102   6.064   6.692  0.3318 -0.3703 -0.1351
  124OSM    C2F13203   4.945   5.891   6.722 -0.2874  0.1703  0.3636
  124OSM    H2F13204   4.979   5.822   6.642  3.0040 -1.6645  3.0208
  124OSM    H2G13205   4.835   5.886   6.731 -0.2338 -0.1035  0.8981
  124OSM    C3F13206   5.019   5.857   6.856 -0.4796  0.4202  0.2026
  124OSM    H3F13207   5.120   5.905   6.859  0.2098 -0.9480 -0.4289
  124OSM    H3G13208   5.034   5.747   6.855 -0.1264  0.4659 -0.3355
  124OSM    C4F13209   4.933   5.910   6.972  0.2509  0.6440 -0.0266
  124OSM    H4F13210   4.830   5.869   6.963 -0.1123  1.6953 -0.9504
  124OSM    H4G13211   4.918   6.017   6.944  2.6201  0.3461 -3.0490
  124OSM    C5F13212   4.995   5.886   7.108  0.1538  0.4469 -0.2062
  124OSM    H5F13213   5.096   5.932   7.103  0.0910  0.5896 -0.1783
  124OSM    H5G13214   4.995   5.776   7.126 -0.0044  0.2235 -1.4723
  124OSM    C6F13215   4.931   5.947   7.231 -0.6762 -0.5773 -0.1368
  124OSM    H6F13216   4.820   5.939   7.236 -0.7014 -0.3775 -0.3873
  124OSM    H6G13217   4.938   6.058   7.221  1.3648 -0.7117 -0.6072
  124OSM    C7F13218   4.982   5.904   7.372  0.7836  0.1256  0.3564
  124OSM    H7F13219   5.092   5.900   7.365  0.7931 -1.5250  0.9550
  124OSM    H7G13220   4.941   5.802   7.388 -0.7735  0.4274 -1.3412
  124OSM    C8F13221   4.935   5.997   7.487 -0.1137  0.1570 -0.2943
  124OSM    H8F13222   4.938   6.098   7.439 -2.8970 -0.0276 -1.0351
  124OSM    H8G13223   5.007   5.978   7.569  1.2752 -1.9717 -1.9141
  124OSM    C9F13224   4.785   5.973   7.534 -0.0484  0.5963  0.6183
  124OSM    H9F13225   4.716   6.005   7.455  0.0134 -1.1130 -0.1780
  124OSM   C10F13226   4.732   5.934   7.656 -0.7552  0.7810 -0.5230
  124OSM   H10F13227   4.624   5.945   7.673 -0.6372  0.4784  0.5033
  124OSM   C11F13228   4.807   5.901   7.791 -0.4059 -0.4477  0.3775
  124OSM   H11F13229   4.910   5.941   7.793 -0.4292 -0.3042 -0.6719
  124OSM   H11G13230   4.831   5.793   7.791 -0.6098 -0.5219 -1.3012
  124OSM   C12F13231   4.743   5.939   7.926 -0.3751  0.4633  0.2138
  124OSM   H12F13232   4.745   6.046   7.958 -1.9733  0.7300 -0.4763
  124OSM   H12G13233   4.815   5.897   7.999  0.1848 -0.2527 -0.7350
  124OSM   C13F13234   4.598   5.882   7.949  0.2907 -0.2619  0.2061
  124OSM   H13F13235   4.602   5.773   7.927  3.3321 -0.5099  1.5314
  124OSM   H13G13236   4.542   5.931   7.866  0.8580  0.6455  0.3462
  124OSM   C14F13237   4.539   5.921   8.079  0.4572 -0.0535 -0.5291
  124OSM   H14F13238   4.429   5.906   8.072  0.1403  1.4227  0.8334
  124OSM   H14G13239   4.565   6.027   8.098  0.5055 -0.3626  1.2002
  124OSM   C15F13240   4.588   5.827   8.193 -0.6866 -0.0671  0.6550
  124OSM   H15F13241   4.694   5.850   8.217 -0.0467 -1.1860 -0.9441
  124OSM   H15G13242   4.586   5.725   8.150 -1.1668  0.3175 -0.2843
  124OSM   C16F13243   4.488   5.828   8.316 -0.0633  0.1327 -0.6771
  124OSM   H16F13244   4.386   5.800   8.284 -0.4651 -3.1212  2.7453
  124OSM   H16G13245   4.492   5.935   8.347  0.0191  0.0952 -0.5605
  124OSM   C17F13246   4.515   5.733   8.430 -0.3993 -0.5081 -0.0684
  124OSM   H17F13247   4.504   5.629   8.391 -0.2868 -1.5254  2.4252
  124OSM   H17G13248   4.427   5.746   8.497 -1.7308  1.1319 -2.0171
  124OSM   C18F13249   4.646   5.741   8.498  0.2933 -1.0726 -0.9619
  124OSM   H18F13250   4.658   5.848   8.525 -0.6046 -1.0460 -0.6331
  124OSM   H18G13251   4.723   5.699   8.430  0.5398 -1.0183 -0.7188
  124OSM   H18H13252   4.656   5.675   8.586  4.9423  0.7820  0.1923
  125OSM      N13253   1.757   6.319   5.747  0.1717  0.1926 -0.5011
  125OSM    C1513254   1.705   6.234   5.637 -0.4633  0.0387  0.5479
  125OSM   H15A13255   1.722   6.131   5.664  1.7699  0.0829 -0.4557
  125OSM   H15B13256   1.754   6.255   5.543 -3.4540 -0.0882 -1.1564
  125OSM   H15C13257   1.598   6.239   5.630 -0.5575 -0.1776  1.6245
  125OSM    C1413258   1.899   6.283   5.766 -1.0613 -0.0336 -0.0161
  125OSM   H14A13259   1.917   6.180   5.793  0.2126 -0.1260 -1.1062
  125OSM   H14B13260   1.953   6.347   5.834 -2.0631  1.5291 -0.6431
  125OSM   H14C13261   1.945   6.296   5.669  0.3134 -1.4214  0.4026
  125OSM    C1313262   1.747   6.463   5.711  0.5502 -0.0773 -0.2832
  125OSM   H13A13263   1.792   6.522   5.789  0.6511  0.7691 -0.9645
  125OSM   H13B13264   1.641   6.485   5.713  0.6419  0.3631 -0.1141
  125OSM   H13C13265   1.788   6.496   5.617 -0.2221  2.4419  0.1641
  125OSM    C1213266   1.686   6.286   5.879 -0.0884 -0.0514 -0.3315
  125OSM   H12A13267   1.730   6.348   5.956 -0.8283  1.4842 -1.0926
  125OSM   H12B13268   1.709   6.184   5.904  1.1799  0.2500 -0.1864
  125OSM    C1113269   1.528   6.309   5.889 -0.7654 -0.4017  0.5554
  125OSM   H11A13270   1.492   6.255   5.799  1.1869  1.0596 -1.2031
  125OSM   H11B13271   1.505   6.418   5.886 -0.7031 -0.3859  0.6739
  125OSM      P13272   1.533   6.165   6.109  0.4046 -0.1233 -0.0321
  125OSM    O1313273   1.437   6.128   6.213  0.1353  1.0418 -0.4924
  125OSM    O1413274   1.587   6.057   6.020 -0.8002  0.6590 -0.5206
  125OSM    O1113275   1.649   6.254   6.161  0.2431 -0.4474  0.2580
  125OSM    O1213276   1.475   6.261   6.014  0.0588 -0.0352 -0.0714
  125OSM    C1S13277   1.632   6.398   6.192 -0.3885  0.3420  0.2800
  125OSM    H1S13278   1.535   6.444   6.164 -0.8223 -0.9261 -0.3797
  125OSM    H1T13279   1.711   6.451   6.133  2.0933 -1.8769  1.3995
  125OSM     NF13280   1.606   6.541   6.401 -0.6264  0.1337  0.2683
  125OSM    HNF13281   1.674   6.600   6.442  1.1995 -2.1170  0.7150
  125OSM    C2S13282   1.649   6.412   6.345 -0.5370 -0.2304  0.2930
  125OSM    H2S13283   1.587   6.331   6.389  0.0990  0.6486  3.0585
  125OSM    C3S13284   1.803   6.384   6.376 -0.5364 -0.1338  1.0354
  125OSM    H3S13285   1.864   6.464   6.329  0.5432 -0.7593  1.3454
  125OSM     O313286   1.850   6.265   6.303 -0.1938 -0.0945 -0.4598
  125OSM    HO313287   1.785   6.247   6.234 -0.8558 -0.8280  0.3311
  125OSM    C4S13288   1.842   6.369   6.519 -0.8451 -0.4615  0.3881
  125OSM    H4S13289   1.811   6.273   6.562 -0.2414 -0.3609  1.0612
  125OSM    C5S13290   1.933   6.448   6.582 -1.1262 -0.1905 -0.2403
  125OSM    H5S13291   1.985   6.522   6.521 -3.2967 -0.3797 -2.4620
  125OSM    C6S13292   1.983   6.431   6.723  0.6467  0.7019  0.4347
  125OSM    H6S13293   2.094   6.428   6.715  0.6247  0.8550  0.0190
  125OSM    H6T13294   1.943   6.338   6.768  2.0552  0.0777  0.4726
  125OSM    C7S13295   1.934   6.547   6.814  0.6367 -0.3735 -0.5969
  125OSM    H7S13296   1.823   6.553   6.821  0.3944 -1.1260 -3.0824
  125OSM    H7T13297   1.961   6.645   6.769 -3.4128  0.4517 -1.5906
  125OSM    C8S13298   1.998   6.541   6.953  0.6308  0.5433  0.0634
  125OSM    H8S13299   2.108   6.558   6.956  0.8015 -0.5303  2.2123
  125OSM    H8T13300   1.981   6.438   6.991 -1.2792  1.3037  1.4285
  125OSM    C9S13301   1.941   6.648   7.048 -0.0630 -0.3998  0.3269
  125OSM    H9S13302   1.831   6.649   7.060 -0.1157  2.0436 -0.0210
  125OSM    H9T13303   1.980   6.746   7.013  1.6129 -1.2084 -0.2323
  125OSM   C10S13304   1.992   6.605   7.189 -0.4476  0.3544 -0.3243
  125OSM   H10S13305   2.101   6.583   7.176 -0.9014 -0.4589 -3.5660
  125OSM   H10T13306   1.947   6.508   7.218 -0.3986  1.1013  2.5404
  125OSM   C11S13307   1.961   6.703   7.298  0.5027 -0.6655  0.6941
  125OSM   H11S13308   1.857   6.738   7.277  1.1478  2.5696  2.3335
  125OSM   H11T13309   2.018   6.798   7.291 -2.2862  1.0926  0.1129
  125OSM   C12S13310   1.972   6.646   7.438 -0.1947 -0.6978 -0.7969
  125OSM   H12S13311   2.078   6.626   7.463 -0.2960  1.6230  2.0787
  125OSM   H12T13312   1.919   6.548   7.435  1.6440 -1.7116 -2.1020
  125OSM   C13S13313   1.939   6.745   7.549  0.1457 -0.3610 -0.0603
  125OSM   H13S13314   1.840   6.785   7.517  0.0834 -0.6417 -0.2186
  125OSM   H13T13315   2.006   6.833   7.559  1.3229 -1.1546 -0.6763
  125OSM   C14S13316   1.936   6.673   7.688  0.2203  0.4461  0.1889
  125OSM   H14S13317   2.041   6.651   7.720  0.2500  1.0236  0.5022
  125OSM   H14T13318   1.881   6.577   7.685  0.8525  0.0959 -0.7464
  125OSM   C15S13319   1.862   6.770   7.785 -0.9428 -0.7401  0.7759
  125OSM   H15S13320   1.755   6.752   7.759 -0.8395  0.5929 -0.7402
  125OSM   H15T13321   1.885   6.874   7.753 -1.8009 -1.0992 -1.1931
  125OSM   C16S13322   1.892   6.738   7.934 -0.6070  0.7247  0.8470
  125OSM   H16S13323   1.851   6.820   7.996 -2.2186  0.2735  0.4299
  125OSM   H16T13324   2.003   6.731   7.944 -0.6920 -1.1183  0.8720
  125OSM   C17S13325   1.861   6.596   7.981  0.3228 -0.1929 -0.1218
  125OSM   H17S13326   1.924   6.531   7.917 -0.2179 -0.1121 -0.7432
  125OSM   H17T13327   1.752   6.579   7.976 -0.0916  2.0658 -0.0435
  125OSM   C18S13328   1.903   6.577   8.125 -0.8599  0.6426  0.4425
  125OSM   H18S13329   1.846   6.650   8.186 -1.0096  0.0833  0.9864
  125OSM   H18T13330   2.011   6.583   8.152 -1.2335 -0.6609  2.4756
  125OSM   H18U13331   1.873   6.478   8.165  3.7105 -0.4696  1.7764
  125OSM    C1F13332   1.481   6.574   6.408  0.2206 -0.0454 -0.1843
  125OSM     OF13333   1.391   6.538   6.330  0.0681  0.1993  0.6493
  125OSM    C2F13334   1.450   6.683   6.505 -0.2729  0.0258  0.1225
  125OSM    H2F13335   1.423   6.772   6.444 -0.9630 -1.6151 -2.0775
  125OSM    H2G13336   1.541   6.714   6.561 -0.3707  0.6133 -0.0395
  125OSM    C3F13337   1.345   6.660   6.616  0.4621 -1.1422  0.0946
  125OSM    H3F13338   1.246   6.635   6.572 -0.0051  1.8373 -0.7746
  125OSM    H3G13339   1.334   6.751   6.679  2.3462 -1.0606  0.3575
  125OSM    C4F13340   1.381   6.550   6.704 -0.3330  1.3929  0.5581
  125OSM    H4F13341   1.480   6.563   6.752 -0.4541 -1.8727  1.8755
  125OSM    H4G13342   1.380   6.456   6.646 -2.2934  0.8241  1.4480
  125OSM    C5F13343   1.282   6.524   6.821 -0.5910  0.3341  1.0406
  125OSM    H5F13344   1.334   6.435   6.863  2.0341 -0.1630 -2.7326
  125OSM    H5G13345   1.179   6.494   6.792 -0.4352  1.1525 -0.4714
  125OSM    C6F13346   1.268   6.631   6.931  0.2463 -0.0031 -0.2719
  125OSM    H6F13347   1.255   6.735   6.894 -2.5069 -0.0461  0.3694
  125OSM    H6G13348   1.361   6.644   6.990  1.9444 -0.4923 -2.6759
  125OSM    C7F13349   1.139   6.620   7.016 -0.1000 -0.4887  0.7452
  125OSM    H7F13350   1.105   6.515   7.011 -2.0357  0.0770  1.1454
  125OSM    H7G13351   1.051   6.672   6.972  0.5887  0.3647  0.3296
  125OSM    C8F13352   1.163   6.667   7.160  0.1090 -0.1457 -0.2402
  125OSM    H8F13353   1.193   6.773   7.165 -1.3645  0.2489  1.0143
  125OSM    H8G13354   1.242   6.602   7.202 -1.6059 -0.3657  2.9517
  125OSM    C9F13355   1.029   6.663   7.226  0.1575  0.9049 -0.1546
  125OSM    H9F13356   0.947   6.703   7.165  0.5188 -0.9536 -1.9771
  125OSM   C10F13357   0.998   6.608   7.344 -0.2858 -0.2308  0.0502
  125OSM   H10F13358   0.894   6.609   7.381 -0.1549  0.3309  0.4243
  125OSM   C11F13359   1.108   6.549   7.438 -0.0095 -0.0692 -0.1706
  125OSM   H11F13360   1.186   6.498   7.377 -0.3804 -3.2349  1.7810
  125OSM   H11G13361   1.073   6.471   7.509  0.2920  0.5017  0.6204
  125OSM   C12F13362   1.172   6.653   7.532  0.8635  0.4597  0.7978
  125OSM   H12F13363   1.209   6.747   7.486  5.2301 -1.4483 -0.1601
  125OSM   H12G13364   1.265   6.611   7.576  1.4054 -0.3197 -1.0360
  125OSM   C13F13365   1.089   6.670   7.666  0.1295 -0.2913 -0.0714
  125OSM   H13F13366   1.076   6.571   7.715 -0.0691  1.1466  3.0123
  125OSM   H13G13367   0.986   6.698   7.636  0.2532 -1.3066 -1.6186
  125OSM   C14F13368   1.145   6.768   7.775  0.2762  0.5986  0.2779
  125OSM   H14F13369   1.068   6.769   7.855  0.4580 -0.7199  0.4921
  125OSM   H14G13370   1.157   6.870   7.731 -2.0820 -0.2597 -2.7243
  125OSM   C15F13371   1.274   6.721   7.838  0.3618  0.1910 -0.5067
  125OSM   H15F13372   1.355   6.711   7.762  1.7933 -0.4199  1.0536
  125OSM   H15G13373   1.252   6.627   7.892 -2.1581  0.9508 -0.0490
  125OSM   C16F13374   1.331   6.826   7.939  0.7736  0.4253  0.2470
  125OSM   H16F13375   1.264   6.835   8.028 -0.2343  0.4128 -0.4906
  125OSM   H16G13376   1.342   6.920   7.880  0.9222 -0.1746 -0.6853
  125OSM   C17F13377   1.472   6.798   7.995 -0.2298 -0.1256 -0.2645
  125OSM   H17F13378   1.497   6.874   8.073 -0.4506 -0.9392  0.6194
  125OSM   H17G13379   1.541   6.806   7.908  1.6056 -1.7619  0.9513
  125OSM   C18F13380   1.500   6.660   8.059 -0.3437 -0.5263  0.7879
  125OSM   H18F13381   1.599   6.665   8.108 -0.4176 -1.4652  1.0494
  125OSM   H18G13382   1.506   6.572   7.991 -1.4072 -0.1699  0.2064
  125OSM   H18H13383   1.424   6.639   8.138 -0.5178 -0.4940  0.6317
  126OSM      N13384   2.311   2.417   6.192 -0.5139  0.2132  0.0485
  126OSM    C1513385   2.222   2.339   6.289 -0.7258  0.3709  0.4804
  126OSM   H15A13386   2.140   2.288   6.241 -0.2216  0.0833 -0.0873
  126OSM   H15B13387   2.182   2.417   6.352 -2.7866  0.2281 -0.5467
  126OSM   H15C13388   2.281   2.268   6.344  0.3439 -0.1218 -1.2285
  126OSM    C1413389   2.398   2.325   6.117  0.0655 -0.5573  0.4575
  126OSM   H14A13390   2.449   2.257   6.184 -0.3779 -2.5712 -1.1701
  126OSM   H14B13391   2.463   2.374   6.046 -0.3665 -1.6240 -0.7069
  126OSM   H14C13392   2.331   2.257   6.066  0.0619  0.1786 -0.5582
  126OSM    C1313393   2.210   2.490   6.111 -0.2047 -0.9694  0.2178
  126OSM   H13A13394   2.251   2.556   6.036 -0.7544 -2.1009 -1.1209
  126OSM   H13B13395   2.143   2.552   6.169  0.4752  0.9359 -0.9306
  126OSM   H13C13396   2.150   2.421   6.053  1.1157 -0.3378 -2.0384
  126OSM    C1213397   2.388   2.513   6.278  0.0730  0.8358  0.4371
  126OSM   H12A13398   2.447   2.446   6.338 -3.5329 -3.0852  0.0322
  126OSM   H12B13399   2.312   2.561   6.339 -0.0008 -0.1086  1.0957
  126OSM    C1113400   2.474   2.620   6.208  0.2039 -0.8488  0.2143
  126OSM   H11A13401   2.402   2.692   6.165  0.4491 -0.3201  0.6762
  126OSM   H11B13402   2.542   2.580   6.130 -0.3013  1.4250 -1.4866
  126OSM      P13403   2.678   2.668   6.357  0.0743  0.1246  0.1263
  126OSM    O1313404   2.722   2.537   6.313 -0.1780  0.2497 -0.1612
  126OSM    O1413405   2.753   2.784   6.310 -0.6165  0.5920  0.4130
  126OSM    O1113406   2.683   2.672   6.512  0.2414 -0.3467  0.1404
  126OSM    O1213407   2.525   2.694   6.318 -0.0457 -0.0254 -0.0933
  126OSM    C1S13408   2.746   2.585   6.603  0.5390 -0.0235 -0.1387
  126OSM    H1S13409   2.840   2.632   6.641 -1.1991  2.4928  1.3597
  126OSM    H1T13410   2.762   2.486   6.555  1.4842  0.5914 -1.1226
  126OSM     NF13411   2.747   2.479   6.815  0.6754 -0.0210  0.8969
  126OSM    HNF13412   2.702   2.391   6.824  1.7912 -0.6694  0.3373
  126OSM    C2S13413   2.659   2.556   6.728  0.1089  0.0780  0.5623
  126OSM    H2S13414   2.639   2.650   6.785 -1.7311 -0.7174  1.3200
  126OSM    C3S13415   2.521   2.491   6.682 -0.0691 -0.7465 -0.1406
  126OSM    H3S13416   2.541   2.393   6.635 -0.0797 -0.6270 -0.3956
  126OSM     O313417   2.444   2.567   6.591 -0.3641  0.1695 -0.2693
  126OSM    HO313418   2.493   2.642   6.559 -0.7055  0.3704 -0.3228
  126OSM    C4S13419   2.453   2.462   6.807  0.0737  0.5128  0.0533
  126OSM    H4S13420   2.463   2.357   6.840 -0.6701 -0.1622 -1.7536
  126OSM    C5S13421   2.377   2.545   6.875 -0.1539 -0.0370 -0.7892
  126OSM    H5S13422   2.387   2.650   6.842 -0.1000  0.0531 -0.4874
  126OSM    C6S13423   2.311   2.533   7.009  0.0443  0.2087 -0.3007
  126OSM    H6S13424   2.201   2.538   6.997  0.0215  2.3074  0.4579
  126OSM    H6T13425   2.318   2.631   7.059 -1.2864  0.1585  0.0198
  126OSM    C7S13426   2.352   2.417   7.098 -0.3119  0.2010 -0.7293
  126OSM    H7S13427   2.463   2.418   7.104 -0.2529  1.5939 -1.7332
  126OSM    H7T13428   2.322   2.324   7.045  2.6309 -0.5470 -1.2915
  126OSM    C8S13429   2.298   2.439   7.248  0.1450 -0.1037  0.8576
  126OSM    H8S13430   2.192   2.471   7.243  0.5813  1.2129 -0.7994
  126OSM    H8T13431   2.345   2.538   7.264  1.7485 -0.7848  0.5071
  126OSM    C9S13432   2.331   2.340   7.347 -0.0607  1.0405  0.4726
  126OSM    H9S13433   2.392   2.260   7.300 -1.9438  0.9023 -1.9674
  126OSM    H9T13434   2.240   2.282   7.374  0.6135 -1.9435 -2.7812
  126OSM   C10S13435   2.411   2.382   7.470  0.5327  0.4792  0.1558
  126OSM   H10S13436   2.343   2.446   7.530 -1.8669 -1.9770  0.2472
  126OSM   H10T13437   2.509   2.428   7.446  0.1466  0.2758 -2.0520
  126OSM   C11S13438   2.446   2.270   7.561  0.0236  0.1064 -0.5547
  126OSM   H11S13439   2.500   2.187   7.510 -0.5045  0.0251 -0.9856
  126OSM   H11T13440   2.360   2.224   7.615  0.2317 -1.0532 -1.1848
  126OSM   C12S13441   2.532   2.331   7.676  0.1980  0.3925  0.3209
  126OSM   H12S13442   2.472   2.414   7.721 -0.3595  0.2321 -0.1167
  126OSM   H12T13443   2.630   2.368   7.641  0.1631  1.4330  1.2508
  126OSM   C13S13444   2.565   2.221   7.779 -0.1925  0.4495  0.4091
  126OSM   H13S13445   2.617   2.133   7.736  0.6988  0.9194  0.5247
  126OSM   H13T13446   2.464   2.185   7.809 -0.6911  0.7422 -0.8657
  126OSM   C14S13447   2.642   2.282   7.897  0.0917  0.1629  0.6117
  126OSM   H14S13448   2.600   2.383   7.918 -0.8124 -0.3142  1.1674
  126OSM   H14T13449   2.748   2.296   7.864  0.1648 -0.0173  0.7714
  126OSM   C15S13450   2.634   2.194   8.028 -0.1664 -0.1935 -0.6711
  126OSM   H15S13451   2.680   2.094   8.013  1.6540  0.8210 -2.2576
  126OSM   H15T13452   2.524   2.176   8.035 -0.2830  0.0459 -1.6838
  126OSM   C16S13453   2.679   2.255   8.161  0.1085  0.3548  0.2227
  126OSM   H16S13454   2.639   2.208   8.253 -0.9134 -1.9333 -1.2915
  126OSM   H16T13455   2.636   2.358   8.159 -0.4199  0.2212  2.4371
  126OSM   C17S13456   2.831   2.265   8.156 -0.1034 -0.3152 -0.2070
  126OSM   H17S13457   2.863   2.316   8.062  0.9123  2.3673  1.4752
  126OSM   H17T13458   2.869   2.161   8.165  0.3435 -0.0441  1.2357
  126OSM   C18S13459   2.900   2.351   8.271  0.2519  0.2936  0.8021
  126OSM   H18S13460   2.878   2.322   8.376  3.9136 -2.6780  0.9771
  126OSM   H18T13461   2.877   2.458   8.254  0.4553 -0.0609 -2.3255
  126OSM   H18U13462   3.007   2.321   8.279  0.2146 -0.1533 -0.2175
  126OSM    C1F13463   2.829   2.532   6.907  0.6342 -0.1491 -0.2142
  126OSM     OF13464   2.871   2.649   6.892  0.2108  0.2776 -0.2750
  126OSM    C2F13465   2.867   2.436   7.014  0.1153  0.2239 -0.5552
  126OSM    H2F13466   2.948   2.379   6.964  1.5494  2.6833 -1.2452
  126OSM    H2G13467   2.777   2.376   7.038  1.4008 -1.9560 -0.9941
  126OSM    C3F13468   2.938   2.502   7.134 -0.1693 -0.5452  0.7345
  126OSM    H3F13469   2.903   2.606   7.151  3.9446  0.7961  2.2606
  126OSM    H3G13470   3.046   2.520   7.116 -0.3613  0.6775  0.7078
  126OSM    C4F13471   2.915   2.429   7.266  0.7124 -0.1010 -0.6664
  126OSM    H4F13472   2.948   2.323   7.254  0.2606 -0.3844  0.4277
  126OSM    H4G13473   2.806   2.424   7.289  0.8165  2.0608  0.5256
  126OSM    C5F13474   2.976   2.505   7.378  0.4166 -0.8368  0.2183
  126OSM    H5F13475   2.943   2.611   7.375  0.6835 -0.5642  3.1454
  126OSM    H5G13476   3.087   2.513   7.368  0.1875  2.5018 -0.8925
  126OSM    C6F13477   2.954   2.451   7.518  0.0462  0.4715  0.2369
  126OSM    H6F13478   2.978   2.343   7.517 -2.5189 -0.1479 -1.0821
  126OSM    H6G13479   2.849   2.479   7.537 -0.0649  0.5084 -0.4161
  126OSM    C7F13480   3.037   2.521   7.628 -0.8237 -0.0669 -0.1560
  126OSM    H7F13481   3.032   2.632   7.618 -2.2818 -0.1683 -0.7738
  126OSM    H7G13482   3.146   2.506   7.612 -0.5127  1.5178  0.2562
  126OSM    C8F13483   2.999   2.479   7.767  0.2980 -0.2933  0.5040
  126OSM    H8F13484   3.035   2.376   7.783 -3.2126 -1.6638  0.3859
  126OSM    H8G13485   2.888   2.481   7.768  0.2963  0.7600 -0.0455
  126OSM    C9F13486   3.044   2.573   7.880 -0.0215 -0.1577  0.2459
  126OSM    H9F13487   3.151   2.561   7.900 -0.3584 -0.8513  1.6780
  126OSM   C10F13488   2.982   2.670   7.944  0.3407 -0.8579 -0.9712
  126OSM   H10F13489   3.032   2.717   8.030 -0.8925  0.8384 -1.1365
  126OSM   C11F13490   2.837   2.708   7.923  0.4932 -0.0114 -0.2929
  126OSM   H11F13491   2.790   2.649   7.841 -0.3474 -0.2700  0.3562
  126OSM   H11G13492   2.816   2.815   7.898 -2.3570 -0.7505 -1.5256
  126OSM   C12F13493   2.732   2.684   8.036 -0.5740  0.1226  1.0821
  126OSM   H12F13494   2.723   2.573   8.040 -0.1480  0.0652  0.4516
  126OSM   H12G13495   2.638   2.733   8.002 -0.3786  0.9510  1.6915
  126OSM   C13F13496   2.782   2.725   8.173 -0.2828  0.2130  0.4801
  126OSM   H13F13497   2.823   2.828   8.163  1.2859 -0.5281 -1.3321
  126OSM   H13G13498   2.868   2.658   8.191  0.0986  0.8430  1.0355
  126OSM   C14F13499   2.674   2.720   8.279  0.4040 -0.4052  0.0422
  126OSM   H14F13500   2.621   2.622   8.271  1.2460 -0.6725 -3.7623
  126OSM   H14G13501   2.590   2.787   8.254  2.1819  1.8587 -0.1252
  126OSM   C15F13502   2.707   2.766   8.420 -0.4316 -0.6470 -0.0626
  126OSM   H15F13503   2.617   2.746   8.481 -1.5127 -0.8096 -1.6590
  126OSM   H15G13504   2.726   2.875   8.419 -1.8289 -0.3401  1.6467
  126OSM   C16F13505   2.827   2.691   8.488 -0.6801  0.5030  0.1909
  126OSM   H16F13506   2.926   2.715   8.443 -0.1568 -1.0673  0.4341
  126OSM   H16G13507   2.815   2.581   8.478 -1.6274  0.6034  0.1878
  126OSM   C17F13508   2.822   2.713   8.644  0.0101 -0.1503  0.4968
  126OSM   H17F13509   2.721   2.677   8.673  0.3254 -1.4556  0.0695
  126OSM   H17G13510   2.836   2.821   8.663 -0.6026  0.0228 -0.0040
  126OSM   C18F13511   2.927   2.634   8.721 -1.4184 -0.2235  0.6527
  126OSM   H18F13512   2.923   2.528   8.689 -0.6820 -0.7103  2.0548
  126OSM   H18G13513   2.906   2.636   8.830 -0.3483 -1.9133  0.9149
  126OSM   H18H13514   3.031   2.670   8.709 -1.8198  1.3662  1.6507
  127OSM      N13515   4.201   3.688   6.182  0.3352 -0.4057 -0.5970
  127OSM    C1513516   4.130   3.803   6.249  0.5176  0.5310 -0.2684
  127OSM   H15A13517   4.028   3.777   6.270  0.7675  0.5225  1.0670
  127OSM   H15B13518   4.129   3.892   6.188 -2.3723  0.3810 -0.5322
  127OSM   H15C13519   4.165   3.826   6.349  2.2464  2.7096 -1.2706
  127OSM    C1413520   4.125   3.656   6.058  0.0510  0.2893  0.0239
  127OSM   H14A13521   4.153   3.558   6.023 -3.5445 -1.2629  1.0508
  127OSM   H14B13522   4.132   3.735   5.985 -1.1944  0.7291  0.3520
  127OSM   H14C13523   4.018   3.644   6.068  0.1215 -0.3053  0.1329
  127OSM    C1313524   4.338   3.737   6.157  0.3511  0.5022 -0.5564
  127OSM   H13A13525   4.336   3.829   6.101 -0.4231  0.7845 -0.0762
  127OSM   H13B13526   4.387   3.657   6.102 -1.2439 -0.2834 -0.8978
  127OSM   H13C13527   4.398   3.753   6.245  1.8298  1.2396 -1.6499
  127OSM    C1213528   4.206   3.570   6.276  0.1259  0.3226  0.0801
  127OSM   H12A13529   4.105   3.532   6.289  0.1897 -1.7041 -3.6372
  127OSM   H12B13530   4.261   3.604   6.362  1.3893 -2.2692  0.3961
  127OSM    C1113531   4.273   3.436   6.241  0.2736  0.2871  0.0682
  127OSM   H11A13532   4.274   3.364   6.325 -1.1604  0.4048  0.2141
  127OSM   H11B13533   4.376   3.467   6.214  0.0051 -0.1037 -1.5129
  127OSM      P13534   4.103   3.307   6.091 -0.0814  0.0236 -0.4872
  127OSM    O1313535   4.029   3.373   5.988 -0.1433  0.5407  0.4205
  127OSM    O1413536   4.142   3.164   6.067  0.1123 -0.3839  0.0611
  127OSM    O1113537   4.038   3.326   6.232 -0.2607 -0.1889 -0.0594
  127OSM    O1213538   4.231   3.386   6.114 -0.0433 -0.6004 -0.3730
  127OSM    C1S13539   4.010   3.218   6.317 -0.0397  0.0643 -0.4362
  127OSM    H1S13540   4.103   3.158   6.326 -0.8006 -0.9944  0.7178
  127OSM    H1T13541   3.928   3.152   6.281 -2.3968  2.5423 -0.0082
  127OSM     NF13542   3.980   3.160   6.554  0.1461  0.3293  0.4644
  127OSM    HNF13543   3.889   3.143   6.593  1.1233 -0.2251  2.6143
  127OSM    C2S13544   3.988   3.270   6.468  0.0261  0.4072  0.0951
  127OSM    H2S13545   4.083   3.327   6.481  0.0560 -0.0471  2.1714
  127OSM    C3S13546   3.874   3.369   6.479  0.5430  0.0503  0.3447
  127OSM    H3S13547   3.779   3.317   6.454  0.7164  0.4930 -1.3437
  127OSM     O313548   3.861   3.476   6.385  0.1251  0.0638  0.4937
  127OSM    HO313549   3.899   3.435   6.307  0.2569  0.4482  0.3519
  127OSM    C4S13550   3.880   3.427   6.620 -0.1597 -0.5636  0.0008
  127OSM    H4S13551   3.953   3.505   6.645  0.5505 -1.2082 -0.0219
  127OSM    C5S13552   3.795   3.378   6.709 -0.3235  0.3377 -0.2596
  127OSM    H5S13553   3.711   3.313   6.682  0.3432  0.2306 -2.2602
  127OSM    C6S13554   3.805   3.444   6.846 -0.6226 -0.1519  0.9349
  127OSM    H6S13555   3.908   3.440   6.889  0.6909 -0.4087 -1.9985
  127OSM    H6T13556   3.730   3.397   6.913 -0.6754 -2.6378 -0.7524
  127OSM    C7S13557   3.757   3.592   6.843 -0.3415  0.0594 -0.7773
  127OSM    H7S13558   3.679   3.601   6.764 -1.0168  0.2740 -0.0986
  127OSM    H7T13559   3.849   3.647   6.812  1.6776 -1.7553  1.5728
  127OSM    C8S13560   3.713   3.650   6.980 -0.4038  1.0215 -0.0177
  127OSM    H8S13561   3.803   3.657   7.045  1.9447  1.1651 -3.0400
  127OSM    H8T13562   3.648   3.575   7.030  1.6716 -1.9622 -1.4702
  127OSM    C9S13563   3.646   3.788   6.960  0.5922  0.5162  0.6800
  127OSM    H9S13564   3.556   3.765   6.899  2.5490 -1.9046 -1.5667
  127OSM    H9T13565   3.710   3.858   6.904  0.9343 -0.1732  0.1886
  127OSM   C10S13566   3.593   3.844   7.091  0.1788 -0.1456  0.7378
  127OSM   H10S13567   3.502   3.794   7.130 -0.2997 -0.9947 -1.3558
  127OSM   H10T13568   3.559   3.950   7.087 -0.2444 -0.1570  2.7401
  127OSM   C11S13569   3.701   3.868   7.205  0.0944 -0.0929  0.4116
  127OSM   H11S13570   3.772   3.941   7.161 -0.5439 -0.1118 -0.7007
  127OSM   H11T13571   3.750   3.773   7.236 -0.8248 -0.5724  0.4323
  127OSM   C12S13572   3.626   3.930   7.322  0.6959  0.0223 -0.6393
  127OSM   H12S13573   3.526   3.883   7.334  0.5561  0.3733 -0.3685
  127OSM   H12T13574   3.608   4.035   7.291  2.7937  0.9986  1.1399
  127OSM   C13S13575   3.706   3.913   7.447 -0.2837  0.4134  0.2878
  127OSM   H13S13576   3.803   3.967   7.445 -1.8068  3.4451  1.1613
  127OSM   H13T13577   3.727   3.804   7.448  0.8334  0.4069 -4.3084
  127OSM   C14S13578   3.615   3.962   7.564 -0.0751  0.6572 -0.6367
  127OSM   H14S13579   3.511   3.929   7.543  0.4335 -1.5046  0.0057
  127OSM   H14T13580   3.616   4.072   7.554  0.2059  0.9191  1.8439
  127OSM   C15S13581   3.675   3.923   7.704  0.2222 -0.4563  0.2316
  127OSM   H15S13582   3.609   3.982   7.772 -0.4658 -0.3404 -0.5233
  127OSM   H15T13583   3.782   3.951   7.713  0.4555 -0.6302 -1.6451
  127OSM   C16S13584   3.653   3.775   7.734 -0.0811  0.3148 -0.1154
  127OSM   H16S13585   3.719   3.706   7.678  0.8752  0.3866  0.8872
  127OSM   H16T13586   3.549   3.748   7.707 -0.0718 -0.1518  0.3008
  127OSM   C17S13587   3.666   3.733   7.884  0.6553 -0.0299  0.2144
  127OSM   H17S13588   3.583   3.779   7.942  0.2021 -2.2794  1.4240
  127OSM   H17T13589   3.757   3.776   7.933  1.1382 -0.3867 -0.3597
  127OSM   C18S13590   3.657   3.585   7.904 -0.5500 -0.1353 -0.0986
  127OSM   H18S13591   3.692   3.563   8.007  2.7637  3.1007 -0.3169
  127OSM   H18T13592   3.736   3.543   7.838 -0.5752 -0.6874  0.2174
  127OSM   H18U13593   3.554   3.546   7.891 -0.6904 -0.2807  1.2951
  127OSM    C1F13594   4.089   3.092   6.590 -0.2172  0.2895  0.7299
  127OSM     OF13595   4.199   3.137   6.555  0.4612  0.5747  0.5622
  127OSM    C2F13596   4.077   2.967   6.671 -0.5018  0.3080 -0.3294
  127OSM    H2F13597   4.082   2.878   6.604 -0.1133 -0.6869  0.9748
  127OSM    H2G13598   3.980   2.951   6.723 -0.9387 -0.3095 -1.3118
  127OSM    C3F13599   4.199   2.966   6.773  0.2276  0.5287 -0.2939
  127OSM    H3F13600   4.300   2.989   6.733 -0.8121  1.6657 -2.4403
  127OSM    H3G13601   4.207   2.858   6.800 -1.2104  0.2120 -1.0585
  127OSM    C4F13602   4.167   3.049   6.899 -1.2947 -0.3467 -0.5311
  127OSM    H4F13603   4.148   3.154   6.868 -0.8178 -0.2367 -0.4638
  127OSM    H4G13604   4.260   3.048   6.960 -1.9665  0.4301  0.5498
  127OSM    C5F13605   4.054   2.999   6.989 -0.1566 -0.0028  0.9824
  127OSM    H5F13606   4.080   2.893   7.011  0.0057 -0.9307 -2.9625
  127OSM    H5G13607   3.959   3.001   6.932  0.1086 -1.0586  0.4823
  127OSM    C6F13608   4.022   3.074   7.113  1.0758 -0.9391 -0.0405
  127OSM    H6F13609   3.935   3.032   7.167  0.1955  1.4011  0.4748
  127OSM    H6G13610   3.989   3.175   7.080 -1.2920 -1.9431 -0.9932
  127OSM    C7F13611   4.150   3.093   7.207  0.1347  0.0676 -0.6277
  127OSM    H7F13612   4.228   3.147   7.149 -1.1244  3.7604  0.8305
  127OSM    H7G13613   4.183   2.989   7.228  1.1603  0.2774 -1.1404
  127OSM    C8F13614   4.118   3.158   7.340 -0.6139  0.0543 -0.1509
  127OSM    H8F13615   4.041   3.093   7.387  1.7720 -2.8234  0.0834
  127OSM    H8G13616   4.065   3.254   7.321 -3.9520 -0.9765  2.8905
  127OSM    C9F13617   4.243   3.167   7.427 -0.2744  0.7411  0.2659
  127OSM    H9F13618   4.338   3.170   7.373  0.0760 -0.0767  0.8167
  127OSM   C10F13619   4.244   3.171   7.563  0.2195 -0.2322 -0.6616
  127OSM   H10F13620   4.340   3.177   7.617  0.1132 -1.3386 -0.3323
  127OSM   C11F13621   4.131   3.169   7.663 -0.5287  0.0889 -0.0904
  127OSM   H11F13622   4.132   3.083   7.734  0.2154  1.8021  2.0608
  127OSM   H11G13623   4.034   3.159   7.610  0.9555 -0.5911 -2.8622
  127OSM   C12F13624   4.132   3.298   7.754  0.8039  0.4897 -0.9347
  127OSM   H12F13625   4.101   3.386   7.695 -0.4181  3.2114  3.3743
  127OSM   H12G13626   4.235   3.313   7.794  0.1957  0.5943  0.6676
  127OSM   C13F13627   4.025   3.284   7.873 -0.0725 -0.0779 -0.6577
  127OSM   H13F13628   4.046   3.182   7.913 -0.3512  0.0975 -0.0435
  127OSM   H13G13629   3.921   3.281   7.834 -0.2084 -1.7388 -0.2687
  127OSM   C14F13630   4.037   3.386   7.982  0.7825 -0.3104  0.1614
  127OSM   H14F13631   3.983   3.478   7.948 -0.7434 -0.6589  1.4828
  127OSM   H14G13632   4.139   3.421   8.009  0.6738  0.3251 -0.2156
  127OSM   C15F13633   3.956   3.341   8.114 -0.4101 -0.3012 -0.1339
  127OSM   H15F13634   4.014   3.257   8.157  0.7264 -0.4804 -1.8984
  127OSM   H15G13635   3.853   3.308   8.088 -1.4134  1.7545  0.9994
  127OSM   C16F13636   3.931   3.452   8.212  0.8236 -0.4293 -0.0664
  127OSM   H16F13637   3.873   3.528   8.154  1.3479  0.9600  1.1482
  127OSM   H16G13638   4.029   3.497   8.237  0.7183 -0.7593  0.9556
  127OSM   C17F13639   3.854   3.420   8.344 -0.7300  0.4005  0.2501
  127OSM   H17F13640   3.874   3.507   8.409 -0.8820  0.0009  0.8339
  127OSM   H17G13641   3.902   3.331   8.389  1.4475  1.2368 -0.3122
  127OSM   C18F13642   3.706   3.398   8.336 -0.8461 -0.1016  0.3113
  127OSM   H18F13643   3.683   3.300   8.289 -2.0776  0.0092  0.6545
  127OSM   H18G13644   3.659   3.483   8.283 -0.2021  0.9548  1.4075
  127OSM   H18H13645   3.658   3.401   8.436 -0.8547  1.4694  0.2853
  128OSM      N13646   3.154   0.723   6.241 -0.2592 -0.3489  0.1948
  128OSM    C1513647   3.165   0.575   6.228 -0.7606 -0.2326 -0.4099
  128OSM   H15A13648   3.088   0.523   6.281 -1.1957  0.5521 -0.2519
  128OSM   H15B13649   3.269   0.546   6.237  0.0602  2.1295 -1.3598
  128OSM   H15C13650   3.143   0.547   6.126 -0.2664 -0.9117 -0.3334
  128OSM    C1413651   3.182   0.748   6.384 -0.1412 -0.5516 -0.5362
  128OSM   H14A13652   3.192   0.852   6.411  3.3155 -0.3348 -2.1269
  128OSM   H14B13653   3.279   0.704   6.404 -0.7991 -0.3111  4.3813
  128OSM   H14C13654   3.113   0.696   6.448 -1.3567 -0.4825 -1.7430
  128OSM    C1313655   3.263   0.783   6.151  0.0381 -0.5279 -0.1534
  128OSM   H13A13656   3.247   0.758   6.047 -0.5589  3.3520 -1.1547
  128OSM   H13B13657   3.363   0.764   6.187  0.1819  0.0605 -0.2331
  128OSM   H13C13658   3.245   0.890   6.152 -0.6070 -0.6307 -0.2763
  128OSM    C1213659   3.015   0.772   6.206 -0.1602 -0.0392 -0.0795
  128OSM   H12A13660   2.939   0.742   6.276  1.0086  1.2460  1.8140
  128OSM   H12B13661   2.995   0.728   6.109 -3.3301 -0.5280  0.7079
  128OSM    C1113662   2.998   0.922   6.214  0.2316  0.4800  0.0085
  128OSM   H11A13663   3.011   0.947   6.321 -0.5255  0.0712  0.1962
  128OSM   H11B13664   2.893   0.952   6.192  0.1498  0.3075  0.1731
  128OSM      P13665   3.083   1.140   6.107 -0.5810 -1.0375  0.0531
  128OSM    O1313666   3.194   1.186   6.019  0.4188 -0.0365 -0.6517
  128OSM    O1413667   2.949   1.186   6.080  0.3978 -0.0524 -0.0386
  128OSM    O1113668   3.120   1.176   6.256 -0.0512 -0.3884  0.2213
  128OSM    O1213669   3.082   0.983   6.119  0.0378 -0.0812  0.0797
  128OSM    C1S13670   3.205   1.281   6.278 -0.2033 -0.4188 -0.1158
  128OSM    H1S13671   3.166   1.375   6.233 -0.4645 -1.5918 -2.4732
  128OSM    H1T13672   3.304   1.270   6.228  0.5237  0.3081  1.1236
  128OSM     NF13673   3.276   1.431   6.466 -0.8013  0.3915 -0.0688
  128OSM    HNF13674   3.374   1.442   6.483 -0.5771 -1.8704  0.3877
  128OSM    C2S13675   3.241   1.294   6.429  0.0455  0.4623  0.1817
  128OSM    H2S13676   3.150   1.260   6.481  0.0548 -2.3151 -1.3948
  128OSM    C3S13677   3.351   1.176   6.451 -0.1756 -1.3184 -0.5792
  128OSM    H3S13678   3.448   1.216   6.414 -1.8707  2.6032 -1.2578
  128OSM     O313679   3.335   1.060   6.377  0.2898 -0.0960  0.0040
  128OSM    HO313680   3.259   1.076   6.321  0.3530 -0.2142 -0.1180
  128OSM    C4S13681   3.350   1.154   6.600  0.2349 -0.2189 -0.3022
  128OSM    H4S13682   3.437   1.207   6.642  0.2369 -0.5337  0.0954
  128OSM    C5S13683   3.256   1.093   6.670  0.1277  0.6246  0.0912
  128OSM    H5S13684   3.170   1.049   6.617  0.8087  0.0225 -0.5243
  128OSM    C6S13685   3.247   1.064   6.809  0.1527  0.0691 -0.7757
  128OSM    H6S13686   3.229   0.957   6.834  2.4632  0.2648  2.2544
  128OSM    H6T13687   3.154   1.111   6.848  1.3338  1.4264  0.5039
  128OSM    C7S13688   3.349   1.112   6.908 -0.4813 -0.7500  0.6453
  128OSM    H7S13689   3.363   1.222   6.897 -1.7649 -0.5575  0.7741
  128OSM    H7T13690   3.448   1.072   6.878 -0.3688 -0.5339  0.7219
  128OSM    C8S13691   3.325   1.084   7.053  0.3425 -0.1347  0.0603
  128OSM    H8S13692   3.315   0.973   7.061 -1.3095 -0.1331 -1.5187
  128OSM    H8T13693   3.236   1.137   7.093 -0.8230 -2.7116  1.1206
  128OSM    C9S13694   3.442   1.126   7.152  0.5964  0.2858  0.3738
  128OSM    H9S13695   3.449   1.235   7.131  1.0345  0.4932  1.5372
  128OSM    H9T13696   3.529   1.075   7.105  1.2190 -0.8182  2.6027
  128OSM   C10S13697   3.412   1.102   7.297 -0.0900 -0.2498 -0.9921
  128OSM   H10S13698   3.392   0.994   7.315  1.5143 -0.8982 -2.8031
  128OSM   H10T13699   3.320   1.160   7.321  1.0610  1.1077  0.4293
  128OSM   C11S13700   3.526   1.136   7.391  0.2780 -0.0119  0.3862
  128OSM   H11S13701   3.564   1.235   7.358  1.8196 -0.8076 -0.3423
  128OSM   H11T13702   3.611   1.065   7.375 -0.8181 -1.6123  1.3606
  128OSM   C12S13703   3.508   1.118   7.545  0.1928 -0.0112 -0.3311
  128OSM   H12S13704   3.607   1.112   7.596  1.0088 -1.2320 -1.9797
  128OSM   H12T13705   3.460   1.019   7.563  0.1282  0.2470  1.0330
  128OSM   C13S13706   3.415   1.227   7.597  0.5115 -0.6540 -0.1915
  128OSM   H13S13707   3.312   1.188   7.605  0.5724 -0.5754  1.3182
  128OSM   H13T13708   3.429   1.308   7.522  3.1195 -1.2205 -0.4399
  128OSM   C14S13709   3.452   1.280   7.739  0.9505 -0.0677  0.4450
  128OSM   H14S13710   3.368   1.353   7.743  1.2096  0.2469  0.2106
  128OSM   H14T13711   3.556   1.319   7.738  1.9131 -2.4465 -0.2145
  128OSM   C15S13712   3.443   1.165   7.842  0.3968 -0.0671 -0.4555
  128OSM   H15S13713   3.518   1.091   7.808  1.7241 -0.3384  2.6835
  128OSM   H15T13714   3.344   1.117   7.830  0.0352  0.7539 -0.8789
  128OSM   C16S13715   3.466   1.212   7.980  0.3416  0.3442 -0.6179
  128OSM   H16S13716   3.412   1.308   7.997 -2.8530 -1.3576 -0.4232
  128OSM   H16T13717   3.576   1.225   7.996  0.3206  1.1602 -1.0584
  128OSM   C17S13718   3.417   1.119   8.086  0.4819  0.5183 -0.6569
  128OSM   H17S13719   3.323   1.066   8.060  0.2435 -0.0083  1.1011
  128OSM   H17T13720   3.401   1.184   8.175  1.8512  0.8982 -0.6657
  128OSM   C18S13721   3.514   1.009   8.122  0.4187  0.0581  0.1808
  128OSM   H18S13722   3.601   1.046   8.181  0.1685  1.2694 -0.1811
  128OSM   H18T13723   3.553   0.960   8.030 -0.0105  0.8355 -0.4329
  128OSM   H18U13724   3.469   0.931   8.186  0.4192  0.1838  0.3373
  128OSM    C1F13725   3.205   1.543   6.469 -0.6267 -0.1417  0.2821
  128OSM     OF13726   3.093   1.540   6.423 -0.3420 -0.2204  0.1855
  128OSM    C2F13727   3.285   1.660   6.513  0.7642 -0.1395 -0.4145
  128OSM    H2F13728   3.292   1.727   6.424  0.1694  0.8158  0.2443
  128OSM    H2G13729   3.387   1.639   6.551  1.1591  1.3168 -0.5774
  128OSM    C3F13730   3.210   1.756   6.605  0.4758 -0.6894 -0.4652
  128OSM    H3F13731   3.108   1.779   6.565  0.3350  0.5209  0.5368
  128OSM    H3G13732   3.262   1.852   6.587 -0.1790 -0.4133 -0.9476
  128OSM    C4F13733   3.204   1.713   6.757  0.0514  0.0638 -0.4843
  128OSM    H4F13734   3.259   1.619   6.779 -0.8176  0.3106  3.5890
  128OSM    H4G13735   3.101   1.672   6.767  0.1507  0.0489  0.6530
  128OSM    C5F13736   3.232   1.821   6.860  0.0306  0.2612  0.6638
  128OSM    H5F13737   3.163   1.905   6.839  1.7491  1.4541 -0.5749
  128OSM    H5G13738   3.338   1.853   6.852  0.4285 -0.3404  2.8318
  128OSM    C6F13739   3.217   1.762   7.003 -0.6814 -0.1692  0.5921
  128OSM    H6F13740   3.294   1.684   7.024  0.2928  0.6088 -0.0335
  128OSM    H6G13741   3.114   1.722   7.012 -0.5520 -0.8127 -0.5667
  128OSM    C7F13742   3.243   1.872   7.114  0.1702 -0.0568  0.4409
  128OSM    H7F13743   3.161   1.946   7.098 -1.0645 -1.3568  0.4832
  128OSM    H7G13744   3.343   1.918   7.101  1.2320 -2.4134 -0.3559
  128OSM    C8F13745   3.226   1.820   7.257 -0.2909 -0.0645  0.1674
  128OSM    H8F13746   3.129   1.768   7.267 -1.1491  1.6968  1.6411
  128OSM    H8G13747   3.204   1.907   7.323  2.1115  0.0850  0.8830
  128OSM    C9F13748   3.343   1.738   7.298  0.1470  0.1901 -0.4950
  128OSM    H9F13749   3.386   1.673   7.220  3.4420  2.4386 -0.7682
  128OSM   C10F13750   3.399   1.749   7.419 -0.5261  1.0219  0.1098
  128OSM   H10F13751   3.494   1.695   7.438 -1.2933  0.9032  4.8231
  128OSM   C11F13752   3.369   1.828   7.541  0.0994 -0.0258 -0.4470
  128OSM   H11F13753   3.258   1.837   7.552  0.3557  2.2879  1.0559
  128OSM   H11G13754   3.413   1.930   7.536  2.0725 -0.7246  1.2878
  128OSM   C12F13755   3.447   1.781   7.667  0.3573  0.1570  0.3362
  128OSM   H12F13756   3.558   1.773   7.655  0.2827 -0.3193 -0.1058
  128OSM   H12G13757   3.424   1.673   7.681  1.7783 -0.1411  0.5278
  128OSM   C13F13758   3.407   1.856   7.794 -0.1477 -0.6671 -1.2793
  128OSM   H13F13759   3.306   1.898   7.778  0.0540  1.0969  1.4769
  128OSM   H13G13760   3.481   1.938   7.804  2.2706 -2.8327 -0.0427
  128OSM   C14F13761   3.395   1.771   7.928 -0.1675 -0.4234  0.3773
  128OSM   H14F13762   3.368   1.845   8.006  2.0739  1.0408 -0.1503
  128OSM   H14G13763   3.498   1.742   7.957 -0.5080 -3.4807 -1.0033
  128OSM   C15F13764   3.285   1.663   7.929  0.5357  0.2789  0.3287
  128OSM   H15F13765   3.317   1.565   7.887 -2.6801 -0.2242 -1.2759
  128OSM   H15G13766   3.206   1.703   7.861 -2.1521 -2.6049  1.5113
  128OSM   C16F13767   3.220   1.625   8.057  0.1527 -0.2912 -0.3031
  128OSM   H16F13768   3.138   1.551   8.049 -2.4387  1.8231  3.5735
  128OSM   H16G13769   3.177   1.719   8.097  0.8473  0.1819 -0.6533
  128OSM   C17F13770   3.324   1.560   8.155 -0.4593 -0.5468 -0.6638
  128OSM   H17F13771   3.405   1.636   8.166 -2.0969  1.3124 -0.8361
  128OSM   H17G13772   3.364   1.470   8.104 -0.2772 -0.1959 -1.1555
  128OSM   C18F13773   3.259   1.524   8.288 -0.4951 -0.0690 -0.1626
  128OSM   H18F13774   3.339   1.507   8.363  1.0232  1.3362 -1.3848
  128OSM   H18G13775   3.182   1.445   8.278 -2.1771  1.6696 -1.9213
  128OSM   H18H13776   3.191   1.607   8.318  0.5300 -0.1883  2.7639
  129OSM      N13777   5.384   2.631   6.009  0.6556  0.3351  0.2058
  129OSM    C1513778   5.384   2.727   5.902 -0.1360  0.0961  0.6656
  129OSM   H15A13779   5.394   2.826   5.944 -0.9295  0.6628 -0.4556
  129OSM   H15B13780   5.290   2.726   5.849  0.7569  1.9592 -1.0817
  129OSM   H15C13781   5.458   2.699   5.828 -0.1587  0.1806  0.6112
  129OSM    C1413782   5.280   2.672   6.109  1.7027 -0.2426  0.7053
  129OSM   H14A13783   5.180   2.663   6.068  2.0722 -1.5409  0.0412
  129OSM   H14B13784   5.297   2.774   6.140 -0.6867  0.8160 -1.1104
  129OSM   H14C13785   5.292   2.614   6.199  1.8202 -1.3147  0.0131
  129OSM    C1313786   5.354   2.498   5.949  0.0419  0.0848  1.3255
  129OSM   H13A13787   5.428   2.487   5.871  0.2350  2.7876  1.0275
  129OSM   H13B13788   5.252   2.489   5.915  0.3594  0.1009  0.3359
  129OSM   H13C13789   5.376   2.423   6.023  2.1354 -1.0868 -0.3542
  129OSM    C1213790   5.521   2.639   6.082 -0.3443 -0.2472 -0.1795
  129OSM   H12A13791   5.598   2.616   6.010 -1.1108  1.2550 -1.5437
  129OSM   H12B13792   5.519   2.556   6.150 -0.6012 -2.3064 -2.5522
  129OSM    C1113793   5.559   2.765   6.154  0.1687 -0.3994  0.0414
  129OSM   H11A13794   5.658   2.759   6.204 -0.0027 -0.6346  0.3494
  129OSM   H11B13795   5.488   2.779   6.238  0.4444 -0.4597  0.2863
  129OSM      P13796   5.544   3.018   6.122 -0.3003 -0.5804 -0.2010
  129OSM    O1313797   5.624   3.093   6.016 -0.3100  0.6524 -0.7855
  129OSM    O1413798   5.410   3.069   6.162  0.1009  0.1493  0.3302
  129OSM    O1113799   5.636   3.016   6.256 -0.4341 -0.1029  0.2016
  129OSM    O1213800   5.553   2.874   6.066 -0.0393 -0.2541 -0.5279
  129OSM    C1S13801   5.678   3.144   6.297 -0.4572  0.4624 -0.0459
  129OSM    H1S13802   5.598   3.210   6.337  1.8737  1.4554  3.4575
  129OSM    H1T13803   5.749   3.185   6.222  0.7506 -0.5822  0.4929
  129OSM     NF13804   5.806   3.257   6.487 -0.6127 -0.2288  0.2873
  129OSM    HNF13805   5.893   3.299   6.462 -0.1361 -0.5279  1.3902
  129OSM    C2S13806   5.781   3.132   6.414  0.1470  0.0203 -0.1096
  129OSM    H2S13807   5.730   3.069   6.490  1.4489  0.1828  0.9387
  129OSM    C3S13808   5.905   3.050   6.366 -0.3492  0.1932 -1.1999
  129OSM    H3S13809   5.950   3.111   6.285  2.8818 -2.6281 -1.8024
  129OSM     O313810   5.871   2.924   6.306  0.4375  0.0127 -0.1221
  129OSM    HO313811   5.776   2.938   6.297  0.0758 -1.4351  1.1614
  129OSM    C4S13812   6.008   3.005   6.475  0.2238 -0.0131 -0.0291
  129OSM    H4S13813   5.973   2.977   6.576  1.2311  0.3771  0.4399
  129OSM    C5S13814   6.140   3.015   6.470 -0.2332  0.2084  0.1477
  129OSM    H5S13815   6.195   3.051   6.382 -1.0690  1.0760 -0.0275
  129OSM    C6S13816   6.241   2.992   6.578  0.4643  0.2541  0.3305
  129OSM    H6S13817   6.330   3.054   6.557  2.5135 -2.3765  0.6410
  129OSM    H6T13818   6.283   2.889   6.575  1.9417  0.8484 -0.7907
  129OSM    C7S13819   6.186   3.029   6.715 -0.1269 -0.2555 -0.4393
  129OSM    H7S13820   6.097   2.976   6.755  0.7615  1.3921  4.3450
  129OSM    H7T13821   6.137   3.127   6.698  1.3417  0.5036 -0.4523
  129OSM    C8S13822   6.290   3.040   6.828  0.2694  0.1295  0.2590
  129OSM    H8S13823   6.338   3.140   6.823 -1.1686  0.8286  0.0268
  129OSM    H8T13824   6.362   2.956   6.811  0.9196  0.6552  0.3607
  129OSM    C9S13825   6.239   3.030   6.972 -0.7502 -0.0995  0.1246
  129OSM    H9S13826   6.194   2.930   6.990  1.1757 -0.5440  3.2406
  129OSM    H9T13827   6.162   3.109   6.976 -2.7997 -1.9127 -1.2908
  129OSM   C10S13828   6.351   3.039   7.077  0.0827  0.1086 -0.0917
  129OSM   H10S13829   6.431   3.110   7.050  0.1471  0.9728  2.1465
  129OSM   H10T13830   6.405   2.943   7.092 -0.1507 -0.1057 -0.6078
  129OSM   C11S13831   6.292   3.063   7.215 -0.1257 -0.2850  0.0747
  129OSM   H11S13832   6.196   3.008   7.227  0.5712 -1.2138  1.6974
  129OSM   H11T13833   6.262   3.168   7.234 -0.4493 -0.2546 -0.5892
  129OSM   C12S13834   6.392   3.032   7.325  0.6156 -1.0925 -0.5371
  129OSM   H12S13835   6.484   3.091   7.305  0.2591  0.1641  1.2631
  129OSM   H12T13836   6.426   2.926   7.324 -2.4877 -2.3562  3.3542
  129OSM   C13S13837   6.355   3.073   7.468 -0.2361 -0.2228 -0.4241
  129OSM   H13S13838   6.275   3.004   7.502 -0.8835  1.1856  0.9974
  129OSM   H13T13839   6.321   3.178   7.475  1.9019  0.4488  1.5681
  129OSM   C14S13840   6.473   3.058   7.562 -0.4316  0.5713 -0.1009
  129OSM   H14S13841   6.560   3.122   7.537 -0.2680  0.4312  0.1060
  129OSM   H14T13842   6.502   2.951   7.569  0.1764  0.7523  0.1599
  129OSM   C15S13843   6.440   3.093   7.714  0.5602  0.1459  0.0199
  129OSM   H15S13844   6.362   3.028   7.759  0.9464  0.5575  1.3457
  129OSM   H15T13845   6.422   3.202   7.720  4.4175  1.0697 -2.1082
  129OSM   C16S13846   6.558   3.054   7.810 -0.8129 -0.2469 -0.1585
  129OSM   H16S13847   6.655   3.086   7.765 -0.9621  1.5207  0.6958
  129OSM   H16T13848   6.561   2.943   7.808  0.2804 -0.2973  1.7566
  129OSM   C17S13849   6.548   3.108   7.947 -0.4892 -0.1060 -0.1765
  129OSM   H17S13850   6.544   3.218   7.937 -1.8655 -0.2785 -2.2180
  129OSM   H17T13851   6.628   3.056   8.004 -2.2768 -1.4793  1.2095
  129OSM   C18S13852   6.420   3.066   8.017 -0.0333  0.1701 -0.3175
  129OSM   H18S13853   6.401   2.964   7.978  1.0715  0.3646 -1.4092
  129OSM   H18T13854   6.334   3.117   7.968 -0.4376 -1.0902 -0.9491
  129OSM   H18U13855   6.414   3.074   8.128 -0.2250 -2.7229 -0.0436
  129OSM    C1F13856   5.707   3.323   6.545  0.1467 -0.0806 -0.1597
  129OSM     OF13857   5.597   3.274   6.565  0.0837 -0.5853  0.1336
  129OSM    C2F13858   5.723   3.470   6.582  0.0364  0.5214  0.3488
  129OSM    H2F13859   5.622   3.516   6.584  0.2716  1.0327  0.5735
  129OSM    H2G13860   5.790   3.499   6.498  0.2439 -0.7496  0.0560
  129OSM    C3F13861   5.790   3.492   6.722  0.2228  0.4277  1.2079
  129OSM    H3F13862   5.733   3.447   6.806  0.7310  1.1440  1.9485
  129OSM    H3G13863   5.782   3.602   6.736  0.4422  0.6079  0.0535
  129OSM    C4F13864   5.935   3.443   6.726  0.6214  0.1773 -0.0424
  129OSM    H4F13865   5.999   3.451   6.636  1.9317 -0.2433  0.8281
  129OSM    H4G13866   5.942   3.333   6.741  2.5091 -0.0081 -1.8884
  129OSM    C5F13867   6.023   3.512   6.837  0.6809 -0.1000  0.9841
  129OSM    H5F13868   5.964   3.524   6.931 -1.1087  1.8977 -0.2810
  129OSM    H5G13869   6.027   3.611   6.786 -1.4402 -0.6876 -0.5150
  129OSM    C6F13870   6.153   3.444   6.862 -0.6042 -0.0746 -0.3911
  129OSM    H6F13871   6.205   3.415   6.768  0.9328  1.6074 -0.0994
  129OSM    H6G13872   6.138   3.346   6.913  1.6557  0.3193  1.1670
  129OSM    C7F13873   6.254   3.529   6.940 -0.5343 -0.6284 -0.4194
  129OSM    H7F13874   6.251   3.629   6.891  0.0811 -0.7875 -0.7892
  129OSM    H7G13875   6.354   3.485   6.919  0.6191  0.3628  2.4638
  129OSM    C8F13876   6.237   3.543   7.087 -0.4751  0.5183 -0.2141
  129OSM    H8F13877   6.128   3.533   7.107 -1.2796  2.3985 -2.9900
  129OSM    H8G13878   6.276   3.637   7.130 -0.4077 -0.0251  0.9478
  129OSM    C9F13879   6.310   3.423   7.149  0.6929 -1.2167 -0.4203
  129OSM    H9F13880   6.315   3.334   7.086  1.9391 -1.5298  0.0921
  129OSM   C10F13881   6.359   3.413   7.274  0.2337  0.5184 -0.4664
  129OSM   H10F13882   6.409   3.320   7.306  1.1559  1.0480 -0.3574
  129OSM   C11F13883   6.356   3.523   7.375 -0.3837 -0.9181 -0.3870
  129OSM   H11F13884   6.300   3.609   7.332  1.1076 -0.8961 -2.4873
  129OSM   H11G13885   6.458   3.559   7.402 -0.7541 -1.2214  1.5258
  129OSM   C12F13886   6.295   3.479   7.505 -0.2353  0.0148 -0.0532
  129OSM   H12F13887   6.369   3.409   7.550 -0.5371 -0.0788  0.3045
  129OSM   H12G13888   6.206   3.413   7.493  0.0826 -0.0407 -2.6041
  129OSM   C13F13889   6.244   3.602   7.599  0.3490 -0.0369  0.4258
  129OSM   H13F13890   6.177   3.670   7.542 -1.4180 -2.6423 -0.8083
  129OSM   H13G13891   6.337   3.651   7.634  0.0455  0.8974 -0.0383
  129OSM   C14F13892   6.175   3.545   7.717  0.4993  0.0692  0.9492
  129OSM   H14F13893   6.231   3.479   7.787 -0.1564 -2.2820 -0.6013
  129OSM   H14G13894   6.101   3.472   7.677  1.5951 -2.0970  2.6788
  129OSM   C15F13895   6.110   3.658   7.798  0.1994 -0.2319 -0.1339
  129OSM   H15F13896   6.039   3.715   7.733  0.6244 -2.9877 -3.2815
  129OSM   H15G13897   6.191   3.729   7.826  1.4174 -1.0497 -1.4264
  129OSM   C16F13898   6.037   3.601   7.924  0.0966  0.0085  0.0693
  129OSM   H16F13899   6.114   3.573   7.998  0.3879  0.2773 -0.1300
  129OSM   H16G13900   5.992   3.509   7.882  0.3720  0.3227 -0.9601
  129OSM   C17F13901   5.936   3.701   7.985  0.8403 -0.8311 -0.2879
  129OSM   H17F13902   5.855   3.730   7.915  1.2581  2.7852  0.4980
  129OSM   H17G13903   5.983   3.799   8.009  2.1202 -2.0676  2.7032
  129OSM   C18F13904   5.875   3.649   8.116  0.4978 -0.1946 -0.0029
  129OSM   H18F13905   5.941   3.654   8.206 -0.4935 -2.5429  0.9450
  129OSM   H18G13906   5.849   3.541   8.120  1.3631 -0.3986  2.6279
  129OSM   H18H13907   5.782   3.703   8.145  0.5291  0.1928 -0.6166
  130OSM      N13908   2.615   6.161   5.842  1.1472  0.3856 -0.1570
  130OSM    C1513909   2.648   6.172   5.987  0.1673 -0.3953  0.5289
  130OSM   H15A13910   2.650   6.080   6.042 -1.1190  0.0268  1.3173
  130OSM   H15B13911   2.576   6.236   6.035 -0.3050  0.7503 -1.5583
  130OSM   H15C13912   2.745   6.216   6.006  1.1443 -2.0426 -0.4095
  130OSM    C1413913   2.637   6.292   5.775  0.4102  0.1083  0.5296
  130OSM   H14A13914   2.554   6.356   5.802  0.3562  0.3250 -0.1239
  130OSM   H14B13915   2.613   6.281   5.670  1.7691  1.5558  0.0332
  130OSM   H14C13916   2.737   6.330   5.792  0.4305 -0.3197  1.4175
  130OSM    C1313917   2.715   6.073   5.776  0.2728  0.2584 -0.4584
  130OSM   H13A13918   2.812   6.098   5.816  0.9236 -0.5049 -1.5199
  130OSM   H13B13919   2.718   6.075   5.668  2.3846  0.0718 -0.4484
  130OSM   H13C13920   2.697   5.971   5.806 -0.5776  0.0671 -1.5701
  130OSM    C1213921   2.475   6.099   5.827 -0.1956  0.1210 -0.2991
  130OSM   H12A13922   2.485   5.994   5.849 -0.2401 -0.4239 -2.6000
  130OSM   H12B13923   2.452   6.116   5.723 -2.7825  1.0250  0.3515
  130OSM    C1113924   2.354   6.159   5.916 -0.3419  0.1056  0.1145
  130OSM   H11A13925   2.380   6.112   6.013  0.2246 -0.7856 -0.4568
  130OSM   H11B13926   2.258   6.120   5.875  0.9744 -1.6347 -1.5231
  130OSM      P13927   2.306   6.391   6.034  0.0205 -0.1825  0.0900
  130OSM    O1313928   2.317   6.536   6.001 -0.4395 -0.1627 -0.1084
  130OSM    O1413929   2.175   6.339   6.069 -0.5004 -0.3485 -0.0516
  130OSM    O1113930   2.412   6.351   6.147 -0.0765  0.2604 -0.0707
  130OSM    O1213931   2.348   6.304   5.908  0.1840 -0.1000 -1.0505
  130OSM    C1S13932   2.421   6.421   6.276 -0.1400 -1.0225 -0.6289
  130OSM    H1S13933   2.397   6.526   6.251 -0.3304 -1.3601 -1.9222
  130OSM    H1T13934   2.517   6.408   6.330 -0.1442  3.1081  0.7291
  130OSM     NF13935   2.306   6.481   6.501 -0.0179 -0.0565 -0.2827
  130OSM    HNF13936   2.354   6.453   6.584  0.6630 -0.6417 -0.8502
  130OSM    C2S13937   2.313   6.386   6.383  0.1642  0.2932 -0.4721
  130OSM    H2S13938   2.211   6.385   6.338 -0.0469 -0.6025 -0.0075
  130OSM    C3S13939   2.336   6.235   6.419  0.1157  0.2793  1.0667
  130OSM    H3S13940   2.438   6.223   6.459  2.1255 -0.4188 -3.6116
  130OSM     O313941   2.353   6.143   6.311  0.4345  0.3145 -0.0461
  130OSM    HO313942   2.404   6.202   6.255  0.6328  0.0370 -0.1617
  130OSM    C4S13943   2.237   6.183   6.524 -0.0690  0.3523 -0.1563
  130OSM    H4S13944   2.131   6.182   6.494 -0.1347 -0.8964  0.0821
  130OSM    C5S13945   2.265   6.144   6.647  0.4357  0.2883  0.3612
  130OSM    H5S13946   2.370   6.133   6.681  0.2701  1.1179  1.2032
  130OSM    C6S13947   2.158   6.105   6.744 -0.2050  0.3353 -0.1490
  130OSM    H6S13948   2.150   5.997   6.768  0.1320  0.5364  0.8989
  130OSM    H6T13949   2.061   6.139   6.703  0.0185 -0.1345 -1.0967
  130OSM    C7S13950   2.174   6.177   6.877  0.5840 -1.3248  0.1990
  130OSM    H7S13951   2.167   6.287   6.861 -0.6372 -1.5169 -0.7601
  130OSM    H7T13952   2.277   6.159   6.915  0.6814 -2.8319 -0.7201
  130OSM    C8S13953   2.074   6.150   6.993  0.9263 -0.5181 -0.3571
  130OSM    H8S13954   2.077   6.040   7.008  0.6384 -0.5706 -0.6636
  130OSM    H8T13955   1.966   6.172   6.976 -0.1130 -2.9953  2.1579
  130OSM    C9S13956   2.112   6.211   7.128  0.1268 -0.4103 -0.0876
  130OSM    H9S13957   2.101   6.321   7.134  0.4498 -0.4380  1.6787
  130OSM    H9T13958   2.216   6.175   7.145  0.1387  0.0139  0.7638
  130OSM   C10S13959   2.037   6.157   7.249  0.0437 -0.5928 -0.3025
  130OSM   H10S13960   2.035   6.045   7.248  0.8543 -0.6140 -1.3594
  130OSM   H10T13961   1.929   6.182   7.244 -0.3505 -2.0613  0.1548
  130OSM   C11S13962   2.082   6.225   7.378  0.1080 -0.0427  0.3398
  130OSM   H11S13963   2.089   6.334   7.360  0.4548 -0.0553  0.3912
  130OSM   H11T13964   2.187   6.196   7.402  0.9777  1.2395 -1.6725
  130OSM   C12S13965   1.997   6.190   7.502  0.2154 -0.7085 -0.2086
  130OSM   H12S13966   2.014   6.083   7.526 -2.9356 -1.4086 -0.6216
  130OSM   H12T13967   1.891   6.203   7.471  0.4408  1.5527 -0.2517
  130OSM   C13S13968   2.022   6.272   7.632  0.0654  0.2965  0.0130
  130OSM   H13S13969   1.928   6.265   7.691 -0.8592  2.3152 -1.1118
  130OSM   H13T13970   2.021   6.378   7.599  0.6762  0.2341 -0.2263
  130OSM   C14S13971   2.152   6.243   7.714  0.2429 -0.0932 -0.5825
  130OSM   H14S13972   2.245   6.254   7.655  0.4703  0.1333 -0.1855
  130OSM   H14T13973   2.140   6.138   7.747 -1.1381  0.9107  2.5060
  130OSM   C15S13974   2.158   6.322   7.838 -0.2628  0.6041 -0.3137
  130OSM   H15S13975   2.056   6.324   7.881  0.0558 -0.5132  0.5396
  130OSM   H15T13976   2.195   6.424   7.814  1.1759 -0.3890 -2.7180
  130OSM   C16S13977   2.259   6.261   7.941  0.0469 -0.5830  0.2370
  130OSM   H16S13978   2.365   6.271   7.908  0.5711 -0.7798  1.7621
  130OSM   H16T13979   2.240   6.152   7.943  0.4140 -0.6556 -0.1250
  130OSM   C17S13980   2.251   6.342   8.073 -0.3038  0.3319  0.4266
  130OSM   H17S13981   2.145   6.371   8.093 -0.3903 -0.5671  1.3614
  130OSM   H17T13982   2.300   6.441   8.059  0.8496 -0.4167 -1.0376
  130OSM   C18S13983   2.296   6.265   8.197 -0.2208  0.5055 -0.1298
  130OSM   H18S13984   2.406   6.254   8.202 -0.4098 -1.7762  0.5836
  130OSM   H18T13985   2.244   6.167   8.197  0.2995  0.2196 -0.8038
  130OSM   H18U13986   2.257   6.321   8.285 -0.6313  3.5247 -2.1002
  130OSM    C1F13987   2.272   6.609   6.489  0.1791 -0.0153 -0.0366
  130OSM     OF13988   2.245   6.653   6.379  0.6776  0.1182  0.1255
  130OSM    C2F13989   2.301   6.695   6.608  0.0839 -0.2999 -0.2128
  130OSM    H2F13990   2.411   6.696   6.623  0.3510 -0.1289 -1.9501
  130OSM    H2G13991   2.269   6.644   6.702 -0.0222 -0.0769 -0.1297
  130OSM    C3F13992   2.251   6.842   6.595  0.4340 -0.8904  0.1204
  130OSM    H3F13993   2.141   6.841   6.587  0.3663 -2.1041  1.0624
  130OSM    H3G13994   2.282   6.884   6.497  1.2350 -0.8643  0.3774
  130OSM    C4F13995   2.294   6.917   6.709  0.3386  0.7808  0.2470
  130OSM    H4F13996   2.274   7.024   6.684  2.0403  0.6068 -2.1411
  130OSM    H4G13997   2.401   6.910   6.737 -0.5772  1.0370  4.6771
  130OSM    C5F13998   2.224   6.875   6.840  0.1925  0.3427  0.6700
  130OSM    H5F13999   2.195   6.768   6.839 -1.5928  0.7961 -0.3841
  130OSM    H5G14000   2.135   6.941   6.853 -1.6766 -2.3464  2.8211
  130OSM    C6F14001   2.322   6.895   6.959 -0.0108 -0.1888  0.2660
  130OSM    H6F14002   2.353   7.001   6.970 -2.1714  0.5109  0.0262
  130OSM    H6G14003   2.408   6.828   6.936 -1.4463 -2.5345  1.3834
  130OSM    C7F14004   2.268   6.836   7.085  0.0167  0.3392 -1.0168
  130OSM    H7F14005   2.255   6.726   7.075  0.5334 -0.3125  3.4795
  130OSM    H7G14006   2.166   6.880   7.093  0.9983  2.4076  1.4061
  130OSM    C8F14007   2.345   6.881   7.214  1.2162  0.3081 -0.1849
  130OSM    H8F14008   2.454   6.863   7.199  1.3321  0.6835  0.2017
  130OSM    H8G14009   2.308   6.822   7.301 -1.4968 -0.6711 -1.8901
  130OSM    C9F14010   2.327   7.033   7.245 -0.3114 -0.8681 -0.4158
  130OSM    H9F14011   2.335   7.101   7.158  0.8028  0.8458  0.9661
  130OSM   C10F14012   2.296   7.087   7.369 -0.6117  0.2259  0.3827
  130OSM   H10F14013   2.300   7.197   7.369 -0.5136  0.3269 -2.9215
  130OSM   C11F14014   2.276   7.023   7.502 -0.1738  0.3037 -0.3055
  130OSM   H11F14015   2.312   6.918   7.508 -0.4899  0.2774  2.1302
  130OSM   H11G14016   2.166   7.021   7.512 -0.1472  1.4005  0.3067
  130OSM   C12F14017   2.353   7.100   7.611  0.2657 -0.0927  0.4284
  130OSM   H12F14018   2.324   7.208   7.610 -0.1720 -0.1695  2.1672
  130OSM   H12G14019   2.463   7.103   7.600  0.4147  3.0962  1.5618
  130OSM   C13F14020   2.349   7.053   7.762  0.3337  0.0705 -0.2513
  130OSM   H13F14021   2.240   7.053   7.787  0.2865  1.6251 -0.3491
  130OSM   H13G14022   2.393   7.132   7.827  2.7115 -0.1453 -1.4885
  130OSM   C14F14023   2.417   6.912   7.790  0.5764  0.3025 -0.6043
  130OSM   H14F14024   2.523   6.906   7.758  1.4802 -1.0689  2.2980
  130OSM   H14G14025   2.361   6.836   7.732 -1.3436 -1.6620  3.3687
  130OSM   C15F14026   2.419   6.864   7.933  0.0313 -0.2947 -0.3719
  130OSM   H15F14027   2.441   6.952   7.997 -0.4550 -0.4775  0.0528
  130OSM   H15G14028   2.508   6.803   7.961 -1.3118 -1.9700  0.5092
  130OSM   C16F14029   2.296   6.786   7.968 -0.1055  0.2326  0.1893
  130OSM   H16F14030   2.281   6.709   7.890 -1.7454  1.8422 -1.1729
  130OSM   H16G14031   2.200   6.840   7.980 -0.2734 -0.6249  4.2306
  130OSM   C17F14032   2.318   6.712   8.102 -0.1034 -0.0371  0.6890
  130OSM   H17F14033   2.409   6.650   8.087 -0.6916 -0.7983  0.1380
  130OSM   H17G14034   2.230   6.645   8.115 -1.3752  1.8948  2.6650
  130OSM   C18F14035   2.326   6.806   8.223 -0.3663 -0.2497  0.5638
  130OSM   H18F14036   2.404   6.883   8.205 -0.3334 -0.5974 -0.9261
  130OSM   H18G14037   2.349   6.754   8.318  0.9809 -1.4582 -0.3821
  130OSM   H18H14038   2.230   6.862   8.234 -0.0456  0.1303  1.5351
  131OSM      N14039   2.667   3.369   5.966  0.7168 -0.0390  0.1442
  131OSM    C1514040   2.771   3.318   6.056  0.0884 -0.4274 -0.0885
  131OSM   H15A14041   2.847   3.266   6.000  0.8857  0.9484 -0.3414
  131OSM   H15B14042   2.730   3.247   6.126 -0.1596 -0.3059 -0.1066
  131OSM   H15C14043   2.826   3.398   6.103  0.4816  0.4794 -1.9974
  131OSM    C1414044   2.698   3.503   5.905  0.0493 -0.0572 -0.0048
  131OSM   H14A14045   2.625   3.547   5.838 -1.0144  0.0334  1.1889
  131OSM   H14B14046   2.793   3.498   5.853 -0.4176  3.8632 -1.5800
  131OSM   H14C14047   2.715   3.580   5.979  1.7891 -0.9138  0.5291
  131OSM    C1314048   2.624   3.261   5.863  0.3308 -0.4846 -0.0142
  131OSM   H13A14049   2.551   3.302   5.796 -0.9737  0.9979  2.1626
  131OSM   H13B14050   2.570   3.186   5.918  0.1327 -1.6067 -1.6849
  131OSM   H13C14051   2.709   3.215   5.815  2.0958  0.6412  1.8399
  131OSM    C1214052   2.541   3.390   6.051 -0.4063  0.4929  0.2565
  131OSM   H12A14053   2.501   3.291   6.068 -2.1919  0.5539 -2.9658
  131OSM   H12B14054   2.473   3.449   5.992 -1.6987  0.9783  2.1254
  131OSM    C1114055   2.556   3.467   6.182 -0.0185 -0.5108  0.0563
  131OSM   H11A14056   2.619   3.413   6.256  0.4528  1.5828  1.2380
  131OSM   H11B14057   2.454   3.476   6.226 -1.6006 -1.1863 -3.1418
  131OSM      P14058   2.519   3.723   6.128 -0.5225 -0.5179  0.0826
  131OSM    O1314059   2.602   3.837   6.081  0.3974  0.3013 -0.3095
  131OSM    O1414060   2.403   3.688   6.048  0.8101  0.3625  0.0911
  131OSM    O1114061   2.464   3.753   6.272 -0.3317 -0.3380  0.4496
  131OSM    O1214062   2.604   3.598   6.147 -0.5882  0.0283 -0.4829
  131OSM    C1S14063   2.548   3.796   6.385  0.0739  0.4444 -0.5763
  131OSM    H1S14064   2.574   3.903   6.371 -1.1824  0.9784  0.8131
  131OSM    H1T14065   2.638   3.733   6.396  0.6745  1.4089  0.1508
  131OSM     NF14066   2.564   3.853   6.635 -0.0455 -0.5604 -0.0231
  131OSM    HNF14067   2.597   3.794   6.709 -1.8043 -0.3211  1.0207
  131OSM    C2S14068   2.480   3.803   6.528  1.1276  0.0308  0.2871
  131OSM    H2S14069   2.394   3.873   6.521 -0.5469 -1.8401  1.3235
  131OSM    C3S14070   2.418   3.666   6.568  0.0446 -0.1059  0.5648
  131OSM    H3S14071   2.502   3.608   6.614  0.6496 -0.2813 -0.7281
  131OSM     O314072   2.377   3.586   6.459  0.6334 -0.0318 -0.3094
  131OSM    HO314073   2.415   3.638   6.388  1.5127 -0.2674 -0.0302
  131OSM    C4S14074   2.311   3.672   6.678 -0.4532 -0.4272  0.3408
  131OSM    H4S14075   2.354   3.687   6.779 -1.1496 -0.3630  0.6328
  131OSM    C5S14076   2.180   3.690   6.677  0.3129  0.3082  0.1348
  131OSM    H5S14077   2.119   3.695   6.585  0.3870  0.2934  0.0840
  131OSM    C6S14078   2.097   3.711   6.795 -0.4347 -0.5383 -0.1333
  131OSM    H6S14079   2.053   3.810   6.770 -0.1310 -0.6880 -1.3234
  131OSM    H6T14080   2.147   3.735   6.891  2.6605  0.4157 -1.8352
  131OSM    C7S14081   1.973   3.624   6.820  0.2440 -0.1821  0.6023
  131OSM    H7S14082   1.913   3.629   6.727  0.3003  1.2547  0.6185
  131OSM    H7T14083   1.913   3.663   6.904 -1.3435 -0.5404 -0.3116
  131OSM    C8S14084   2.015   3.475   6.842  0.3353  1.0692 -0.1640
  131OSM    H8S14085   2.109   3.457   6.786  0.9310 -0.3955  1.2232
  131OSM    H8T14086   1.933   3.416   6.796 -1.3037  1.6308  1.8829
  131OSM    C9S14087   2.027   3.439   6.993 -0.7269  0.4326  0.3815
  131OSM    H9S14088   2.064   3.334   6.993 -0.0335  0.6601  1.3811
  131OSM    H9T14089   1.937   3.448   7.056  0.1372 -2.8734  2.3238
  131OSM   C10S14090   2.142   3.517   7.067  0.3106  0.2005 -0.5935
  131OSM   H10S14091   2.106   3.622   7.079 -2.6678 -0.9996  2.5414
  131OSM   H10T14092   2.240   3.512   7.014 -0.8871 -1.3846 -2.8291
  131OSM   C11S14093   2.162   3.460   7.207 -0.5580 -0.2269  0.0689
  131OSM   H11S14094   2.061   3.425   7.239  0.5319 -0.9272  3.0963
  131OSM   H11T14095   2.190   3.544   7.274  0.6923 -1.2253  0.8254
  131OSM   C12S14096   2.272   3.357   7.227  0.1496  1.1355 -0.1283
  131OSM   H12S14097   2.367   3.392   7.179 -0.0271  0.7027 -0.8075
  131OSM   H12T14098   2.235   3.268   7.171  1.3439  0.9849 -0.7344
  131OSM   C13S14099   2.289   3.317   7.375  0.3731  0.2304 -0.5083
  131OSM   H13S14100   2.190   3.300   7.422  1.8918 -0.8689  2.5714
  131OSM   H13T14101   2.346   3.400   7.422 -1.2074  1.8951 -1.4017
  131OSM   C14S14102   2.381   3.198   7.376 -0.4979 -0.7376  0.0082
  131OSM   H14S14103   2.480   3.212   7.329 -0.3303  1.0201  0.7826
  131OSM   H14T14104   2.336   3.123   7.307  0.9795 -0.1432 -1.6844
  131OSM   C15S14105   2.404   3.135   7.516 -0.3666 -0.0484  0.0373
  131OSM   H15S14106   2.469   3.046   7.505 -0.9167 -0.4270 -0.1946
  131OSM   H15T14107   2.307   3.097   7.553 -1.0271  3.4546  2.3734
  131OSM   C16S14108   2.465   3.230   7.620  0.5301  0.1287 -0.3861
  131OSM   H16S14109   2.412   3.328   7.618  1.7165  0.7932 -0.0574
  131OSM   H16T14110   2.569   3.252   7.587  0.1253  1.4670 -0.8529
  131OSM   C17S14111   2.442   3.178   7.764  0.4972  0.8422 -0.5978
  131OSM   H17S14112   2.504   3.088   7.783 -2.4016 -1.1684  0.0098
  131OSM   H17T14113   2.336   3.146   7.773  0.5581  1.0566  1.0443
  131OSM   C18S14114   2.467   3.275   7.874  0.8693  0.8906 -0.3863
  131OSM   H18S14115   2.577   3.294   7.874  1.0489  0.1819  1.9762
  131OSM   H18T14116   2.461   3.216   7.968  1.5127  0.2163 -0.7670
  131OSM   H18U14117   2.407   3.369   7.883  1.2347  0.9579  2.0714
  131OSM    C1F14118   2.623   3.973   6.625  0.1024 -0.6672 -0.0325
  131OSM     OF14119   2.578   4.058   6.548  0.2441  0.3213 -0.2069
  131OSM    C2F14120   2.752   4.007   6.689 -0.1471 -0.9625 -0.4822
  131OSM    H2F14121   2.835   4.038   6.622  1.7882 -2.6565  0.9853
  131OSM    H2G14122   2.796   3.917   6.736  0.7434  0.5323  1.7119
  131OSM    C3F14123   2.737   4.123   6.791  0.1766 -0.3284  0.0036
  131OSM    H3F14124   2.675   4.076   6.870 -0.5499  2.5395  1.3027
  131OSM    H3G14125   2.685   4.207   6.739 -1.9355 -0.2101  2.1046
  131OSM    C4F14126   2.870   4.169   6.842 -0.0684 -0.8272  0.9475
  131OSM    H4F14127   2.927   4.217   6.760 -0.9669  0.6122  1.1245
  131OSM    H4G14128   2.925   4.080   6.879  0.1795 -0.8295  0.5761
  131OSM    C5F14129   2.865   4.282   6.945  0.1723  0.3175 -0.0604
  131OSM    H5F14130   2.827   4.381   6.914  3.1801  1.9328  1.0014
  131OSM    H5G14131   2.973   4.305   6.954  0.3440  0.0682 -1.3010
  131OSM    C6F14132   2.788   4.250   7.071 -0.2854  0.5586 -0.8688
  131OSM    H6F14133   2.792   4.148   7.115 -0.2369  1.4561  1.3523
  131OSM    H6G14134   2.682   4.280   7.053 -0.4933 -0.6346 -1.7452
  131OSM    C7F14135   2.840   4.338   7.194 -0.3291  0.8329 -0.9304
  131OSM    H7F14136   2.751   4.352   7.258 -0.3195  0.0435 -0.7376
  131OSM    H7G14137   2.875   4.437   7.158  3.1692 -0.6262 -2.0604
  131OSM    C8F14138   2.951   4.278   7.286  0.0109 -0.1043  0.6799
  131OSM    H8F14139   3.035   4.246   7.222  0.8907  1.3281  1.0667
  131OSM    H8G14140   2.902   4.190   7.333 -2.1168  0.3035 -0.6258
  131OSM    C9F14141   2.989   4.378   7.394 -0.9078 -0.9725  0.9809
  131OSM    H9F14142   3.036   4.467   7.352 -0.0223 -1.3206  1.2168
  131OSM   C10F14143   2.957   4.379   7.524 -0.2901  0.2152 -0.0315
  131OSM   H10F14144   3.004   4.460   7.582 -0.6256  0.7709 -0.5211
  131OSM   C11F14145   2.878   4.279   7.601  0.1487 -0.9776  0.4640
  131OSM   H11F14146   2.839   4.199   7.534  0.5880  0.5669 -1.7537
  131OSM   H11G14147   2.790   4.326   7.650 -0.5892 -2.4368  0.5829
  131OSM   C12F14148   2.968   4.222   7.711  0.0989  0.3945 -0.3402
  131OSM   H12F14149   3.061   4.189   7.659  1.6703  0.6810  2.1572
  131OSM   H12G14150   2.920   4.133   7.758  1.9171  0.4245  1.7413
  131OSM   C13F14151   2.992   4.314   7.824  0.0961 -0.3124  0.0037
  131OSM   H13F14152   2.956   4.418   7.815 -5.4079 -1.8287  1.0264
  131OSM   H13G14153   3.100   4.323   7.848 -0.6032  0.3450  3.3173
  131OSM   C14F14154   2.925   4.278   7.962 -0.7111 -0.1366 -0.4038
  131OSM   H14F14155   2.964   4.178   7.989 -0.9398 -0.3832 -0.9719
  131OSM   H14G14156   2.819   4.254   7.940 -0.2368 -2.2425 -0.5088
  131OSM   C15F14157   2.935   4.377   8.081  0.4504 -0.1146  0.0337
  131OSM   H15F14158   2.867   4.333   8.157 -1.4831  1.7590 -0.5177
  131OSM   H15G14159   2.891   4.477   8.062  0.6559 -0.1260 -0.5396
  131OSM   C16F14160   3.073   4.388   8.139 -0.1907  0.2334 -0.4066
  131OSM   H16F14161   3.138   4.443   8.068 -0.7905  2.6133  0.7782
  131OSM   H16G14162   3.134   4.296   8.144  1.2603  1.1278 -0.8369
  131OSM   C17F14163   3.066   4.468   8.268  0.0462 -0.5960 -0.0029
  131OSM   H17F14164   2.982   4.425   8.327  0.2634 -3.3471 -1.5001
  131OSM   H17G14165   3.028   4.565   8.228 -1.0416 -1.0184 -0.0269
  131OSM   C18F14166   3.192   4.485   8.346 -0.0091  0.2298  1.0107
  131OSM   H18F14167   3.178   4.548   8.436 -1.9448  0.5938  0.4960
  131OSM   H18G14168   3.265   4.537   8.280 -0.5302  0.4229  0.5839
  131OSM   H18H14169   3.228   4.381   8.361  1.3512  0.5843  0.3625
  132OSM      N14170   5.587   0.923   6.030  0.2422 -0.0107 -0.0939
  132OSM    C1514171   5.522   0.960   5.904 -0.4215  0.1359 -0.4772
  132OSM   H15A14172   5.534   0.885   5.827  2.3274 -1.6091  1.4494
  132OSM   H15B14173   5.549   1.059   5.869  0.6221  0.1343  0.2509
  132OSM   H15C14174   5.415   0.965   5.908 -0.3822  2.2661 -0.9363
  132OSM    C1414175   5.552   0.779   6.049 -0.9958 -0.0267  0.3119
  132OSM   H14A14176   5.597   0.719   5.971 -0.7452 -0.3804  0.7185
  132OSM   H14B14177   5.447   0.755   6.040 -1.7399  3.1191 -0.5385
  132OSM   H14C14178   5.596   0.734   6.137  1.9641  0.2060 -0.9484
  132OSM    C1314179   5.731   0.940   6.021 -0.3603 -0.2155  0.0830
  132OSM   H13A14180   5.748   1.041   5.989 -1.6596 -0.1404 -0.4404
  132OSM   H13B14181   5.773   0.874   5.947 -0.9509 -1.5442  0.8906
  132OSM   H13C14182   5.783   0.918   6.114 -1.6927  0.5312  1.0388
  132OSM    C1214183   5.540   1.017   6.143  0.3694  0.2785 -0.3781
  132OSM   H12A14184   5.537   1.120   6.109  2.6867 -0.3180 -2.7038
  132OSM   H12B14185   5.613   1.006   6.222  0.1035 -2.6594 -0.4271
  132OSM    C1114186   5.404   0.981   6.209  0.1562  0.5470 -0.3240
  132OSM   H11A14187   5.387   1.059   6.286 -1.2590 -0.7303  0.6996
  132OSM   H11B14188   5.420   0.890   6.271  0.5446  1.5126  1.0400
  132OSM      P14189   5.185   0.854   6.126  0.1229  0.0349 -0.2089
  132OSM    O1314190   5.064   0.901   6.059  0.2811  0.1700  0.2032
  132OSM    O1414191   5.247   0.732   6.064 -0.1918 -0.0148 -0.0601
  132OSM    O1114192   5.153   0.825   6.282 -0.5319 -0.0560 -0.2152
  132OSM    O1214193   5.291   0.974   6.124  0.0668 -0.7806  0.1656
  132OSM    C1S14194   5.109   0.922   6.382 -0.5761 -0.0494 -0.0052
  132OSM    H1S14195   5.048   1.007   6.343  0.6760  1.7600  1.7937
  132OSM    H1T14196   5.192   0.967   6.440 -2.8814  1.7488  2.1721
  132OSM     NF14197   4.940   0.947   6.562 -1.0577  0.4803 -0.5096
  132OSM    HNF14198   4.955   0.948   6.660  1.4589 -2.9704 -0.6395
  132OSM    C2S14199   5.023   0.852   6.491 -0.3929 -1.0684 -0.2019
  132OSM    H2S14200   4.953   0.781   6.443 -0.2885  0.1241 -2.2066
  132OSM    C3S14201   5.122   0.769   6.578  0.3681 -0.7013  0.1393
  132OSM    H3S14202   5.197   0.829   6.634 -0.6368 -0.2563  1.0294
  132OSM     O314203   5.190   0.672   6.498 -0.4689 -0.2259  0.2676
  132OSM    HO314204   5.190   0.722   6.416  2.6589  1.6473  1.2270
  132OSM    C4S14205   5.043   0.687   6.682  0.3895 -0.4321 -0.3261
  132OSM    H4S14206   4.984   0.606   6.637  1.5332 -0.4162 -1.9613
  132OSM    C5S14207   5.033   0.722   6.815 -0.4496  0.0487  0.0121
  132OSM    H5S14208   5.072   0.822   6.842  0.0747  0.3141 -1.5971
  132OSM    C6S14209   4.953   0.657   6.924  0.3356  0.1512  0.1675
  132OSM    H6S14210   4.909   0.563   6.883 -0.9844  0.0940  1.6054
  132OSM    H6T14211   4.871   0.720   6.964 -0.9900 -1.9479  0.9769
  132OSM    C7S14212   5.028   0.608   7.042  1.0107  0.0277  0.1963
  132OSM    H7S14213   5.079   0.693   7.092  1.2610  0.0606 -0.1127
  132OSM    H7T14214   5.115   0.547   7.009  2.4400  1.3349  1.3830
  132OSM    C8S14215   4.948   0.525   7.137 -0.2599 -0.3330  0.6274
  132OSM    H8S14216   4.898   0.440   7.085 -1.2778 -0.8283  2.3240
  132OSM    H8T14217   4.859   0.578   7.178 -2.1292 -2.8981  0.1587
  132OSM    C9S14218   5.050   0.484   7.248  0.9711  0.0622 -0.4885
  132OSM    H9S14219   5.121   0.568   7.259 -0.0045  0.7402  1.0852
  132OSM    H9T14220   5.111   0.398   7.213  1.5056 -0.1482  0.8795
  132OSM   C10S14221   4.974   0.459   7.375 -0.4718 -0.3985  0.0572
  132OSM   H10S14222   5.036   0.400   7.446 -1.4792 -1.4364  0.0939
  132OSM   H10T14223   4.894   0.391   7.338  0.6079 -0.6010 -2.1090
  132OSM   C11S14224   4.918   0.581   7.453  0.0866 -0.0823 -0.4640
  132OSM   H11S14225   4.842   0.532   7.517  0.9602  0.7197  1.2614
  132OSM   H11T14226   4.870   0.663   7.396 -0.2023  1.3489  1.6959
  132OSM   C12S14227   5.025   0.659   7.539 -0.5771 -0.4470  0.1932
  132OSM   H12S14228   5.094   0.713   7.470  1.5094 -0.9336  1.7873
  132OSM   H12T14229   5.085   0.590   7.602  0.3846 -1.0117 -1.2874
  132OSM   C13S14230   4.959   0.753   7.636 -0.4619  0.1176 -0.4152
  132OSM   H13S14231   4.909   0.838   7.584  0.2809 -0.3574 -1.9743
  132OSM   H13T14232   5.045   0.784   7.699  0.5269 -0.6356 -1.3637
  132OSM   C14S14233   4.860   0.678   7.729 -0.4805 -0.1194  0.3216
  132OSM   H14S14234   4.903   0.577   7.745  0.9393  0.3962 -0.0971
  132OSM   H14T14235   4.764   0.660   7.675 -0.6999  0.5658  0.4783
  132OSM   C15S14236   4.844   0.756   7.858  0.4399  0.1750 -0.1151
  132OSM   H15S14237   4.746   0.729   7.903  0.2890  2.4528  1.0852
  132OSM   H15T14238   4.852   0.866   7.845  1.1133 -0.0250 -1.5804
  132OSM   C16S14239   4.933   0.722   7.980 -0.2977 -0.1873  0.5925
  132OSM   H16S14240   5.040   0.735   7.952  0.0338 -1.4269  1.2240
  132OSM   H16T14241   4.925   0.616   8.010 -0.8089  0.1369  1.6496
  132OSM   C17S14242   4.893   0.817   8.101 -0.5734 -0.2425 -0.1645
  132OSM   H17S14243   4.946   0.773   8.188  1.4013 -0.5905 -1.4820
  132OSM   H17T14244   4.784   0.803   8.118 -0.5030 -0.1073  0.4136
  132OSM   C18S14245   4.929   0.965   8.084  0.9933 -0.5135  0.3137
  132OSM   H18S14246   5.032   0.977   8.046  0.9024  3.1202  0.8771
  132OSM   H18T14247   4.927   1.019   8.182 -0.7237 -2.1572  1.2576
  132OSM   H18U14248   4.862   1.016   8.011  2.5219  0.8438 -0.1919
  132OSM    C1F14249   4.829   1.002   6.514  0.0813 -0.2956  0.7873
  132OSM     OF14250   4.796   0.975   6.401 -0.3208  0.7865  0.1470
  132OSM    C2F14251   4.751   1.096   6.599 -0.7911 -0.2409 -0.0607
  132OSM    H2F14252   4.674   1.151   6.541 -1.1237 -0.1481  0.4656
  132OSM    H2G14253   4.822   1.166   6.648 -2.5667  1.2389  0.5097
  132OSM    C3F14254   4.682   1.020   6.714 -0.4363  0.3850  0.0718
  132OSM    H3F14255   4.732   0.923   6.738  1.5493  0.6150 -2.6119
  132OSM    H3G14256   4.578   0.989   6.688  0.6579 -1.3664 -2.6940
  132OSM    C4F14257   4.669   1.113   6.842  0.0679  0.5898  0.0170
  132OSM    H4F14258   4.601   1.200   6.827 -2.7879 -1.9136 -3.4401
  132OSM    H4G14259   4.766   1.166   6.850  0.1993  0.5935 -1.3975
  132OSM    C5F14260   4.648   1.033   6.964 -0.4077 -0.1630 -0.0843
  132OSM    H5F14261   4.745   0.983   6.984  1.2700  1.6199 -3.1026
  132OSM    H5G14262   4.578   0.951   6.937 -0.9876  0.3863 -0.2740
  132OSM    C6F14263   4.596   1.103   7.087  0.1919  0.1501 -0.3614
  132OSM    H6F14264   4.487   1.123   7.073 -0.2955 -0.0046  2.5702
  132OSM    H6G14265   4.654   1.193   7.117 -0.0306  0.5897 -1.2054
  132OSM    C7F14266   4.594   1.007   7.203  0.1007 -0.1194  0.0709
  132OSM    H7F14267   4.698   0.978   7.230  0.8220  2.0927 -0.1714
  132OSM    H7G14268   4.542   0.918   7.160 -1.3413  0.7375 -0.0141
  132OSM    C8F14269   4.505   1.048   7.320 -0.4588 -0.1190  0.4014
  132OSM    H8F14270   4.479   0.950   7.367  2.2973 -1.5804 -0.8635
  132OSM    H8G14271   4.417   1.105   7.283  1.6073  3.5420  0.7354
  132OSM    C9F14272   4.586   1.128   7.416  0.1403 -0.1117  0.6959
  132OSM    H9F14273   4.641   1.207   7.362 -1.6434  0.9830  0.4195
  132OSM   C10F14274   4.604   1.109   7.547  0.9170  0.8376 -0.5718
  132OSM   H10F14275   4.661   1.183   7.606 -1.1096 -0.1525  2.9283
  132OSM   C11F14276   4.536   1.010   7.635  0.1403  0.1382  0.2215
  132OSM   H11F14277   4.559   0.906   7.604 -2.0729 -0.8765  1.7197
  132OSM   H11G14278   4.426   1.024   7.632 -0.0287 -1.2076 -0.3951
  132OSM   C12F14279   4.570   1.030   7.789 -0.3213 -0.1839  0.7732
  132OSM   H12F14280   4.680   1.030   7.804 -0.3637  2.1256  1.4832
  132OSM   H12G14281   4.522   0.941   7.836  0.4985  0.2354  2.4930
  132OSM   C13F14282   4.511   1.152   7.853  0.2238 -0.3998 -0.9428
  132OSM   H13F14283   4.401   1.140   7.863  0.1636  0.1068 -0.9703
  132OSM   H13G14284   4.537   1.236   7.785 -1.2075 -1.5529 -3.0323
  132OSM   C14F14285   4.578   1.168   7.995  0.8462  0.3040  0.2073
  132OSM   H14F14286   4.684   1.143   7.975  1.1520  2.2776 -0.8970
  132OSM   H14G14287   4.536   1.077   8.044 -0.2496 -1.0937 -3.0416
  132OSM   C15F14288   4.545   1.305   8.054 -0.0856 -0.0823  0.1157
  132OSM   H15F14289   4.586   1.387   7.990  0.3573  0.9379  1.6463
  132OSM   H15G14290   4.603   1.315   8.149  1.5036 -0.6607 -0.7524
  132OSM   C16F14291   4.396   1.341   8.073  0.2965 -0.5034  0.3616
  132OSM   H16F14292   4.378   1.417   8.153  0.6632 -2.1109  2.0409
  132OSM   H16G14293   4.332   1.255   8.103 -0.5309  0.3569  1.1407
  132OSM   C17F14294   4.322   1.391   7.941  0.1991  0.1343 -0.4576
  132OSM   H17F14295   4.300   1.317   7.861 -0.4331  1.2153 -1.3046
  132OSM   H17G14296   4.394   1.464   7.897 -0.0862  2.1441  2.1858
  132OSM   C18F14297   4.186   1.458   7.979 -0.0257 -0.0790  0.0015
  132OSM   H18F14298   4.111   1.392   8.027  0.5061 -1.2971 -0.7995
  132OSM   H18G14299   4.132   1.492   7.887  0.6820 -2.2500 -1.2928
  132OSM   H18H14300   4.197   1.549   8.042 -0.9104  1.0535 -1.4011
  133SAPE     N14301   4.538   3.091  10.821 -0.6334  0.5184 -0.1423
  133SAPE   HN114302   4.615   3.023  10.809  0.2808  1.4953  0.0351
  133SAPE   HN214303   4.541   3.111  10.923  2.6113  0.5683 -0.1410
  133SAPE   HN314304   4.445   3.048  10.804  0.1454 -0.5628 -1.9510
  133SAPE   C1214305   4.573   3.205  10.726 -0.0545 -0.0920  0.1331
  133SAPE  H12A14306   4.496   3.285  10.727  0.2860  0.2340  0.0524
  133SAPE  H12B14307   4.570   3.165  10.623  0.4046 -0.4083  0.2423
  133SAPE   C1114308   4.710   3.265  10.757 -0.0450 -0.5439 -0.1634
  133SAPE  H11A14309   4.708   3.320  10.853  1.9900 -1.4844  0.4669
  133SAPE  H11B14310   4.715   3.342  10.677 -0.6505 -0.7649 -0.4255
  133SAPE     P14311   4.909   3.149  10.633 -0.4820 -0.0563  0.0805
  133SAPE   O1314312   4.983   3.278  10.612  0.3058  0.2476  0.1899
  133SAPE   O1414313   4.988   3.028  10.664  0.0669 -0.5281 -0.0212
  133SAPE   O1214314   4.814   3.179  10.750  0.4179 -0.3517  0.0554
  133SAPE   O1114315   4.829   3.120  10.510 -0.3960  0.3283 -0.0723
  133SAPE    C114316   4.880   3.107  10.382 -0.6891  0.3052  0.4237
  133SAPE    HA14317   4.818   3.147  10.298 -1.6487 -2.1296 -0.1190
  133SAPE    HB14318   4.975   3.164  10.374 -0.9201  0.5576 -0.7268
  133SAPE    C214319   4.893   2.959  10.350  0.4205 -0.4384 -0.8104
  133SAPE    HS14320   4.961   2.923  10.431  0.5403 -0.2333 -0.8210
  133SAPE   O2114321   4.945   2.952  10.220 -0.7168 -0.0173 -0.0203
  133SAPE   C2114322   5.000   2.838  10.186  0.2223  0.3026  1.0952
  133SAPE   O2214323   5.003   2.745  10.263  0.1915  0.1758 -0.1785
  133SAPE   C2214324   5.074   2.858  10.053 -0.1115 -0.2176  0.0852
  133SAPE   H2R14325   5.011   2.922   9.987  0.6977 -1.3263 -1.8382
  133SAPE   H2S14326   5.151   2.934  10.078 -1.1445  1.2384 -0.9428
  133SAPE    C314327   4.759   2.887  10.362  0.2573  1.2102  0.6139
  133SAPE    HX14328   4.723   2.890  10.467 -1.2698  0.8849  0.1166
  133SAPE    HY14329   4.777   2.782  10.333  1.1448  1.8038 -1.1493
  133SAPE   O3114330   4.658   2.948  10.284 -0.0811 -0.1534 -0.3812
  133SAPE   C3114331   4.596   2.880  10.186 -0.1563 -0.2993  0.3589
  133SAPE   O3214332   4.598   2.760  10.179  0.2914 -0.6189 -0.4454
  133SAPE   C3214333   4.550   2.979  10.078 -0.0615 -0.6351 -0.3609
  133SAPE   H2X14334   4.614   3.067  10.061 -1.2906 -0.1251 -2.7269
  133SAPE   H2Y14335   4.457   3.026  10.115  0.7446  0.2418  0.6044
  133SAPE   C2314336   5.123   2.740   9.982 -0.1382  0.6329 -0.7022
  133SAPE   H3R14337   5.205   2.692  10.039  0.2139  0.9658 -0.9244
  133SAPE   H3S14338   5.177   2.776   9.892  0.3663  0.3315 -0.5249
  133SAPE   C2414339   5.012   2.640   9.940 -0.1931  0.0664 -0.3244
  133SAPE   H4R14340   4.941   2.705   9.884  0.7832  0.0466 -1.6381
  133SAPE   H4S14341   4.958   2.598  10.028  1.2497 -0.0994  0.5029
  133SAPE   C2514342   5.078   2.534   9.855  0.3580 -0.0768 -0.4607
  133SAPE   H5R14343   5.169   2.486   9.893  0.5939  0.1557 -0.7276
  133SAPE   C2614344   5.047   2.497   9.731  0.0928 -0.1993 -0.1578
  133SAPE   H6R14345   5.112   2.421   9.687 -0.3814 -0.3888 -0.5396
  133SAPE   C2714346   4.937   2.541   9.636 -0.0650  0.8731 -0.3607
  133SAPE   H7R14347   4.978   2.601   9.553  0.2355  1.3754  0.1399
  133SAPE   H7S14348   4.865   2.604   9.693 -1.3876  0.4062 -1.4802
  133SAPE   C2814349   4.871   2.414   9.587  0.6172  1.4131 -0.5318
  133SAPE   H8R14350   4.890   2.325   9.649  1.9646  0.6827 -1.9319
  133SAPE   C2914351   4.801   2.404   9.472  0.2377 -0.5778  0.6982
  133SAPE   H9R14352   4.735   2.320   9.447 -0.8963  0.1379  1.2438
  133SAPE  C21014353   4.779   2.527   9.385  0.0724  0.9469  0.7531
  133SAPE  H10R14354   4.746   2.611   9.450 -2.5986  1.2638 -0.8731
  133SAPE  H10S14355   4.685   2.502   9.331  1.5274 -2.0184 -0.5940
  133SAPE  C21114356   4.882   2.574   9.284  0.0896  0.0033 -0.2854
  133SAPE  H11R14357   4.985   2.559   9.321  0.6328 -0.2743 -1.8418
  133SAPE  C21214358   4.866   2.604   9.154  0.0900  0.6809  0.4041
  133SAPE  H12R14359   4.950   2.630   9.088  0.6156 -0.3598  0.6458
  133SAPE  C21314360   4.730   2.598   9.089  0.3795  0.2496 -0.4626
  133SAPE  H13R14361   4.654   2.650   9.152  0.2503 -0.9206  0.3629
  133SAPE  H13S14362   4.679   2.500   9.083  1.8551 -0.7257  1.5924
  133SAPE  C21414363   4.716   2.669   8.960  0.0171 -0.1328 -0.3173
  133SAPE  H14R14364   4.716   2.778   8.972  1.0180 -0.2473  0.9165
  133SAPE  C21514365   4.690   2.613   8.840 -0.4883  0.4281  0.0531
  133SAPE  H15R14366   4.683   2.676   8.750  0.7335  0.7164  0.1350
  133SAPE  C21614367   4.676   2.461   8.818  0.2364  0.5234 -0.5489
  133SAPE  H16R14368   4.612   2.413   8.895  0.9707 -0.1379 -0.3296
  133SAPE  H16S14369   4.774   2.409   8.819  0.5612  1.0786 -1.5434
  133SAPE  C21714370   4.601   2.413   8.690  0.2273  0.5774  1.2655
  133SAPE  H17R14371   4.498   2.454   8.687 -0.2330 -0.5984  0.0813
  133SAPE  H17S14372   4.597   2.302   8.688  1.5904  0.4802 -1.2137
  133SAPE  C21814373   4.680   2.430   8.556  0.3110 -0.1297 -0.0091
  133SAPE  H18R14374   4.784   2.397   8.575  0.4471 -0.2850 -0.9869
  133SAPE  H18S14375   4.698   2.540   8.552  1.6851 -0.3506 -0.3579
  133SAPE  C21914376   4.619   2.375   8.423 -0.2551 -0.7702  0.0075
  133SAPE  H19R14377   4.711   2.355   8.364 -0.2491 -0.5853 -0.0432
  133SAPE  H19S14378   4.558   2.451   8.370  0.8108 -0.8502 -1.3871
  133SAPE  C22014379   4.541   2.240   8.437 -0.2461 -0.7974  0.0166
  133SAPE  H20R14380   4.454   2.256   8.504 -0.1464 -2.0312  0.4625
  133SAPE  H20S14381   4.610   2.169   8.487  1.3830  1.2583  0.8606
  133SAPE  H20T14382   4.511   2.194   8.340  0.6945 -0.9669 -0.2057
  133SAPE   C3314383   4.529   2.910   9.936 -0.6897 -0.1201 -0.3190
  133SAPE   H3X14384   4.476   2.983   9.872 -0.1208 -0.1868 -0.8818
  133SAPE   H3Y14385   4.460   2.824   9.946 -1.5820  0.6048 -0.1868
  133SAPE   C3414386   4.656   2.876   9.860  0.2337 -0.3954 -0.2202
  133SAPE   H4X14387   4.712   2.789   9.901 -0.2542 -0.6709 -0.1248
  133SAPE   H4Y14388   4.720   2.965   9.879  2.7135 -1.9937 -0.6278
  133SAPE   C3514389   4.639   2.861   9.711  0.1404  0.6027 -0.5584
  133SAPE   H5X14390   4.548   2.913   9.677 -0.3746 -1.0770 -1.8699
  133SAPE   H5Y14391   4.626   2.753   9.689  0.1191  0.5220 -0.1635
  133SAPE   C3614392   4.758   2.932   9.634  0.1228 -0.4456 -0.0457
  133SAPE   H6X14393   4.857   2.908   9.677 -0.0836 -0.3502  0.4898
  133SAPE   H6Y14394   4.758   3.041   9.657  0.1827  0.0541 -2.1646
  133SAPE   C3714395   4.748   2.911   9.482  0.3946  0.1731  0.1987
  133SAPE   H7X14396   4.735   2.801   9.469  0.2199  0.0987  0.9604
  133SAPE   H7Y14397   4.847   2.949   9.449  1.7245 -3.1124 -0.0295
  133SAPE   C3814398   4.626   2.979   9.424  0.0435 -0.2277  0.1853
  133SAPE   H8X14399   4.615   3.084   9.461 -0.3359  0.1252 -0.9043
  133SAPE   H8Y14400   4.536   2.927   9.462 -1.2551  1.0355 -1.0547
  133SAPE   C3914401   4.620   2.981   9.271 -0.0170  0.2392  0.1352
  133SAPE   H9X14402   4.515   3.008   9.245  0.0998 -0.1978 -0.8012
  133SAPE   H9Y14403   4.629   2.879   9.228 -0.5009  1.0040 -1.9064
  133SAPE  C31014404   4.717   3.077   9.189 -0.4044  0.4961 -0.7004
  133SAPE  H10X14405   4.724   3.042   9.084  0.4474  0.6822 -0.7169
  133SAPE  H10Y14406   4.817   3.080   9.238 -1.0910  2.4241  0.7122
  133SAPE  C31114407   4.663   3.218   9.205 -0.0439  0.4301 -0.1571
  133SAPE  H11X14408   4.656   3.246   9.312 -2.3160  0.8997 -0.3897
  133SAPE  H11Y14409   4.561   3.218   9.162 -1.3882  0.1869  2.8293
  133SAPE  C31214410   4.755   3.318   9.137  0.0931 -0.0111 -0.5992
  133SAPE  H12X14411   4.862   3.292   9.151 -0.0420  0.1130  0.7640
  133SAPE  H12Y14412   4.747   3.418   9.186  0.0119 -0.4730  0.3522
  133SAPE  C31314413   4.722   3.334   8.993 -0.2080  0.1492  0.3715
  133SAPE  H13X14414   4.623   3.294   8.961  0.6291 -1.8174  0.0942
  133SAPE  H13Y14415   4.786   3.272   8.926 -0.1713  0.3047  0.2615
  133SAPE  C31414416   4.742   3.475   8.933 -0.2162 -0.7533 -0.0047
  133SAPE  H14X14417   4.846   3.507   8.956 -0.2751  0.1540 -0.9233
  133SAPE  H14Y14418   4.684   3.553   8.987  1.6239  1.1525 -0.6273
  133SAPE  C31514419   4.715   3.480   8.778  0.0373  0.9893 -0.2177
  133SAPE  H15X14420   4.700   3.587   8.750  0.9480  1.0492 -0.4978
  133SAPE  H15Y14421   4.615   3.434   8.759  0.5865 -0.1962 -0.2672
  133SAPE  C31614422   4.816   3.409   8.692 -0.1758  0.3704 -0.2358
  133SAPE  H16X14423   4.825   3.303   8.725  1.0570  1.3122  2.7091
  133SAPE  H16Y14424   4.917   3.456   8.690  0.2255 -0.4419  0.4283
  133SAPE  C31714425   4.768   3.414   8.542 -0.3445 -0.0228  0.5068
  133SAPE  H17X14426   4.733   3.515   8.512 -2.1439 -0.9359 -0.6568
  133SAPE  H17Y14427   4.681   3.346   8.539 -1.3903  1.1569  2.1840
  133SAPE  C31814428   4.872   3.361   8.441  0.0521  0.1824  0.0239
  133SAPE  H18X14429   4.963   3.423   8.457  0.6307 -0.0835 -1.8822
  133SAPE  H18Y14430   4.831   3.364   8.337 -0.0552 -2.7657 -0.1079
  133SAPE  H18Z14431   4.891   3.254   8.467 -3.0152 -0.4129  0.2388
  134SAPE     N14432   1.331   2.577  10.524  0.6964  0.3751  0.2800
  134SAPE   HN114433   1.422   2.586  10.475  0.1001  0.8429 -0.7663
  134SAPE   HN214434   1.322   2.655  10.591 -2.0913  0.9537 -0.6380
  134SAPE   HN314435   1.327   2.495  10.588  0.2720  1.3965  1.6086
  134SAPE   C1214436   1.213   2.574  10.427  0.3787 -0.3847 -0.3800
  134SAPE  H12A14437   1.216   2.488  10.356  2.9571  0.8915 -1.9784
  134SAPE  H12B14438   1.222   2.663  10.362  1.6731 -0.7431 -0.7237
  134SAPE   C1114439   1.081   2.576  10.514  0.0619 -0.3915 -0.0266
  134SAPE  H11A14440   1.076   2.665  10.581 -0.6058  0.2032 -0.8422
  134SAPE  H11B14441   1.084   2.488  10.581  0.7717  0.1904  0.7297
  134SAPE     P14442   0.842   2.494  10.467  0.0722 -0.0039  0.1546
  134SAPE   O1314443   0.873   2.363  10.533  0.2493  0.1225  0.4265
  134SAPE   O1414444   0.758   2.586  10.546  0.8647 -0.4928 -0.1641
  134SAPE   O1214445   0.973   2.568  10.420 -0.7516 -0.0403  0.1840
  134SAPE   O1114446   0.768   2.465  10.337  0.8680 -0.2076  0.1509
  134SAPE    C114447   0.792   2.356  10.249  0.1971  0.4820  0.2354
  134SAPE    HA14448   0.768   2.255  10.289 -0.7749  0.1139 -1.1883
  134SAPE    HB14449   0.729   2.368  10.158  1.5758 -0.5355 -0.9028
  134SAPE    C214450   0.933   2.375  10.191  0.0057 -0.4684  0.5578
  134SAPE    HS14451   1.004   2.389  10.275 -1.2448 -0.0501  1.5674
  134SAPE   O2114452   0.922   2.493  10.110 -0.0243  0.4451 -0.3468
  134SAPE   C2114453   1.033   2.561  10.111 -0.2990  0.9737  0.8068
  134SAPE   O2214454   1.143   2.509  10.138 -0.1580 -0.6848  0.0853
  134SAPE   C2214455   1.005   2.701  10.056  0.1432  0.5579  0.0447
  134SAPE   H2R14456   0.920   2.688   9.985  0.9444  0.5858 -0.9414
  134SAPE   H2S14457   0.976   2.772  10.136 -0.1648  0.7231 -0.2071
  134SAPE    C314458   0.974   2.242  10.106  0.7253 -0.0908  0.7351
  134SAPE    HX14459   0.894   2.234  10.030  2.3893  0.4790 -1.1362
  134SAPE    HY14460   0.956   2.152  10.170  0.6572 -0.3515  0.3537
  134SAPE   O3114461   1.110   2.237  10.051  0.4059 -0.0992  0.5624
  134SAPE   C3114462   1.116   2.281   9.926 -0.0372  0.8109 -0.1935
  134SAPE   O3214463   1.016   2.322   9.864  0.4246 -0.3354 -0.0742
  134SAPE   C3214464   1.258   2.269   9.867 -0.3950 -0.5513  1.1292
  134SAPE   H2X14465   1.337   2.250   9.942 -0.0288 -1.8645  0.4347
  134SAPE   H2Y14466   1.285   2.361   9.810 -0.2712 -2.2630 -1.7931
  134SAPE   C2314467   1.136   2.761   9.997  1.1539  0.6148 -0.3644
  134SAPE   H3R14468   1.177   2.702   9.913  0.7395 -0.1163 -0.0609
  134SAPE   H3S14469   1.214   2.759  10.077 -0.3059 -0.0697  1.1070
  134SAPE   C2414470   1.116   2.905   9.934  0.3713 -0.4218 -1.1955
  134SAPE   H4R14471   1.206   2.946   9.885  1.1665  0.3289  0.7682
  134SAPE   H4S14472   1.109   2.976  10.020  0.4596  1.0504 -2.3665
  134SAPE   C2514473   0.986   2.906   9.856 -0.4058 -0.0534 -0.4011
  134SAPE   H5R14474   0.900   2.917   9.925 -0.2712  1.7206 -0.4565
  134SAPE   C2614475   0.972   2.900   9.726  0.1405 -0.3682  0.6901
  134SAPE   H6R14476   0.868   2.893   9.689  1.2572 -1.6474 -2.6288
  134SAPE   C2714477   1.074   2.881   9.608  0.5680  0.5539 -0.3602
  134SAPE   H7R14478   1.033   2.817   9.526  0.7382  0.4947 -0.3987
  134SAPE   H7S14479   1.162   2.825   9.644  0.9708  1.4465  0.0662
  134SAPE   C2814480   1.113   3.025   9.568 -0.2175 -0.2043  0.0604
  134SAPE   H8R14481   1.080   3.106   9.634 -0.7127  0.9303 -1.5057
  134SAPE   C2914482   1.164   3.063   9.447  0.5084 -0.2451 -0.3178
  134SAPE   H9R14483   1.191   3.169   9.435  1.5806 -0.0920  2.6077
  134SAPE  C21014484   1.215   2.982   9.328 -0.4813 -1.0016 -0.1135
  134SAPE  H10R14485   1.209   2.874   9.354 -1.0422 -0.7848  0.6999
  134SAPE  H10S14486   1.320   3.010   9.305  0.1258 -1.7673  1.5829
  134SAPE  C21114487   1.137   2.986   9.202  0.3347 -0.4228  0.4099
  134SAPE  H11R14488   1.046   3.047   9.197  0.6944  0.0195 -2.4101
  134SAPE  C21214489   1.178   2.929   9.088  0.1446  0.6142 -0.5066
  134SAPE  H12R14490   1.119   2.938   8.996  0.3310 -1.7248 -0.9102
  134SAPE  C21314491   1.302   2.842   9.074 -0.1421  0.2657 -0.8008
  134SAPE  H13R14492   1.388   2.874   9.137 -0.5350  0.4694 -0.3566
  134SAPE  H13S14493   1.350   2.840   8.974  0.8106  0.9326 -0.3805
  134SAPE  C21414494   1.269   2.695   9.106  0.0795 -0.3590 -0.5219
  134SAPE  H14R14495   1.182   2.661   9.047  0.6186 -0.0923 -1.4821
  134SAPE  C21514496   1.324   2.628   9.212  0.0462 -0.1625  0.9108
  134SAPE  H15R14497   1.296   2.522   9.219 -1.9439  0.3045  0.6185
  134SAPE  C21614498   1.433   2.660   9.309 -0.6813  0.2137 -1.1571
  134SAPE  H16R14499   1.471   2.762   9.289 -1.1536  0.6997  0.3172
  134SAPE  H16S14500   1.517   2.588   9.300 -1.6101 -1.2522  1.1212
  134SAPE  C21714501   1.375   2.647   9.451  0.7252  0.1586 -0.1711
  134SAPE  H17R14502   1.340   2.543   9.465  1.0886  0.3275  2.7575
  134SAPE  H17S14503   1.279   2.702   9.455 -2.2883 -4.6338  1.0639
  134SAPE  C21814504   1.472   2.695   9.563  0.0247  0.1992  0.6436
  134SAPE  H18R14505   1.483   2.806   9.563  2.3122  0.0417  2.4995
  134SAPE  H18S14506   1.570   2.649   9.544  0.3643  0.9471  0.5317
  134SAPE  C21914507   1.421   2.664   9.706 -0.6150 -0.1139 -0.2469
  134SAPE  H19R14508   1.407   2.554   9.719 -1.0909  0.1314  1.5415
  134SAPE  H19S14509   1.318   2.707   9.708  0.2986  2.2063  1.7789
  134SAPE  C22014510   1.506   2.714   9.817 -0.0375 -0.7368  0.2483
  134SAPE  H20R14511   1.462   2.679   9.913 -0.1170  0.4846  0.6700
  134SAPE  H20S14512   1.509   2.825   9.819 -0.9753 -0.6483 -1.3114
  134SAPE  H20T14513   1.612   2.680   9.819 -0.0101 -0.6356  0.5761
  134SAPE   C3314514   1.275   2.138   9.773  0.2551  0.4010  0.9425
  134SAPE   H3X14515   1.257   2.044   9.828  1.3110  0.1430  0.8735
  134SAPE   H3Y14516   1.385   2.131   9.759  0.1643 -1.0425  0.8365
  134SAPE   C3414517   1.204   2.138   9.641 -0.0817  1.0070 -0.3575
  134SAPE   H4X14518   1.099   2.105   9.662  0.9514 -1.5113  1.3856
  134SAPE   H4Y14519   1.240   2.059   9.572 -1.9343  0.2406 -0.5011
  134SAPE   C3514520   1.218   2.269   9.561 -0.4587 -0.3139 -0.1705
  134SAPE   H5X14521   1.326   2.290   9.542 -0.3365 -1.1395 -0.4039
  134SAPE   H5Y14522   1.187   2.354   9.626  3.2402  0.5289  0.7202
  134SAPE   C3614523   1.153   2.273   9.422  0.5241  0.6969 -0.1057
  134SAPE   H6X14524   1.158   2.370   9.368  0.1521  1.2498  0.8294
  134SAPE   H6Y14525   1.044   2.259   9.440  0.3026  1.2298 -0.9802
  134SAPE   C3714526   1.177   2.154   9.330 -0.0407  0.5419  0.4391
  134SAPE   H7X14527   1.132   2.055   9.355  4.3041 -1.5747  0.9041
  134SAPE   H7Y14528   1.285   2.130   9.319 -0.0163  0.0557  1.5625
  134SAPE   C3814529   1.116   2.168   9.189 -0.5571  0.2432 -0.4566
  134SAPE   H8X14530   1.163   2.257   9.142 -2.2571  1.2977 -0.2635
  134SAPE   H8Y14531   1.008   2.191   9.199 -0.3403  0.6183  1.5443
  134SAPE   C3914532   1.136   2.045   9.103 -0.0459 -0.1364  0.4428
  134SAPE   H9X14533   1.099   1.954   9.155 -2.0414  0.3039 -0.1097
  134SAPE   H9Y14534   1.244   2.024   9.095  0.1421  0.0659  1.9664
  134SAPE  C31014535   1.065   2.064   8.962  0.5056 -0.2271  0.9371
  134SAPE  H10X14536   0.959   2.091   8.984  0.1912 -0.5342 -0.1381
  134SAPE  H10Y14537   1.071   1.978   8.892  1.3491  2.3529 -2.4208
  134SAPE  C31114538   1.111   2.184   8.880  0.1967  0.2251 -0.3117
  134SAPE  H11X14539   1.222   2.188   8.885  0.3251 -1.8960 -0.9125
  134SAPE  H11Y14540   1.069   2.271   8.935 -0.2718  0.3743 -0.9026
  134SAPE  C31214541   1.062   2.192   8.735 -0.7365 -0.0656  0.1772
  134SAPE  H12X14542   1.104   2.104   8.681 -1.7556 -0.5100  0.0852
  134SAPE  H12Y14543   1.113   2.280   8.690 -0.8724 -0.0759  0.0014
  134SAPE  C31314544   0.912   2.193   8.728 -0.0871 -0.1356 -0.3734
  134SAPE  H13X14545   0.871   2.271   8.795 -1.2705 -1.4038  0.4598
  134SAPE  H13Y14546   0.852   2.104   8.758 -0.0602 -0.5740 -1.5494
  134SAPE  C31414547   0.861   2.220   8.581  0.3075 -0.2284 -0.3206
  134SAPE  H14X14548   0.751   2.207   8.577  0.4351 -1.0903 -2.2329
  134SAPE  H14Y14549   0.900   2.135   8.522 -0.1513  0.3069 -1.4283
  134SAPE  C31514550   0.914   2.353   8.526 -0.0020  0.9526  0.7071
  134SAPE  H15X14551   1.025   2.359   8.538  0.3942 -2.3201 -0.3732
  134SAPE  H15Y14552   0.874   2.445   8.573 -2.1517 -0.5917  2.0383
  134SAPE  C31614553   0.888   2.354   8.376  0.4834  0.2428  0.0857
  134SAPE  H16X14554   0.783   2.317   8.366  0.4815  0.5525 -1.2051
  134SAPE  H16Y14555   0.960   2.290   8.321  1.3725  2.4681 -1.4903
  134SAPE  C31714556   0.891   2.490   8.300  0.1639 -0.5767  0.8024
  134SAPE  H17X14557   0.799   2.540   8.335 -0.0571 -0.9383  0.7434
  134SAPE  H17Y14558   0.881   2.471   8.190  0.0614 -2.5569  1.1121
  134SAPE  C31814559   1.009   2.573   8.332 -0.1145 -1.0454  0.5313
  134SAPE  H18X14560   1.024   2.609   8.437  1.7104  1.8153 -0.5842
  134SAPE  H18Y14561   1.011   2.663   8.267 -1.3618 -2.4634 -1.5869
  134SAPE  H18Z14562   1.104   2.519   8.316  0.2249 -1.1370  2.5532
  135SAPE     N14563   0.552   2.732  10.451  0.2985 -0.2183 -0.5729
  135SAPE   HN114564   0.623   2.672  10.498  0.0230  0.7568  1.1609
  135SAPE   HN214565   0.551   2.692  10.355  2.3107 -4.3561  0.8969
  135SAPE   HN314566   0.592   2.828  10.445 -0.2051 -0.0463 -1.3273
  135SAPE   C1214567   0.426   2.724  10.529 -0.6101 -0.1329 -0.1475
  135SAPE  H12A14568   0.344   2.772  10.472  0.7947  1.9180 -0.5888
  135SAPE  H12B14569   0.440   2.773  10.628  1.0781 -2.1134  0.6723
  135SAPE   C1114570   0.386   2.575  10.544  0.4355 -0.1732 -0.1866
  135SAPE  H11A14571   0.282   2.577  10.582 -0.0225 -4.3607 -0.7906
  135SAPE  H11B14572   0.456   2.530  10.619  2.0568  0.2730 -1.3756
  135SAPE     P14573   0.338   2.348  10.438 -0.2278 -0.1922 -0.5171
  135SAPE   O1314574   0.422   2.284  10.541 -0.3381 -0.3255  0.2152
  135SAPE   O1414575   0.194   2.340  10.467 -0.1765 -0.0938  0.3663
  135SAPE   O1214576   0.383   2.497  10.425  0.5482 -0.5207  0.3084
  135SAPE   O1114577   0.363   2.283  10.289 -0.3933  0.3992 -0.7069
  135SAPE    C114578   0.415   2.358  10.186 -0.5225  0.0555  0.0589
  135SAPE    HA14579   0.497   2.424  10.222  0.4786 -0.5641 -1.0248
  135SAPE    HB14580   0.461   2.284  10.117 -0.3557  1.1986 -1.0914
  135SAPE    C214581   0.303   2.426  10.103  0.5647  0.1024  0.1809
  135SAPE    HS14582   0.246   2.497  10.167 -0.2754 -1.7235  1.5361
  135SAPE   O2114583   0.224   2.316  10.049  0.0387 -0.5748  0.0668
  135SAPE   C2114584   0.094   2.340  10.044 -0.8006 -0.3991  0.7462
  135SAPE   O2214585   0.041   2.443  10.080  0.0927  0.0675  0.0863
  135SAPE   C2214586   0.019   2.216  10.007  0.0019 -0.8183 -1.1780
  135SAPE   H2R14587   0.083   2.146   9.949  2.5457  0.8304 -0.5186
  135SAPE   H2S14588   0.000   2.160  10.102 -1.2147  0.9612 -0.3166
  135SAPE    C314589   0.357   2.517   9.990  0.1326 -0.2046  0.7324
  135SAPE    HX14590   0.396   2.613  10.029  0.2054 -0.0717  0.3333
  135SAPE    HY14591   0.280   2.549   9.916  1.6294  0.0962 -0.7589
  135SAPE   O3114592   0.454   2.446   9.912 -0.7828  0.1893  0.4287
  135SAPE   C3114593   0.572   2.497   9.904  0.3977 -0.6442  0.2809
  135SAPE   O3214594   0.606   2.610   9.927  0.3891 -0.4000 -0.3050
  135SAPE   C3214595   0.674   2.403   9.842 -0.5838 -0.4188 -0.2901
  135SAPE   H2X14596   0.623   2.305   9.826 -0.3274 -0.8013  1.1317
  135SAPE   H2Y14597   0.762   2.400   9.910 -0.9344 -0.7128  0.1557
  135SAPE   C2314598  -0.118   2.239   9.928 -0.0615 -0.4893 -0.8432
  135SAPE   H3R14599  -0.183   2.314   9.978  1.2117  0.2560 -0.2377
  135SAPE   H3S14600  -0.166   2.139   9.930  0.4115 -0.7474  2.4606
  135SAPE   C2414601  -0.087   2.275   9.782  0.2912 -0.2123 -0.2317
  135SAPE   H4R14602  -0.172   2.232   9.724 -0.2778  1.4225 -0.6659
  135SAPE   H4S14603  -0.000   2.213   9.751  0.9013  0.9878 -0.9757
  135SAPE   C2514604  -0.065   2.419   9.748 -0.1024 -0.3160  0.6125
  135SAPE   H5R14605  -0.138   2.488   9.794 -1.7463 -1.6775  0.1297
  135SAPE   C2614606   0.053   2.464   9.694  0.0156 -0.2389 -0.1997
  135SAPE   H6R14607   0.049   2.569   9.664 -1.3449 -0.1275  0.2917
  135SAPE   C2714608   0.175   2.382   9.650  0.3557  0.3103 -0.0396
  135SAPE   H7R14609   0.155   2.277   9.619 -1.4615 -0.4145  3.1020
  135SAPE   H7S14610   0.242   2.367   9.738 -0.7726  2.5979  1.3215
  135SAPE   C2814611   0.252   2.453   9.539 -0.3367  0.0553  0.1130
  135SAPE   H8R14612   0.360   2.465   9.555  0.0011 -0.2802 -1.7479
  135SAPE   C2914613   0.207   2.495   9.417 -0.6439  0.6543 -0.3762
  135SAPE   H9R14614   0.274   2.550   9.349  0.6488 -0.0116  0.3281
  135SAPE  C21014615   0.070   2.477   9.361 -0.6786  0.1844 -0.2511
  135SAPE  H10R14616   0.058   2.567   9.297  0.9774  0.5952 -0.0455
  135SAPE  H10S14617  -0.004   2.501   9.440 -0.9765  0.6142 -0.6558
  135SAPE  C21114618   0.064   2.342   9.298  0.1617  0.1722 -0.1091
  135SAPE  H11R14619   0.056   2.257   9.367  0.9140 -0.5927 -0.9301
  135SAPE  C21214620   0.070   2.311   9.167 -0.4244 -0.1270  0.6525
  135SAPE  H12R14621   0.067   2.204   9.140 -0.7445  0.5470 -2.2745
  135SAPE  C21314622   0.076   2.405   9.054 -0.9881  0.3439 -0.2053
  135SAPE  H13R14623   0.007   2.491   9.068  0.2079  1.2929 -0.0484
  135SAPE  H13S14624   0.056   2.353   8.958  0.0436 -1.1275  0.3444
  135SAPE  C21414625   0.222   2.453   9.052  0.4919  0.4518  0.0176
  135SAPE  H14R14626   0.296   2.379   9.086 -0.4134 -0.5373 -0.0915
  135SAPE  C21514627   0.268   2.573   9.019  0.4408  0.3730  0.3635
  135SAPE  H15R14628   0.371   2.601   9.043  0.9142 -0.7599 -0.3079
  135SAPE  C21614629   0.170   2.682   8.966  0.3404 -0.3396 -0.2864
  135SAPE  H16R14630   0.194   2.783   9.006  1.7456 -0.8614  0.2543
  135SAPE  H16S14631   0.068   2.670   9.007 -0.5771  1.3238 -1.9402
  135SAPE  C21714632   0.150   2.691   8.816 -0.6087  0.0567 -0.3758
  135SAPE  H17R14633   0.052   2.732   8.785 -0.2948  1.3272  0.2399
  135SAPE  H17S14634   0.173   2.593   8.768  0.9663  0.4127 -0.4039
  135SAPE  C21814635   0.259   2.792   8.768  0.7945 -0.1522 -0.3461
  135SAPE  H18R14636   0.354   2.743   8.739  2.1870  1.7453  0.7587
  135SAPE  H18S14637   0.298   2.870   8.836  3.4438  0.4539 -2.3868
  135SAPE  C21914638   0.208   2.879   8.643  0.5479 -0.1538 -0.3259
  135SAPE  H19R14639   0.104   2.915   8.656  0.0945 -1.4548 -0.2182
  135SAPE  H19S14640   0.216   2.810   8.556  0.6357 -1.4455  0.6898
  135SAPE  C22014641   0.300   3.001   8.616 -0.1655 -0.7341 -0.3927
  135SAPE  H20R14642   0.311   3.059   8.710  0.3755  1.9210 -1.9947
  135SAPE  H20S14643   0.270   3.069   8.534 -0.5180  0.3847  0.6291
  135SAPE  H20T14644   0.400   2.977   8.575  0.9351 -0.8534  2.1480
  135SAPE   C3314645   0.735   2.451   9.706 -0.1277 -0.3953  0.4261
  135SAPE   H3X14646   0.812   2.374   9.682  0.1055  0.0067 -0.1417
  135SAPE   H3Y14647   0.789   2.545   9.727  1.5170 -1.8099  3.1165
  135SAPE   C3414648   0.636   2.481   9.592 -0.6975 -0.1568 -0.6396
  135SAPE   H4X14649   0.556   2.545   9.635  0.1208 -1.2224  2.7127
  135SAPE   H4Y14650   0.590   2.386   9.556 -0.4534 -0.6715  0.3974
  135SAPE   C3514651   0.712   2.543   9.473 -0.1021 -0.6165 -0.3515
  135SAPE   H5X14652   0.811   2.495   9.461  0.3984 -0.0464  1.2355
  135SAPE   H5Y14653   0.736   2.649   9.497 -1.6955 -0.5854  1.2765
  135SAPE   C3614654   0.651   2.524   9.328 -0.5185  0.3490 -0.5693
  135SAPE   H6X14655   0.553   2.576   9.328 -0.5480  0.2900 -0.3218
  135SAPE   H6Y14656   0.631   2.415   9.322 -2.3860  0.6629 -0.5765
  135SAPE   C3714657   0.735   2.579   9.209  0.3361 -0.6752 -0.8737
  135SAPE   H7X14658   0.838   2.539   9.220 -0.4467 -2.5794 -0.1565
  135SAPE   H7Y14659   0.745   2.688   9.231  0.0133 -1.1211  1.8299
  135SAPE   C3814660   0.690   2.545   9.065 -0.3887 -0.2474 -0.2019
  135SAPE   H8X14661   0.596   2.603   9.052 -0.0804  0.3661  0.2359
  135SAPE   H8Y14662   0.660   2.439   9.049 -1.5217  0.4788 -3.5505
  135SAPE   C3914663   0.789   2.605   8.966 -0.2304 -0.6978 -0.2650
  135SAPE   H9X14664   0.893   2.571   8.986 -0.1213 -0.3418 -0.2241
  135SAPE   H9Y14665   0.772   2.715   8.964  1.7764 -0.3159  0.4468
  135SAPE  C31014666   0.771   2.562   8.818 -0.4302 -0.3850 -0.1679
  135SAPE  H10X14667   0.769   2.451   8.815  0.7120 -0.4034 -1.2287
  135SAPE  H10Y14668   0.865   2.582   8.762  0.2984 -0.2745  1.0552
  135SAPE  C31114669   0.640   2.626   8.762 -0.6564  0.5306  1.2956
  135SAPE  H11X14670   0.644   2.737   8.762 -1.1897  0.6448 -1.9498
  135SAPE  H11Y14671   0.565   2.583   8.831 -1.3616 -1.1747 -0.4371
  135SAPE  C31214672   0.596   2.576   8.623 -0.6690 -0.2143  0.6948
  135SAPE  H12X14673   0.671   2.615   8.550 -2.4157  0.6728 -0.7035
  135SAPE  H12Y14674   0.497   2.616   8.592 -0.2077  0.5173  0.1318
  135SAPE  C31314675   0.579   2.428   8.606  1.2059 -0.1578 -0.6462
  135SAPE  H13X14676   0.683   2.387   8.603  0.8521 -1.0743 -0.8105
  135SAPE  H13Y14677   0.534   2.406   8.507  2.6575 -0.9417 -1.1549
  135SAPE  C31414678   0.490   2.360   8.717 -0.0475  0.2348  0.2272
  135SAPE  H14X14679   0.397   2.419   8.728 -0.1231 -0.0225  0.9602
  135SAPE  H14Y14680   0.536   2.362   8.818 -0.4780 -0.4818  0.4448
  135SAPE  C31514681   0.462   2.216   8.673  0.4015 -0.4876 -0.7407
  135SAPE  H15X14682   0.562   2.169   8.683 -0.2765 -1.9145 -0.4463
  135SAPE  H15Y14683   0.441   2.202   8.565 -2.3948 -0.8430 -0.2464
  135SAPE  C31614684   0.359   2.147   8.759  0.7304 -0.1063 -0.6920
  135SAPE  H16X14685   0.355   2.192   8.861 -0.1371 -0.7775 -0.4164
  135SAPE  H16Y14686   0.396   2.042   8.757  2.3843  0.4383 -1.9840
  135SAPE  C31714687   0.223   2.160   8.692 -0.2446  0.3352  0.1980
  135SAPE  H17X14688   0.215   2.267   8.663 -0.1036  0.3462  0.1959
  135SAPE  H17Y14689   0.141   2.122   8.755  1.3615 -1.7908  1.1297
  135SAPE  C31814690   0.222   2.073   8.566  0.8187 -0.5586  0.0049
  135SAPE  H18X14691   0.285   2.115   8.485 -1.6643  3.9262  0.0533
  135SAPE  H18Y14692   0.121   2.081   8.520  1.0091 -1.7734 -0.6495
  135SAPE  H18Z14693   0.242   1.966   8.590 -1.4088 -0.9105  0.5114
  136SAPE     N14694   4.735   0.251  10.772  0.1982 -0.7480  0.2223
  136SAPE   HN114695   4.657   0.190  10.743  1.4641 -2.6591  0.6809
  136SAPE   HN214696   4.719   0.343  10.726 -1.7380 -1.4947 -0.6529
  136SAPE   HN314697   4.832   0.222  10.748  1.5286  2.7027  0.7451
  136SAPE   C1214698   4.707   0.271  10.926  0.6389 -0.3236 -0.5402
  136SAPE  H12A14699   4.647   0.363  10.940  1.6439  0.5170 -1.6040
  136SAPE  H12B14700   4.804   0.282  10.980  0.7467 -0.6406 -0.6663
  136SAPE   C1114701   4.634   0.148  10.988 -0.5267 -0.0892  0.6921
  136SAPE  H11A14702   4.609   0.160  11.096 -1.1328  0.0160  0.5447
  136SAPE  H11B14703   4.689   0.054  10.967 -0.3575 -0.2706  1.8534
  136SAPE     P14704   4.467   0.025  10.829  0.5222 -0.0740 -0.3382
  136SAPE   O1314705   4.490  -0.104  10.890  0.1873  0.0805 -0.1575
  136SAPE   O1414706   4.333   0.048  10.766 -0.3517  0.5379 -0.1325
  136SAPE   O1214707   4.498   0.142  10.935  0.3387  0.1123 -0.6108
  136SAPE   O1114708   4.568   0.051  10.716 -0.0578 -0.7945  0.2230
  136SAPE    C114709   4.651  -0.049  10.660  0.6488 -0.4640  0.3011
  136SAPE    HA14710   4.741  -0.004  10.614 -0.1027 -0.7865 -1.5468
  136SAPE    HB14711   4.698  -0.106  10.743  0.6575 -1.0657 -0.1093
  136SAPE    C214712   4.588  -0.132  10.546  0.5624  0.1330 -0.4102
  136SAPE    HS14713   4.670  -0.193  10.502 -0.5137 -2.5570  1.0931
  136SAPE   O2114714   4.530  -0.049  10.444  0.3964  0.1570  0.1516
  136SAPE   C2114715   4.606   0.022  10.365 -0.9624  0.8175  0.2383
  136SAPE   O2214716   4.730   0.032  10.365 -1.0235 -0.3847  0.0841
  136SAPE   C2214717   4.505   0.100  10.274  0.1200 -0.0091  0.7941
  136SAPE   H2R14718   4.448   0.028  10.212  1.7565 -0.4938 -0.1970
  136SAPE   H2S14719   4.435   0.156  10.340 -1.4252  0.6621 -1.3100
  136SAPE    C314720   4.474  -0.230  10.595 -0.7488 -0.1716  0.2675
  136SAPE    HX14721   4.386  -0.171  10.627 -1.8239 -2.1415  1.1225
  136SAPE    HY14722   4.517  -0.284  10.682  0.4842 -0.7383 -0.6562
  136SAPE   O3114723   4.439  -0.323  10.495  0.0527  0.1341 -0.1711
  136SAPE   C3114724   4.351  -0.284  10.399  0.8559  0.1657  0.3750
  136SAPE   O3214725   4.283  -0.182  10.404 -0.0631  0.1486 -0.3257
  136SAPE   C3214726   4.358  -0.379  10.280 -0.1370 -0.0599  0.9722
  136SAPE   H2X14727   4.261  -0.432  10.270  1.1031 -2.1899 -0.8081
  136SAPE   H2Y14728   4.441  -0.453  10.292  0.1739  0.1684  0.2881
  136SAPE   C2314729   4.576   0.197  10.174  0.2500 -0.1168  0.1830
  136SAPE   H3R14730   4.650   0.142  10.113  1.9701  0.2900  1.7925
  136SAPE   H3S14731   4.635   0.279  10.222  1.4121 -1.1812  0.6555
  136SAPE   C2414732   4.477   0.275  10.086 -0.1857 -0.5133 -0.1753
  136SAPE   H4R14733   4.403   0.204  10.044  0.8433 -1.3904 -0.5462
  136SAPE   H4S14734   4.546   0.309  10.005 -0.7533 -0.8829 -0.8275
  136SAPE   C2514735   4.403   0.387  10.162  0.7261 -0.4145 -0.8089
  136SAPE   H5R14736   4.402   0.365  10.270  0.4773  1.3947 -0.4048
  136SAPE   C2614737   4.346   0.488  10.098  0.4803  0.3406  0.2862
  136SAPE   H6R14738   4.284   0.565  10.146  0.9546  0.5445  0.5837
  136SAPE   C2714739   4.338   0.512   9.945 -0.3225 -0.1728  0.3461
  136SAPE   H7R14740   4.421   0.580   9.916 -0.9028  0.9053  1.1394
  136SAPE   H7S14741   4.252   0.581   9.932 -2.0740 -1.8883  2.2381
  136SAPE   C2814742   4.313   0.407   9.833 -0.3790  0.5362 -0.0655
  136SAPE   H8R14743   4.271   0.314   9.875  2.2172 -1.8375 -2.2790
  136SAPE   C2914744   4.329   0.427   9.699 -0.8348 -0.4250  0.3055
  136SAPE   H9R14745   4.300   0.345   9.631 -3.2751 -0.2964  1.0875
  136SAPE  C21014746   4.387   0.550   9.625 -0.0758  0.6849 -0.5063
  136SAPE  H10R14747   4.468   0.521   9.555 -0.4365  1.9243 -1.4783
  136SAPE  H10S14748   4.429   0.618   9.701  2.8992  0.0697 -1.4779
  136SAPE  C21114749   4.277   0.621   9.550 -0.1783 -0.0277  0.3053
  136SAPE  H11R14750   4.204   0.672   9.615 -2.8190 -0.1000 -2.3535
  136SAPE  C21214751   4.262   0.650   9.421 -0.0234 -0.0304  0.5980
  136SAPE  H12R14752   4.170   0.701   9.390 -1.5625 -1.5232  2.4611
  136SAPE  C21314753   4.344   0.621   9.300 -0.2376 -0.0032 -0.3869
  136SAPE  H13R14754   4.447   0.648   9.332 -0.3597  0.2186 -0.1769
  136SAPE  H13S14755   4.315   0.677   9.209  1.9919  1.1000 -0.4731
  136SAPE  C21414756   4.380   0.481   9.271  0.1540 -0.0118  0.4682
  136SAPE  H14R14757   4.443   0.427   9.343  4.6191  0.8084 -2.4373
  136SAPE  C21514758   4.346   0.421   9.159 -0.4176 -0.7912  0.5754
  136SAPE  H15R14759   4.379   0.318   9.141  2.4415  0.5400 -3.2005
  136SAPE  C21614760   4.273   0.480   9.040  0.0800  0.4813  0.0492
  136SAPE  H16R14761   4.263   0.590   9.028 -1.0914  0.4186  0.3667
  136SAPE  H16S14762   4.168   0.447   9.054  1.1093 -2.8915  0.9000
  136SAPE  C21714763   4.311   0.424   8.902  0.1135  0.5731  0.9428
  136SAPE  H17R14764   4.232   0.454   8.830  0.6470 -0.4763 -0.1349
  136SAPE  H17S14765   4.322   0.313   8.899 -0.3470  0.5238  1.1321
  136SAPE  C21814766   4.434   0.488   8.836 -0.6819  0.8430  0.2963
  136SAPE  H18R14767   4.528   0.477   8.894  1.6180  1.7582 -2.9498
  136SAPE  H18S14768   4.423   0.597   8.822 -2.0408  0.5421 -1.2541
  136SAPE  C21914769   4.454   0.441   8.694  0.3929  0.3845  0.2504
  136SAPE  H19R14770   4.355   0.451   8.645 -0.2097 -1.2937  1.0570
  136SAPE  H19S14771   4.472   0.332   8.706 -2.1621 -0.0079  1.1623
  136SAPE  C22014772   4.570   0.504   8.621 -0.4647  0.5065 -0.6636
  136SAPE  H20R14773   4.556   0.614   8.619 -0.8053  0.4791  0.0277
  136SAPE  H20S14774   4.585   0.464   8.518 -1.9384 -1.0912 -0.3100
  136SAPE  H20T14775   4.663   0.493   8.681  0.1394  1.0563 -1.4784
  136SAPE   C3314776   4.395  -0.299  10.145 -0.5839  0.2318 -0.7805
  136SAPE   H3X14777   4.493  -0.259  10.178 -0.7086 -0.2759  0.2422
  136SAPE   H3Y14778   4.342  -0.202  10.131  1.2093  1.3865  0.0324
  136SAPE   C3414779   4.394  -0.379  10.020 -0.1073  0.2455 -1.0776
  136SAPE   H4X14780   4.410  -0.488  10.037  0.2978 -0.0089 -2.8408
  136SAPE   H4Y14781   4.480  -0.337   9.964 -0.4932 -0.4300 -2.2038
  136SAPE   C3514782   4.267  -0.359   9.945  0.3871 -0.0453  0.6165
  136SAPE   H5X14783   4.263  -0.252   9.915 -1.6266 -0.0850  0.5951
  136SAPE   H5Y14784   4.182  -0.405  10.001  0.4227  1.4173  1.9240
  136SAPE   C3614785   4.271  -0.429   9.808 -0.1403 -1.2418 -0.8618
  136SAPE   H6X14786   4.270  -0.537   9.831  2.9051 -1.0280  0.8414
  136SAPE   H6Y14787   4.366  -0.409   9.752  0.5078 -1.1839  0.2322
  136SAPE   C3714788   4.148  -0.390   9.723 -0.0889 -0.2303  0.9455
  136SAPE   H7X14789   4.147  -0.281   9.704  0.4893 -0.4426 -0.4330
  136SAPE   H7Y14790   4.065  -0.418   9.790 -0.3735  0.9368  1.0961
  136SAPE   C3814791   4.133  -0.465   9.597  0.1461 -0.3660  0.0027
  136SAPE   H8X14792   4.033  -0.430   9.564 -0.7480 -2.4127  0.3309
  136SAPE   H8Y14793   4.133  -0.574   9.618  0.3236  0.1480  3.1601
  136SAPE   C3914794   4.240  -0.428   9.495 -0.0459 -0.1905 -0.6371
  136SAPE   H9X14795   4.338  -0.467   9.529  0.2563  0.2086 -1.0364
  136SAPE   H9Y14796   4.246  -0.319   9.474  0.4148  0.2561  1.6114
  136SAPE  C31014797   4.218  -0.518   9.370  0.4619 -0.1236 -0.4421
  136SAPE  H10X14798   4.113  -0.501   9.340  0.0196 -0.0781  1.0317
  136SAPE  H10Y14799   4.239  -0.621   9.405  0.0021  0.0931  0.5013
  136SAPE  C31114800   4.314  -0.486   9.257  0.2518 -0.4290  0.0945
  136SAPE  H11X14801   4.419  -0.501   9.290  0.3086 -1.4685 -0.4837
  136SAPE  H11Y14802   4.306  -0.381   9.221 -0.5136 -0.8489 -1.0212
  136SAPE  C31214803   4.282  -0.565   9.125  0.2035  0.0582  0.2761
  136SAPE  H12X14804   4.182  -0.524   9.099  0.7035  1.0937 -0.0604
  136SAPE  H12Y14805   4.276  -0.676   9.129  1.1473 -0.2223 -3.0704
  136SAPE  C31314806   4.377  -0.540   9.004 -0.0729 -0.4033 -0.1531
  136SAPE  H13X14807   4.396  -0.619   8.929  0.7368  0.1916 -0.5942
  136SAPE  H13Y14808   4.476  -0.527   9.053 -0.2732 -0.4477  0.2709
  136SAPE  C31414809   4.348  -0.401   8.932  0.2479 -1.0342  0.3027
  136SAPE  H14X14810   4.351  -0.330   9.017 -2.0694  0.8385 -1.0619
  136SAPE  H14Y14811   4.245  -0.399   8.891  0.8936  1.1136 -1.3352
  136SAPE  C31514812   4.456  -0.347   8.839  0.3168  0.1146 -0.2086
  136SAPE  H15X14813   4.479  -0.406   8.748  1.0463 -0.5183  0.3669
  136SAPE  H15Y14814   4.551  -0.355   8.897 -0.2121  0.2779  0.7014
  136SAPE  C31614815   4.419  -0.211   8.788  0.5312  0.7825 -0.5507
  136SAPE  H16X14816   4.512  -0.164   8.749  0.6693 -0.9894 -2.5967
  136SAPE  H16Y14817   4.384  -0.148   8.872 -1.5112 -0.4701 -0.4078
  136SAPE  C31714818   4.311  -0.214   8.682  0.1223 -0.0985  0.9399
  136SAPE  H17X14819   4.213  -0.237   8.729 -0.4157 -0.1368 -0.1649
  136SAPE  H17Y14820   4.328  -0.283   8.597  0.0885  3.3117 -2.1078
  136SAPE  C31814821   4.296  -0.076   8.615  0.3797 -0.0192 -0.4502
  136SAPE  H18X14822   4.393  -0.024   8.606  0.1855  0.5008  0.3475
  136SAPE  H18Y14823   4.233  -0.015   8.683 -2.6342 -2.2228 -1.0244
  136SAPE  H18Z14824   4.251  -0.085   8.513 -1.2377  2.9479 -0.1098
  137SAPE     N14825   0.433   3.747  10.818 -0.0531 -0.3359 -0.2882
  137SAPE   HN114826   0.419   3.647  10.790 -1.1764 -0.7156  1.4706
  137SAPE   HN214827   0.468   3.747  10.916  0.7032  1.5721 -0.5240
  137SAPE   HN314828   0.342   3.796  10.825  0.6836  1.1119 -0.6073
  137SAPE   C1214829   0.527   3.809  10.721  0.2269 -0.6662 -0.4026
  137SAPE  H12A14830   0.521   3.919  10.736 -2.1871 -0.7144 -0.6366
  137SAPE  H12B14831   0.471   3.795  10.626 -2.4533  4.1974  0.0981
  137SAPE   C1114832   0.674   3.758  10.732  0.4390 -0.0019  0.4788
  137SAPE  H11A14833   0.744   3.803  10.659 -0.2810  1.9762  0.9419
  137SAPE  H11B14834   0.659   3.651  10.705  0.9241 -0.0751  0.4992
  137SAPE     P14835   0.838   3.680  10.913 -0.6874  0.0751 -0.2945
  137SAPE   O1314836   0.883   3.733  11.045  0.3411  0.1294 -0.1532
  137SAPE   O1414837   0.781   3.540  10.902 -0.7594  0.2159 -0.2919
  137SAPE   O1214838   0.716   3.774  10.864  0.1594 -0.0191 -0.7041
  137SAPE   O1114839   0.945   3.706  10.807  0.1518  0.1832  0.1395
  137SAPE    C114840   1.034   3.822  10.817  0.1685 -0.0060 -0.0215
  137SAPE    HA14841   0.979   3.918  10.824  0.8373  0.2848  1.5666
  137SAPE    HB14842   1.087   3.820  10.915  1.2275  0.9398 -0.5680
  137SAPE    C214843   1.132   3.829  10.702 -0.0968 -0.9843  0.1961
  137SAPE    HS14844   1.185   3.924  10.723 -0.7722 -0.3909 -0.7028
  137SAPE   O2114845   1.068   3.826  10.570  0.3099 -0.6384 -0.1341
  137SAPE   C2114846   0.985   3.925  10.540 -0.0448  0.3270  0.5491
  137SAPE   O2214847   0.969   4.025  10.608 -0.3525 -0.4956  0.3095
  137SAPE   C2214848   0.903   3.888  10.415 -0.7674  0.4944  0.4490
  137SAPE   H2R14849   0.973   3.888  10.329 -1.6635 -2.6592 -0.3986
  137SAPE   H2S14850   0.869   3.786  10.439  3.3279 -1.4331 -0.9473
  137SAPE    C314851   1.231   3.714  10.707  0.7567 -0.3612  0.0312
  137SAPE    HX14852   1.175   3.618  10.709 -0.2036  0.1977  0.1645
  137SAPE    HY14853   1.281   3.720  10.806 -0.0324 -3.5755  0.7446
  137SAPE   O3114854   1.328   3.728  10.601 -0.3453 -0.3306  0.0145
  137SAPE   C3114855   1.295   3.669  10.481 -0.0859  0.3424 -0.4165
  137SAPE   O3214856   1.199   3.599  10.462  0.0870 -0.7682  0.0784
  137SAPE   C3214857   1.399   3.689  10.376  0.1736 -1.1690  1.0779
  137SAPE   H2X14858   1.469   3.602  10.376  0.9320 -0.7281 -2.3077
  137SAPE   H2Y14859   1.452   3.783  10.401 -2.9474  1.9399 -2.7773
  137SAPE   C2314860   0.797   3.993  10.380 -0.1496 -0.4529 -0.3533
  137SAPE   H3R14861   0.819   4.086  10.437  0.2994  0.2557 -1.6507
  137SAPE   H3S14862   0.698   3.950  10.408  0.3586 -1.8929 -0.6895
  137SAPE   C2414863   0.776   4.023  10.230 -0.0273  0.4080  0.2138
  137SAPE   H4R14864   0.692   4.096  10.226 -0.4764 -0.1405 -0.9660
  137SAPE   H4S14865   0.740   3.926  10.188  0.9488  0.2988 -0.4029
  137SAPE   C2514866   0.897   4.065  10.145 -0.3924 -0.4561  0.5361
  137SAPE   H5R14867   0.973   4.125  10.197  0.4671  0.6708 -1.8670
  137SAPE   C2614868   0.917   4.049  10.012  0.0307  0.0855 -0.2875
  137SAPE   H6R14869   1.016   4.079   9.976  0.7339 -1.0596  0.5859
  137SAPE   C2714870   0.827   3.988   9.909 -0.3848 -0.0074 -0.1437
  137SAPE   H7R14871   0.771   4.073   9.864  0.0389  1.2898  1.6606
  137SAPE   H7S14872   0.745   3.934   9.962 -0.4281 -0.3402 -0.5485
  137SAPE   C2814873   0.896   3.892   9.816 -0.1599  0.0330 -0.2292
  137SAPE   H8R14874   0.902   3.787   9.850 -0.8842 -0.0883 -0.4640
  137SAPE   C2914875   0.952   3.928   9.693  0.1972  0.5854  0.6588
  137SAPE   H9R14876   1.007   3.850   9.639  0.9776  0.7410  1.2120
  137SAPE  C21014877   0.938   4.065   9.632 -0.0863 -0.0345  0.6300
  137SAPE  H10R14878   1.013   4.126   9.687  1.8314 -1.5685 -0.1669
  137SAPE  H10S14879   0.834   4.105   9.632  0.0745  0.3963  1.1219
  137SAPE  C21114880   0.976   4.065   9.481  0.8381  0.0832 -0.0972
  137SAPE  H11R14881   1.018   3.972   9.439 -2.1093 -0.8540 -1.2600
  137SAPE  C21214882   0.956   4.176   9.401 -0.4229  0.1436  0.2212
  137SAPE  H12R14883   0.987   4.176   9.295  3.3132  0.0045  1.1796
  137SAPE  C21314884   0.889   4.299   9.445  0.7713  0.0392  0.9291
  137SAPE  H13R14885   0.826   4.275   9.534 -2.0246 -2.0578 -1.4000
  137SAPE  H13S14886   0.813   4.324   9.368  2.1257  0.8830 -0.1762
  137SAPE  C21414887   0.975   4.416   9.475 -1.0584  0.3454 -1.0155
  137SAPE  H14R14888   1.049   4.435   9.396  0.0847  3.1002  0.5797
  137SAPE  C21514889   0.986   4.474   9.596  0.2129  0.0076 -0.2008
  137SAPE  H15R14890   1.065   4.549   9.609  0.9848 -1.0608  1.8338
  137SAPE  C21614891   0.902   4.460   9.726 -0.6231 -0.4368  0.3815
  137SAPE  H16R14892   0.949   4.391   9.799 -0.4485  3.5047  4.3723
  137SAPE  H16S14893   0.798   4.440   9.694 -0.7625  2.3633 -1.2217
  137SAPE  C21714894   0.906   4.598   9.787  0.0776  0.0141  0.2994
  137SAPE  H17R14895   0.842   4.672   9.734  1.2876  0.8866 -0.0137
  137SAPE  H17S14896   1.013   4.628   9.792  0.7318 -2.1061  0.0187
  137SAPE  C21814897   0.847   4.588   9.931  0.1344 -0.3702  0.5825
  137SAPE  H18R14898   0.889   4.496   9.977  2.5251  1.0743  1.4645
  137SAPE  H18S14899   0.742   4.550   9.924  0.7190 -1.9908  0.1071
  137SAPE  C21914900   0.872   4.703  10.024 -0.3329 -0.3266 -0.2864
  137SAPE  H19R14901   0.881   4.793   9.959  1.3776 -0.5597 -0.4178
  137SAPE  H19S14902   0.978   4.716  10.057 -0.9081 -0.5271  1.7668
  137SAPE  C22014903   0.769   4.722  10.136 -0.7839  0.1980  0.1918
  137SAPE  H20R14904   0.799   4.815  10.190  0.6991 -0.0738 -0.1331
  137SAPE  H20S14905   0.766   4.633  10.202  0.4583  0.2790  0.3845
  137SAPE  H20T14906   0.664   4.732  10.100 -0.3347 -0.4751 -1.3866
  137SAPE   C3314907   1.354   3.708  10.233  1.1013 -0.9006  0.0465
  137SAPE   H3X14908   1.417   3.780  10.176 -0.7434 -0.1916 -1.1888
  137SAPE   H3Y14909   1.255   3.759  10.239 -0.1489 -2.7954 -2.4801
  137SAPE   C3414910   1.323   3.572  10.158 -0.0300  0.0980 -1.0237
  137SAPE   H4X14911   1.251   3.508  10.214  0.0556  2.5439  2.1606
  137SAPE   H4Y14912   1.418   3.514  10.149 -0.7694 -1.6127  1.3583
  137SAPE   C3514913   1.268   3.591  10.024 -0.1359  0.7247 -0.4047
  137SAPE   H5X14914   1.168   3.637  10.042  0.2871  1.5857 -0.1920
  137SAPE   H5Y14915   1.246   3.492   9.978 -0.8521  0.4040  0.6026
  137SAPE   C3614916   1.354   3.685   9.937  0.4124  0.1633 -0.4580
  137SAPE   H6X14917   1.462   3.663   9.949 -0.2404 -2.8341  1.0195
  137SAPE   H6Y14918   1.329   3.786   9.975 -0.4554 -0.2511  0.1302
  137SAPE   C3714919   1.312   3.679   9.795 -0.3347 -0.4747  0.0725
  137SAPE   H7X14920   1.210   3.721   9.780  0.9593  2.0007 -2.9281
  137SAPE   H7Y14921   1.319   3.578   9.750  1.3858 -1.0066  1.3954
  137SAPE   C3814922   1.404   3.772   9.709 -0.3666  0.7239 -0.5265
  137SAPE   H8X14923   1.508   3.779   9.749  0.2923  0.8039 -2.1957
  137SAPE   H8Y14924   1.365   3.876   9.715 -0.4840  0.6072  2.9383
  137SAPE   C3914925   1.395   3.741   9.559 -0.8283 -0.5526 -0.0725
  137SAPE   H9X14926   1.318   3.664   9.537 -1.2068  0.0006 -0.7207
  137SAPE   H9Y14927   1.489   3.692   9.529 -1.3069 -0.8658 -1.1081
  137SAPE  C31014928   1.373   3.872   9.477 -0.5923 -0.2488 -0.6099
  137SAPE  H10X14929   1.460   3.934   9.505 -2.2889  0.9704  2.5544
  137SAPE  H10Y14930   1.286   3.928   9.520  0.1757 -0.7025  1.6641
  137SAPE  C31114931   1.355   3.858   9.329  0.1394 -0.7997 -0.2700
  137SAPE  H11X14932   1.301   3.945   9.286  1.6264  0.2496 -0.0853
  137SAPE  H11Y14933   1.285   3.771   9.325 -1.9743  0.6007  2.8271
  137SAPE  C31214934   1.485   3.849   9.249 -0.2239  0.4864  0.2719
  137SAPE  H12X14935   1.534   3.757   9.287  0.5257 -0.2059 -2.2097
  137SAPE  H12Y14936   1.547   3.939   9.270 -0.2855  0.7390 -0.5645
  137SAPE  C31314937   1.450   3.830   9.102  1.1846 -0.8183  0.0376
  137SAPE  H13X14938   1.373   3.750   9.095  1.0031 -0.8113  1.5279
  137SAPE  H13Y14939   1.545   3.807   9.050 -0.2625 -2.7110 -1.9964
  137SAPE  C31414940   1.396   3.960   9.032  0.0345  0.4447 -0.2532
  137SAPE  H14X14941   1.476   4.033   9.008  0.1881  0.8710  1.3775
  137SAPE  H14Y14942   1.329   4.009   9.106 -1.0327 -0.7491 -0.3816
  137SAPE  C31514943   1.332   3.938   8.890 -0.8704  0.8869  0.4617
  137SAPE  H15X14944   1.250   3.864   8.903 -1.3436  1.4430  0.6958
  137SAPE  H15Y14945   1.413   3.899   8.825 -0.4130  1.0298  0.9360
  137SAPE  C31614946   1.288   4.075   8.829 -0.2774  0.1407  0.2791
  137SAPE  H16X14947   1.370   4.149   8.842 -0.3539  0.1851  0.5102
  137SAPE  H16Y14948   1.191   4.101   8.876  1.1980  1.0128  3.0906
  137SAPE  C31714949   1.266   4.080   8.676 -0.0112  0.2782  0.6613
  137SAPE  H17X14950   1.170   4.027   8.659 -0.5808  1.0684  1.3190
  137SAPE  H17Y14951   1.350   4.023   8.631  0.4572  2.7020 -1.7872
  137SAPE  C31814952   1.254   4.225   8.621  0.6716  0.4559  0.0701
  137SAPE  H18X14953   1.187   4.269   8.698  0.6992 -1.6138  1.3554
  137SAPE  H18Y14954   1.222   4.230   8.515  1.7538 -2.4390 -0.4706
  137SAPE  H18Z14955   1.346   4.287   8.626  0.1004  1.4311 -0.9623
  138SAPE     N14956   6.431   5.157  10.777  0.3635  0.0277  0.0133
  138SAPE   HN114957   6.379   5.204  10.701 -1.4129 -0.1754  1.0422
  138SAPE   HN214958   6.377   5.076  10.814  1.7223 -1.5461 -1.2889
  138SAPE   HN314959   6.441   5.233  10.847  3.9803 -1.2961  1.1656
  138SAPE   C1214960   6.559   5.106  10.720  0.1302  0.3286  0.0076
  138SAPE  H12A14961   6.534   5.055  10.625  0.6116  3.0149 -1.6866
  138SAPE  H12B14962   6.586   5.019  10.783 -0.8043 -0.3557 -0.5180
  138SAPE   C1114963   6.670   5.209  10.716 -0.2871 -0.8819  0.3080
  138SAPE  H11A14964   6.753   5.162  10.658  0.5662 -0.1194  0.8805
  138SAPE  H11B14965   6.700   5.220  10.822  1.0233 -4.0359  0.3692
  138SAPE     P14966   6.718   5.461  10.659  0.1449  0.3842 -0.0691
  138SAPE   O1314967   6.665   5.569  10.574 -0.3952  0.1654 -0.0282
  138SAPE   O1414968   6.730   5.509  10.800  0.3111  0.9861  0.1479
  138SAPE   O1214969   6.627   5.333  10.654 -0.4456  0.1268  0.0954
  138SAPE   O1114970   6.862   5.416  10.604 -0.0346 -0.2420 -0.3234
  138SAPE    C114971   6.890   5.406  10.471 -0.7005  0.1071  0.2686
  138SAPE    HA14972   6.967   5.328  10.454 -1.3106 -0.5983  0.6874
  138SAPE    HB14973   6.801   5.388  10.406 -0.7547  1.1782  0.0148
  138SAPE    C214974   6.952   5.540  10.420  0.1292  0.0302  0.1454
  138SAPE    HS14975   6.867   5.598  10.379  0.4136  1.1919  1.1491
  138SAPE   O2114976   7.043   5.516  10.318 -0.5356  0.2992  0.9351
  138SAPE   C2114977   6.991   5.493  10.201 -0.1968  0.1944 -0.2379
  138SAPE   O2214978   6.882   5.533  10.161 -0.1360 -0.0530 -1.1892
  138SAPE   C2214979   7.098   5.431  10.113 -0.1521 -0.1849 -0.2801
  138SAPE   H2R14980   7.186   5.496  10.095  0.3246 -0.9036 -0.5843
  138SAPE   H2S14981   7.150   5.342  10.154  2.6180  0.6967 -1.6892
  138SAPE    C314982   7.013   5.628  10.533 -0.1180 -0.0499  0.0863
  138SAPE    HX14983   7.090   5.573  10.591  0.7795  1.7630  0.7066
  138SAPE    HY14984   6.931   5.650  10.604  1.8806 -0.0362  2.4998
  138SAPE   O3114985   7.068   5.753  10.482  0.4150 -0.0099  0.0022
  138SAPE   C3114986   7.126   5.825  10.575 -0.0447  0.3704 -0.2345
  138SAPE   O3214987   7.135   5.793  10.693 -0.5245 -0.0000 -0.7391
  138SAPE   C3214988   7.192   5.948  10.516  0.0228 -0.9360 -0.4663
  138SAPE   H2X14989   7.206   6.017  10.602 -1.1640  0.1870 -1.1365
  138SAPE   H2Y14990   7.116   6.001  10.454 -0.0957 -0.9896 -0.3681
  138SAPE   C2314991   7.044   5.395   9.974 -0.2262 -0.1883 -0.0088
  138SAPE   H3R14992   6.997   5.486   9.930  1.2301 -0.2186 -1.7385
  138SAPE   H3S14993   6.974   5.311   9.993  2.4827 -2.4212  0.7010
  138SAPE   C2414994   7.154   5.343   9.872 -0.3250  0.4131 -0.4557
  138SAPE   H4R14995   7.165   5.233   9.885  0.2967  0.5173 -0.0758
  138SAPE   H4S14996   7.252   5.383   9.903  1.0533 -2.9124 -0.0698
  138SAPE   C2514997   7.124   5.371   9.729  0.3737  0.5529 -0.1222
  138SAPE   H5R14998   7.113   5.480   9.713 -0.3742  0.5729  0.4641
  138SAPE   C2614999   7.109   5.290   9.619 -0.5800  0.0309 -0.4399
  138SAPE   H6R15000   7.098   5.344   9.524  1.2005  2.8287  0.8202
  138SAPE   C2715001   7.120   5.136   9.630  1.1224 -0.5256 -0.4128
  138SAPE   H7R15002   7.109   5.108   9.737 -1.8862  0.4678 -0.3668
  138SAPE   H7S15003   7.222   5.102   9.605  1.6083  0.2574  0.4618
  138SAPE   C2815004   7.026   5.050   9.552  0.0557  0.6837 -0.0121
  138SAPE   H8R15005   6.928   5.035   9.599 -0.1416  0.0043 -0.6271
  138SAPE   C2915006   7.057   5.005   9.430  0.6569 -0.0204 -0.0907
  138SAPE   H9R15007   6.971   4.955   9.383 -0.4257  1.6483  0.0478
  138SAPE  C21015008   7.183   5.024   9.352 -0.4377 -0.0846  0.0996
  138SAPE  H10R15009   7.263   4.968   9.405  1.3401  0.8966 -1.4562
  138SAPE  H10S15010   7.211   5.132   9.356  1.2078 -0.3574 -2.3199
  138SAPE  C21115011   7.177   4.982   9.205  0.6527  0.2911  0.7118
  138SAPE  H11R15012   7.171   4.873   9.191 -0.3300  0.5324 -1.0321
  138SAPE  C21215013   7.208   5.062   9.100 -0.3698  0.0557  0.4551
  138SAPE  H12R15014   7.206   5.013   9.001  0.2801 -0.4403  0.6752
  138SAPE  C21315015   7.259   5.205   9.103  0.3480  0.4361  0.0827
  138SAPE  H13R15016   7.306   5.220   9.203 -1.3696 -0.0149  1.0013
  138SAPE  H13S15017   7.176   5.278   9.111  1.5827  1.9859 -0.7733
  138SAPE  C21415018   7.362   5.243   9.004 -0.5021 -0.7121  0.5716
  138SAPE  H14R15019   7.466   5.220   9.033  0.4815  0.7265 -1.5421
  138SAPE  C21515020   7.338   5.304   8.883  0.4630 -0.2843  0.2959
  138SAPE  H15R15021   7.427   5.329   8.824  0.9789 -3.2519 -0.3437
  138SAPE  C21615022   7.196   5.326   8.826 -0.3272 -0.0560  0.0242
  138SAPE  H16R15023   7.148   5.417   8.867  0.7645  1.5424 -2.0442
  138SAPE  H16S15024   7.139   5.234   8.850 -1.0489  0.1925 -0.6990
  138SAPE  C21715025   7.168   5.344   8.671 -0.4076  0.0166 -0.2734
  138SAPE  H17R15026   7.236   5.274   8.618  1.1639  0.9829  0.4058
  138SAPE  H17S15027   7.206   5.445   8.644 -1.2147  0.5590  0.5424
  138SAPE  C21815028   7.019   5.324   8.641  0.4229  1.0979  0.0126
  138SAPE  H18R15029   6.977   5.257   8.718  3.8606 -1.2748  0.0748
  138SAPE  H18S15030   7.017   5.269   8.544  0.2500  0.5910  0.3006
  138SAPE  C21915031   6.938   5.449   8.624  0.1546  0.2680 -0.3273
  138SAPE  H19R15032   6.989   5.517   8.553  0.1886  0.2486 -0.3223
  138SAPE  H19S15033   6.937   5.491   8.727 -2.8819  1.2809 -0.6881
  138SAPE  C22015034   6.795   5.425   8.590 -0.1315 -0.2534  0.4286
  138SAPE  H20R15035   6.803   5.375   8.491  2.2246  1.0061 -0.1060
  138SAPE  H20S15036   6.745   5.522   8.571  2.4451  1.5010  1.9669
  138SAPE  H20T15037   6.729   5.362   8.654 -2.3086  0.9298 -0.5341
  138SAPE   C3315038   7.324   5.918  10.450  0.0819 -0.0020  0.7620
  138SAPE   H3X15039   7.370   5.834  10.507 -0.7432 -0.4698  0.7560
  138SAPE   H3Y15040   7.393   6.004  10.440  0.5879 -0.6114 -2.0255
  138SAPE   C3415041   7.293   5.860  10.304  0.2999 -0.2474 -0.3096
  138SAPE   H4X15042   7.239   5.944  10.256  0.7105  0.3885  0.3360
  138SAPE   H4Y15043   7.219   5.777  10.310 -1.0179  0.9422  0.4266
  138SAPE   C3515044   7.404   5.809  10.219 -0.1029 -0.2047  0.3092
  138SAPE   H5X15045   7.457   5.723  10.267  0.4040  0.9762  1.9425
  138SAPE   H5Y15046   7.477   5.892  10.207 -0.7442  0.2588 -0.4288
  138SAPE   C3615047   7.371   5.755  10.083 -0.0149  0.0547 -0.1050
  138SAPE   H6X15048   7.337   5.840  10.022  1.8677  0.7224 -0.2904
  138SAPE   H6Y15049   7.281   5.691  10.094  1.4611 -2.4910 -1.6348
  138SAPE   C3715050   7.480   5.666  10.019 -0.4169  0.0850  0.2477
  138SAPE   H7X15051   7.504   5.577  10.081 -0.3655  0.8340  1.3433
  138SAPE   H7Y15052   7.577   5.720  10.024  0.3618 -1.3743  2.7532
  138SAPE   C3815053   7.439   5.622   9.873 -0.9666  0.9967  0.0832
  138SAPE   H8X15054   7.446   5.708   9.803 -2.5156  1.7816  0.8440
  138SAPE   H8Y15055   7.331   5.601   9.860 -0.8618  1.1167 -1.1321
  138SAPE   C3915056   7.515   5.493   9.821 -0.1183  0.1723 -0.1062
  138SAPE   H9X15057   7.468   5.406   9.871  0.1364 -0.0582 -0.2666
  138SAPE   H9Y15058   7.618   5.494   9.864 -0.1966 -0.5568  0.1112
  138SAPE  C31015059   7.518   5.472   9.668  0.3759 -0.9626  0.4379
  138SAPE  H10X15060   7.417   5.460   9.622 -0.1851 -0.0387  1.3792
  138SAPE  H10Y15061   7.566   5.374   9.647 -0.1567 -1.0110 -0.6681
  138SAPE  C31115062   7.586   5.583   9.592  0.4370  0.1807  0.1430
  138SAPE  H11X15063   7.691   5.601   9.625 -0.0459  1.6850  0.9705
  138SAPE  H11Y15064   7.523   5.671   9.617 -0.8624 -0.9281  0.9059
  138SAPE  C31215065   7.596   5.555   9.439  0.4213  0.0978  0.2396
  138SAPE  H12X15066   7.646   5.456   9.434 -1.9550 -1.3502  2.3303
  138SAPE  H12Y15067   7.649   5.638   9.389 -3.8931  3.1772  0.1667
  138SAPE  C31315068   7.457   5.552   9.369 -0.1768 -0.1066 -0.2052
  138SAPE  H13X15069   7.387   5.474   9.406  0.2277  0.0286  0.9051
  138SAPE  H13Y15070   7.463   5.516   9.264  0.1788 -3.1152  0.7412
  138SAPE  C31415071   7.397   5.696   9.373 -0.3970 -0.4117  0.2068
  138SAPE  H14X15072   7.484   5.758   9.342 -1.5505  0.6716 -0.9516
  138SAPE  H14Y15073   7.369   5.722   9.478 -2.6545 -1.1927 -0.1613
  138SAPE  C31515074   7.277   5.705   9.273  0.0432  0.2230  0.4855
  138SAPE  H15X15075   7.236   5.808   9.278  1.2524  0.6975  1.0198
  138SAPE  H15Y15076   7.198   5.633   9.303  0.4771  0.2033  1.6025
  138SAPE  C31615077   7.304   5.666   9.123  0.2020 -0.0391  0.3803
  138SAPE  H16X15078   7.330   5.558   9.126  1.8473  0.2435 -1.7096
  138SAPE  H16Y15079   7.398   5.719   9.097  0.0586 -0.0880 -0.2505
  138SAPE  C31715080   7.220   5.715   9.004  0.0493 -0.5782  0.0947
  138SAPE  H17X15081   7.113   5.688   9.021 -0.1564 -0.3912 -0.8519
  138SAPE  H17Y15082   7.239   5.652   8.914  1.2823  2.5815 -2.0470
  138SAPE  C31815083   7.233   5.864   8.968 -0.3499 -0.2325  0.4751
  138SAPE  H18X15084   7.229   5.932   9.056  0.1966  2.5832 -1.5234
  138SAPE  H18Y15085   7.150   5.899   8.903  0.6867 -0.8739 -1.2662
  138SAPE  H18Z15086   7.335   5.875   8.927 -0.5889 -3.9468 -1.5444
  139SAPE     N15087   4.883   3.531  10.548  0.5515 -0.4317  0.2134
  139SAPE   HN115088   4.786   3.516  10.516  0.4659 -2.3174  1.2105
  139SAPE   HN215089   4.914   3.607  10.484 -0.5727  0.1772  0.3808
  139SAPE   HN315090   4.933   3.440  10.539 -0.9797 -1.2367 -0.4318
  139SAPE   C1215091   4.881   3.574  10.691  0.4482 -0.6130  0.1148
  139SAPE  H12A15092   4.977   3.627  10.708  1.4562 -2.3988  0.2838
  139SAPE  H12B15093   4.887   3.485  10.758  0.5598  1.7929  3.5811
  139SAPE   C1115094   4.758   3.657  10.735 -0.1012  1.0971 -0.2068
  139SAPE  H11A15095   4.761   3.758  10.689 -0.4496  1.0606 -0.3129
  139SAPE  H11B15096   4.771   3.689  10.841 -2.0711 -1.2040  0.8406
  139SAPE     P15097   4.498   3.645  10.715 -0.0185  0.6807  0.0573
  139SAPE   O1315098   4.416   3.558  10.626 -0.3613  0.1643  0.5080
  139SAPE   O1415099   4.440   3.669  10.848 -0.1289  0.1875  0.3974
  139SAPE   O1215100   4.642   3.576  10.719 -0.3603  0.1119  0.1271
  139SAPE   O1115101   4.527   3.787  10.648  0.1372 -0.2799 -0.6423
  139SAPE    C115102   4.439   3.843  10.553  0.0943  0.5176  0.4986
  139SAPE    HA15103   4.354   3.774  10.532  0.0586  0.4421  0.9005
  139SAPE    HB15104   4.386   3.931  10.593 -2.1390  0.0860 -1.2811
  139SAPE    C215105   4.516   3.877  10.425  0.0995 -0.2222  0.5933
  139SAPE    HS15106   4.615   3.922  10.451  1.2194 -2.0883 -0.2658
  139SAPE   O2115107   4.430   3.965  10.355 -0.1408 -0.1392  0.2750
  139SAPE   C2115108   4.484   4.058  10.288 -0.6877 -0.4135  0.2691
  139SAPE   O2215109   4.603   4.088  10.279  0.0357 -0.3793  0.2814
  139SAPE   C2215110   4.377   4.151  10.225  0.7571  0.3700 -0.1767
  139SAPE   H2R15111   4.283   4.094  10.216  1.0274 -0.1931  0.5487
  139SAPE   H2S15112   4.365   4.234  10.299  0.0243 -0.6740  0.9090
  139SAPE    C315113   4.543   3.743  10.353 -0.8692  0.5420 -0.0958
  139SAPE    HX15114   4.443   3.694  10.344 -0.1363 -0.9920 -0.3395
  139SAPE    HY15115   4.604   3.685  10.426  1.0255 -0.8037 -2.6048
  139SAPE   O3115116   4.604   3.751  10.218  0.2086  0.4224 -0.3163
  139SAPE   C3115117   4.741   3.740  10.225  0.1075  0.1835 -0.6075
  139SAPE   O3215118   4.814   3.708  10.319 -0.1391 -0.1909  1.2198
  139SAPE   C3215119   4.797   3.757  10.083 -0.4669  0.1446  0.1081
  139SAPE   H2X15120   4.736   3.829  10.025 -0.0449  0.3463 -0.0880
  139SAPE   H2Y15121   4.773   3.665  10.027 -1.2918  0.2779  0.2390
  139SAPE   C2315122   4.415   4.215  10.080  0.4926  0.1166 -0.4530
  139SAPE   H3R15123   4.523   4.239  10.067  0.9373 -1.5246 -0.0730
  139SAPE   H3S15124   4.357   4.309  10.082 -1.1249 -0.8196 -1.3713
  139SAPE   C2415125   4.362   4.129   9.969  0.3677 -0.0908 -0.0672
  139SAPE   H4R15126   4.387   4.184   9.876 -1.4581  0.2232 -0.4054
  139SAPE   H4S15127   4.251   4.124   9.961  0.4482 -2.1975 -0.5419
  139SAPE   C2515128   4.412   3.987   9.968 -0.1278 -0.3207 -0.4399
  139SAPE   H5R15129   4.391   3.928  10.058 -0.7044 -0.0425 -0.3910
  139SAPE   C2615130   4.482   3.926   9.868  1.0728  0.8815 -0.9078
  139SAPE   H6R15131   4.526   3.827   9.886 -2.4132 -0.6163  0.2617
  139SAPE   C2715132   4.515   3.985   9.736 -0.2974  0.0694 -0.3421
  139SAPE   H7R15133   4.466   4.084   9.722  0.8374  0.8024  0.6875
  139SAPE   H7S15134   4.469   3.928   9.652 -1.4579  1.9022 -0.9965
  139SAPE   C2815135   4.665   3.989   9.714  0.9411 -0.6108  0.1804
  139SAPE   H8R15136   4.715   4.074   9.763  1.5141 -0.7464 -0.1670
  139SAPE   C2915137   4.732   3.927   9.614  0.3678  0.1885 -0.0829
  139SAPE   H9R15138   4.841   3.938   9.612  0.6425 -2.1204  0.2808
  139SAPE  C21015139   4.679   3.834   9.507 -0.1369  0.1396 -0.2389
  139SAPE  H10R15140   4.573   3.802   9.518 -0.5160  1.1781 -0.6812
  139SAPE  H10S15141   4.735   3.739   9.516  1.1465  0.8611 -0.2663
  139SAPE  C21115142   4.707   3.895   9.370 -0.2970  0.4402 -0.1445
  139SAPE  H11R15143   4.649   3.986   9.351 -1.0989  0.2459  1.2483
  139SAPE  C21215144   4.780   3.834   9.268  0.3913  0.6498  0.4228
  139SAPE  H12R15145   4.791   3.875   9.166  0.5849  0.6624  0.4478
  139SAPE  C21315146   4.858   3.706   9.267  0.0953  0.0408 -0.0486
  139SAPE  H13R15147   4.821   3.648   9.180  0.2003 -1.6220  0.9592
  139SAPE  H13S15148   4.825   3.641   9.352 -1.9010  1.1671  0.1240
  139SAPE  C21415149   5.008   3.726   9.267 -0.1722  0.1249  0.3649
  139SAPE  H14R15150   5.064   3.708   9.360  0.4511  0.3999  0.0457
  139SAPE  C21515151   5.083   3.761   9.158  0.0780  0.5505  0.3867
  139SAPE  H15R15152   5.192   3.751   9.174  0.1580 -0.3567 -0.6568
  139SAPE  C21615153   5.026   3.776   9.024 -0.3753 -0.3503 -0.8159
  139SAPE  H16R15154   5.047   3.879   8.991 -0.7668  0.1352  0.3687
  139SAPE  H16S15155   4.916   3.756   9.021 -0.3608 -0.4312 -0.8188
  139SAPE  C21715156   5.091   3.689   8.926  0.2460  0.2545  0.4012
  139SAPE  H17R15157   5.080   3.581   8.950 -0.8613  0.2146 -0.2421
  139SAPE  H17S15158   5.199   3.714   8.932  0.3033 -0.0334  0.6362
  139SAPE  C21815159   5.040   3.718   8.784  0.0581  0.3774 -0.3621
  139SAPE  H18R15160   5.018   3.827   8.785  0.4873  0.4768  1.5490
  139SAPE  H18S15161   4.948   3.657   8.765 -0.3768  1.0234 -0.3714
  139SAPE  C21915162   5.142   3.699   8.672  0.3705 -0.1883  0.4935
  139SAPE  H19R15163   5.182   3.599   8.699  0.9665 -1.0315 -2.9246
  139SAPE  H19S15164   5.231   3.766   8.672  1.4687 -1.5195 -1.9734
  139SAPE  C22015165   5.080   3.727   8.533 -1.0347  0.1701 -0.1315
  139SAPE  H20R15166   4.996   3.659   8.508 -1.3300  1.5591 -3.4057
  139SAPE  H20S15167   5.162   3.714   8.460 -1.0589  0.9947 -0.3226
  139SAPE  H20T15168   5.045   3.831   8.516 -0.1868  0.6487  0.9751
  139SAPE   C3315169   4.946   3.779  10.065  0.3344 -0.0500 -0.4654
  139SAPE   H3X15170   5.005   3.703  10.120 -0.5250  1.0903  2.2061
  139SAPE   H3Y15171   4.987   3.876  10.100  0.8372 -0.6396  0.6237
  139SAPE   C3415172   4.992   3.759   9.916 -0.2510 -0.3493  0.3040
  139SAPE   H4X15173   4.928   3.824   9.853  1.7733 -0.4708 -1.9935
  139SAPE   H4Y15174   4.983   3.651   9.896 -1.4243  0.0510 -1.5833
  139SAPE   C3515175   5.139   3.802   9.890  0.1948 -0.4117  0.7138
  139SAPE   H5X15176   5.218   3.749   9.947  2.6864  1.6275 -0.6221
  139SAPE   H5Y15177   5.138   3.909   9.920  0.6473  0.2401 -1.4303
  139SAPE   C3615178   5.186   3.792   9.744  0.7174  0.6662 -0.5408
  139SAPE   H6X15179   5.104   3.828   9.677  2.5803  2.2821 -2.0858
  139SAPE   H6Y15180   5.211   3.685   9.730  2.0897  0.6188  1.7631
  139SAPE   C3715181   5.301   3.891   9.712 -0.0792 -0.3348  0.2836
  139SAPE   H7X15182   5.381   3.876   9.788 -0.0517 -2.5454 -0.1234
  139SAPE   H7Y15183   5.258   3.993   9.724 -0.3236 -0.2323 -1.2784
  139SAPE   C3815184   5.367   3.877   9.572 -0.1501  0.4897 -0.0783
  139SAPE   H8X15185   5.447   3.954   9.575 -0.1890  0.5055  0.6466
  139SAPE   H8Y15186   5.287   3.912   9.503 -2.6143 -2.4623  1.0657
  139SAPE   C3915187   5.428   3.738   9.526  0.2965  0.5181 -0.3834
  139SAPE   H9X15188   5.343   3.674   9.557 -0.1922  2.0553  1.6888
  139SAPE   H9Y15189   5.516   3.718   9.592 -0.4937 -0.6954  0.3325
  139SAPE  C31015190   5.465   3.725   9.379  0.2035 -0.3353  0.3217
  139SAPE  H10X15191   5.542   3.801   9.356 -0.1309  0.7200  2.4723
  139SAPE  H10Y15192   5.378   3.753   9.316 -1.2518 -2.4198  1.2717
  139SAPE  C31115193   5.517   3.581   9.338  1.3488  0.1052  0.7111
  139SAPE  H11X15194   5.507   3.573   9.227 -0.8312 -0.3833  0.8913
  139SAPE  H11Y15195   5.462   3.497   9.386  0.0941  0.2580 -0.3755
  139SAPE  C31215196   5.665   3.555   9.380 -0.6142  0.5500  0.0299
  139SAPE  H12X15197   5.657   3.560   9.490  0.3375  2.0000  0.0502
  139SAPE  H12Y15198   5.728   3.637   9.339  0.0175 -0.5320 -1.2825
  139SAPE  C31315199   5.716   3.417   9.330 -0.4597 -0.1656  0.2781
  139SAPE  H13X15200   5.737   3.432   9.222 -0.3521 -0.9650  0.1799
  139SAPE  H13Y15201   5.648   3.332   9.351  0.7401 -1.4883 -0.9548
  139SAPE  C31415202   5.853   3.374   9.401 -0.1835 -0.4969 -0.3861
  139SAPE  H14X15203   5.840   3.355   9.510 -1.4134 -0.7427 -0.5602
  139SAPE  H14Y15204   5.920   3.463   9.408 -1.3989  0.3239  2.7232
  139SAPE  C31515205   5.932   3.257   9.337  0.5502 -0.1444 -0.5955
  139SAPE  H15X15206   6.008   3.215   9.406  0.6909 -1.0693 -1.2854
  139SAPE  H15Y15207   5.998   3.298   9.257 -0.1996  3.3954  0.3949
  139SAPE  C31615208   5.843   3.142   9.286 -1.2606  0.5763  1.1335
  139SAPE  H16X15209   5.785   3.105   9.373 -2.0779 -1.5812 -0.2477
  139SAPE  H16Y15210   5.769   3.184   9.214  1.2379 -1.1097 -2.7904
  139SAPE  C31715211   5.924   3.030   9.216  0.4712  0.4955 -0.2468
  139SAPE  H17X15212   5.871   2.933   9.226 -1.1719  1.4057  0.2050
  139SAPE  H17Y15213   6.021   3.020   9.270 -0.6002  0.6034  1.8179
  139SAPE  C31815214   5.934   3.068   9.068 -0.4527 -0.1538 -0.1742
  139SAPE  H18X15215   5.837   3.046   9.020 -0.2342  0.3135 -0.8467
  139SAPE  H18Y15216   6.017   3.007   9.027 -0.1499  0.2887 -0.2296
  139SAPE  H18Z15217   5.981   3.168   9.053  0.2301  0.2108  3.4726
  140SAPE     N15218   2.089   0.070  10.811 -0.2150 -0.3712 -0.1766
  140SAPE   HN115219   2.183   0.074  10.854 -0.7732 -0.5106  1.1234
  140SAPE   HN215220   2.053   0.167  10.801  1.3468  0.2037 -0.4082
  140SAPE   HN315221   2.023   0.020  10.874  0.7406  0.6109  1.6681
  140SAPE   C1215222   2.094  -0.004  10.676 -0.3765 -0.5342 -0.4189
  140SAPE  H12A15223   2.125   0.069  10.598  0.2036 -0.9613 -0.5989
  140SAPE  H12B15224   1.994  -0.038  10.643 -0.8091 -0.4433  0.7562
  140SAPE   C1115225   2.197  -0.114  10.668  0.1082 -0.6262  0.0795
  140SAPE  H11A15226   2.294  -0.062  10.682 -0.2453  0.2779 -0.7387
  140SAPE  H11B15227   2.190  -0.154  10.564  1.5613 -0.5901 -0.0527
  140SAPE     P15228   2.315  -0.262  10.855  0.0739 -0.2155 -0.4955
  140SAPE   O1315229   2.403  -0.141  10.870  0.6135  0.2348  0.8939
  140SAPE   O1415230   2.271  -0.318  10.984 -0.1230 -0.2740  0.7324
  140SAPE   O1215231   2.188  -0.219  10.766  0.2838  0.1128  0.0161
  140SAPE   O1115232   2.388  -0.378  10.778  0.4488  0.2426 -0.2030
  140SAPE    C115233   2.325  -0.480  10.696 -0.5459 -0.3811 -0.0655
  140SAPE    HA15234   2.320  -0.571  10.759  1.3361  0.8374  2.0104
  140SAPE    HB15235   2.221  -0.454  10.666 -0.2339  0.3303 -0.5580
  140SAPE    C215236   2.389  -0.521  10.563  0.2021  0.1160  0.4552
  140SAPE    HS15237   2.487  -0.562  10.596  0.3957  0.9983  1.0032
  140SAPE   O2115238   2.404  -0.410  10.470  0.2701 -0.6722 -0.1150
  140SAPE   C2115239   2.512  -0.340  10.481  0.4718 -0.2294 -0.1182
  140SAPE   O2215240   2.615  -0.371  10.535 -0.0511  0.2494 -0.2230
  140SAPE   C2215241   2.489  -0.218  10.391  0.1649 -0.4938  0.2402
  140SAPE   H2R15242   2.493  -0.258  10.287 -0.0986  1.6868 -0.6817
  140SAPE   H2S15243   2.382  -0.190  10.397 -0.2919 -1.8796 -0.8625
  140SAPE    C315244   2.324  -0.640  10.491  0.7670 -0.0450  1.0031
  140SAPE    HX15245   2.218  -0.611  10.474  0.2547 -1.4178  1.6389
  140SAPE    HY15246   2.313  -0.726  10.561  0.3484  0.5818  1.7100
  140SAPE   O3115247   2.387  -0.677  10.361  0.4015 -0.2868 -0.2159
  140SAPE   C3115248   2.425  -0.800  10.347 -0.0771  0.1555  0.2068
  140SAPE   O3215249   2.380  -0.891  10.408 -0.7760 -0.1688  0.4310
  140SAPE   C3215250   2.531  -0.797  10.240 -0.0356 -0.8428  0.3518
  140SAPE   H2X15251   2.628  -0.778  10.291  0.5770  0.9452 -1.3224
  140SAPE   H2Y15252   2.508  -0.715  10.168 -0.0176  0.6802  2.0309
  140SAPE   C2315253   2.594  -0.099  10.407 -0.0452  0.4917 -0.1159
  140SAPE   H3R15254   2.694  -0.140  10.382 -0.2338 -0.8949  1.2809
  140SAPE   H3S15255   2.587  -0.074  10.515 -2.0852 -2.5473  0.5812
  140SAPE   C2415256   2.581   0.016  10.305  0.3891 -0.0673 -0.0012
  140SAPE   H4R15257   2.620  -0.026  10.210  1.2303  1.6128 -0.4496
  140SAPE   H4S15258   2.649   0.101  10.328  0.0984  0.7162 -1.8305
  140SAPE   C2515259   2.439   0.068  10.308  0.0974 -0.5397 -0.1945
  140SAPE   H5R15260   2.403   0.115  10.401 -1.5291 -0.5913 -0.7599
  140SAPE   C2615261   2.349   0.066  10.214  0.7302  0.3121  0.1789
  140SAPE   H6R15262   2.246   0.100  10.235 -0.7415 -1.9471 -2.6699
  140SAPE   C2715263   2.360   0.018  10.073 -0.2611  0.6139  0.3138
  140SAPE   H7R15264   2.258   0.004  10.031 -0.2784 -1.3036  0.8919
  140SAPE   H7S15265   2.400  -0.086  10.077 -3.3417 -0.7366 -0.4025
  140SAPE   C2815266   2.453   0.096   9.984  0.4905 -0.0178 -0.2655
  140SAPE   H8R15267   2.516   0.163  10.044  2.8216 -3.0380  0.8969
  140SAPE   C2915268   2.464   0.094   9.846  0.1974  1.1146 -0.4653
  140SAPE   H9R15269   2.530   0.166   9.796  1.9739  0.9764  1.5334
  140SAPE  C21015270   2.382   0.004   9.751 -0.3608 -0.2384 -0.8105
  140SAPE  H10R15271   2.296   0.064   9.715  0.2090  0.5785 -0.8294
  140SAPE  H10S15272   2.342  -0.083   9.807  1.2588  0.1351  1.0400
  140SAPE  C21115273   2.464  -0.059   9.640 -0.2611 -0.1770 -0.1035
  140SAPE  H11R15274   2.512  -0.154   9.668 -1.0076 -0.1755  1.2738
  140SAPE  C21215275   2.478  -0.017   9.509 -0.8376  0.0477  0.1066
  140SAPE  H12R15276   2.529  -0.077   9.432  1.6891  1.6000  0.4760
  140SAPE  C21315277   2.409   0.104   9.443 -0.3240  0.4239  0.2825
  140SAPE  H13R15278   2.354   0.157   9.524  0.3879 -0.1759  1.1796
  140SAPE  H13S15279   2.341   0.062   9.366  0.0960 -0.5010  0.4015
  140SAPE  C21415280   2.497   0.205   9.379 -0.2009 -0.5172 -0.2741
  140SAPE  H14R15281   2.579   0.241   9.444  0.1238  1.4006 -1.6514
  140SAPE  C21515282   2.481   0.258   9.261  0.3598 -0.3189  0.3747
  140SAPE  H15R15283   2.550   0.335   9.225 -0.8932  0.6737 -0.0039
  140SAPE  C21615284   2.379   0.227   9.151 -0.1266 -0.2081 -0.5594
  140SAPE  H16R15285   2.300   0.305   9.142 -0.5116 -0.6426 -1.0770
  140SAPE  H16S15286   2.318   0.136   9.175  0.1386 -0.4213 -0.6874
  140SAPE  C21715287   2.446   0.199   9.011  0.2000  0.0656  0.5496
  140SAPE  H17R15288   2.494   0.099   9.010  0.4886  0.1687 -1.8576
  140SAPE  H17S15289   2.524   0.275   8.991 -0.1920  0.5414  0.7994
  140SAPE  C21815290   2.330   0.187   8.907  0.7141 -0.5267  0.5734
  140SAPE  H18R15291   2.271   0.280   8.894 -0.6060 -1.3794  0.1819
  140SAPE  H18S15292   2.259   0.112   8.948  0.1911  0.3378  1.2909
  140SAPE  C21915293   2.360   0.132   8.768 -0.4162 -0.0799  0.0878
  140SAPE  H19R15294   2.386   0.024   8.779  3.4503  0.5894 -0.9113
  140SAPE  H19S15295   2.446   0.173   8.712 -2.1951  2.5057 -0.9166
  140SAPE  C22015296   2.228   0.150   8.680 -0.5418 -0.4573  1.4077
  140SAPE  H20R15297   2.196   0.256   8.689  0.6832  0.3557 -2.1343
  140SAPE  H20S15298   2.145   0.093   8.726 -1.4592  0.9120  1.4935
  140SAPE  H20T15299   2.245   0.124   8.574 -2.0589 -0.4176  1.1385
  140SAPE   C3315300   2.541  -0.932  10.163  0.2520 -0.0306 -0.6885
  140SAPE   H3X15301   2.443  -0.979  10.140  0.9303 -3.2546  2.2406
  140SAPE   H3Y15302   2.574  -0.994  10.249 -0.1336 -0.4751 -0.8569
  140SAPE   C3415303   2.642  -0.941  10.052  0.1608 -0.1940 -0.2885
  140SAPE   H4X15304   2.675  -1.046  10.041 -0.8195 -0.6305  0.6699
  140SAPE   H4Y15305   2.719  -0.880  10.104 -1.5618  0.9659  1.0548
  140SAPE   C3515306   2.583  -0.902   9.919 -0.2273 -0.6285 -0.7223
  140SAPE   H5X15307   2.531  -0.805   9.932 -1.1504 -1.4631  3.4054
  140SAPE   H5Y15308   2.506  -0.981   9.906 -0.0267 -1.2405  1.3758
  140SAPE   C3615309   2.678  -0.909   9.797 -0.2231 -0.0709  0.4651
  140SAPE   H6X15310   2.736  -1.003   9.802 -2.8832 -2.0046 -1.8029
  140SAPE   H6Y15311   2.750  -0.824   9.804 -1.3481  0.8989  0.4764
  140SAPE   C3715312   2.608  -0.891   9.665 -0.8134 -0.2420  0.4548
  140SAPE   H7X15313   2.542  -0.802   9.656 -0.2273  1.0558  5.5928
  140SAPE   H7Y15314   2.552  -0.984   9.642  0.4460 -0.3167 -2.7422
  140SAPE   C3815315   2.715  -0.895   9.548 -0.3718  0.2208 -0.4079
  140SAPE   H8X15316   2.806  -0.957   9.564  0.2763  0.8625 -1.4991
  140SAPE   H8Y15317   2.754  -0.793   9.529 -0.4847  0.5847  1.1481
  140SAPE   C3915318   2.647  -0.949   9.422 -0.0944 -0.7421 -0.3417
  140SAPE   H9X15319   2.556  -0.888   9.405 -0.2927 -0.3504  1.8081
  140SAPE   H9Y15320   2.629  -1.056   9.444  0.9753 -0.8033  0.3231
  140SAPE  C31015321   2.722  -0.954   9.291 -0.0026  0.1603  0.4022
  140SAPE  H10X15322   2.644  -0.983   9.218 -1.6814 -0.6387  2.4179
  140SAPE  H10Y15323   2.803  -1.030   9.292  1.0468  1.2525  1.8450
  140SAPE  C31115324   2.771  -0.817   9.244  0.1120  0.4507 -0.1541
  140SAPE  H11X15325   2.867  -0.798   9.297 -1.0500  1.6425  1.6373
  140SAPE  H11Y15326   2.692  -0.744   9.272 -1.1178 -0.7563 -0.3886
  140SAPE  C31215327   2.803  -0.795   9.092  0.9428 -0.7547  0.5964
  140SAPE  H12X15328   2.884  -0.868   9.072  1.2835 -0.4572  0.8846
  140SAPE  H12Y15329   2.840  -0.692   9.074 -0.1895 -0.0085  2.1915
  140SAPE  C31315330   2.690  -0.836   9.006 -0.1079 -0.1098  0.1906
  140SAPE  H13X15331   2.607  -0.765   9.026 -1.7928 -0.9994 -2.9907
  140SAPE  H13Y15332   2.654  -0.936   9.038  0.1234 -0.1878  0.2040
  140SAPE  C31415333   2.731  -0.843   8.857 -0.8375  0.5305 -0.0265
  140SAPE  H14X15334   2.796  -0.933   8.851 -1.6776 -0.1928  1.3587
  140SAPE  H14Y15335   2.807  -0.764   8.838  2.4184 -2.0149  1.3250
  140SAPE  C31515336   2.617  -0.854   8.755 -0.0042  0.1875  0.4958
  140SAPE  H15X15337   2.549  -0.766   8.747 -2.0865 -1.2220  1.7346
  140SAPE  H15Y15338   2.549  -0.933   8.793  0.6071 -1.0647 -0.9552
  140SAPE  C31615339   2.658  -0.894   8.610  0.2185 -0.1498  0.2599
  140SAPE  H16X15340   2.573  -0.953   8.571  0.7905 -0.0933 -1.1406
  140SAPE  H16Y15341   2.744  -0.964   8.617  1.1532  1.0583  1.4638
  140SAPE  C31715342   2.689  -0.778   8.512  0.9724  0.2841  0.1519
  140SAPE  H17X15343   2.755  -0.803   8.426  1.1384  0.9626  0.0773
  140SAPE  H17Y15344   2.731  -0.694   8.571 -1.4676  1.2005  0.7055
  140SAPE  C31815345   2.565  -0.726   8.440 -0.3843 -0.3558 -0.3534
  140SAPE  H18X15346   2.504  -0.795   8.377 -1.6714 -0.2334  0.7102
  140SAPE  H18Y15347   2.606  -0.647   8.374 -0.9897  1.1380  1.0080
  140SAPE  H18Z15348   2.496  -0.684   8.517  0.5756  0.8199 -0.1093
  141SAPE     N15349   3.319   0.977  11.099  0.3537 -0.2220 -0.6197
  141SAPE   HN115350   3.231   0.956  11.151  0.4268  0.4149 -0.2311
  141SAPE   HN215351   3.360   0.885  11.075 -1.1217 -0.4335 -2.5515
  141SAPE   HN315352   3.379   1.036  11.160  0.1668  0.9844 -1.5689
  141SAPE   C1215353   3.300   1.051  10.973 -0.1591 -0.0457  0.3126
  141SAPE  H12A15354   3.389   1.028  10.912 -0.5536 -0.8706  0.0327
  141SAPE  H12B15355   3.292   1.155  11.013  0.0890 -1.2264  3.7625
  141SAPE   C1115356   3.173   1.001  10.907 -0.6209 -0.0319  0.3798
  141SAPE  H11A15357   3.138   1.065  10.822 -0.2592 -0.1174  0.1647
  141SAPE  H11B15358   3.088   1.015  10.977 -0.4443  0.7423  0.4515
  141SAPE     P15359   3.067   0.788  10.804  0.2676 -0.0778 -0.3964
  141SAPE   O1315360   3.085   0.640  10.817  0.3036 -0.1060 -0.2117
  141SAPE   O1415361   2.941   0.843  10.854 -0.0777 -0.7080 -0.0471
  141SAPE   O1215362   3.193   0.864  10.865  0.7096  0.1146 -0.1851
  141SAPE   O1115363   3.079   0.828  10.647 -0.4040 -0.3414  0.2867
  141SAPE    C115364   3.204   0.887  10.602 -0.9927 -0.1332  1.0995
  141SAPE    HA15365   3.216   0.992  10.635  1.9733  0.2744 -0.9142
  141SAPE    HB15366   3.297   0.841  10.642  0.1219  1.5923  0.5688
  141SAPE    C215367   3.211   0.880  10.447  0.5564  0.1350 -0.0264
  141SAPE    HS15368   3.300   0.933  10.408  1.1011  0.0770  1.0843
  141SAPE   O2115369   3.090   0.940  10.397 -0.0386 -0.0089  0.3543
  141SAPE   C2115370   3.084   1.076  10.382 -0.1662 -0.4014 -1.3289
  141SAPE   O2215371   3.153   1.152  10.449  0.7206  0.1395 -0.5326
  141SAPE   C2215372   2.964   1.108  10.291  0.5912  1.0255 -0.6416
  141SAPE   H2R15373   2.896   1.021  10.284  1.1891  0.5277 -0.3743
  141SAPE   H2S15374   2.912   1.192  10.342 -0.8597 -1.0320  1.4797
  141SAPE    C315375   3.212   0.733  10.385 -0.3290 -0.3011 -0.9222
  141SAPE    HX15376   3.120   0.682  10.418  0.2080 -0.7080 -0.0194
  141SAPE    HY15377   3.294   0.680  10.438 -0.7336  0.2100  0.2398
  141SAPE   O3115378   3.216   0.734  10.239 -0.1800  0.1673 -0.0324
  141SAPE   C3115379   3.338   0.696  10.185 -0.3861  0.1627  0.2225
  141SAPE   O3215380   3.442   0.675  10.249 -0.3377  0.1636  0.7713
  141SAPE   C3215381   3.329   0.716  10.039 -0.0740  0.1796  0.2308
  141SAPE   H2X15382   3.280   0.814  10.023 -3.6998 -1.4519  0.5397
  141SAPE   H2Y15383   3.260   0.641   9.996 -0.1338 -0.4384  1.3470
  141SAPE   C2315384   3.021   1.155  10.151  0.5588 -0.2591  0.4178
  141SAPE   H3R15385   3.097   1.234  10.167 -1.7048  1.9404  1.0541
  141SAPE   H3S15386   2.950   1.208  10.083 -0.8683 -1.9499  0.5270
  141SAPE   C2415387   3.082   1.049  10.071 -0.1019  0.5527  0.4139
  141SAPE   H4R15388   3.182   1.038  10.118 -0.6922 -1.6204  1.2866
  141SAPE   H4S15389   3.103   1.097   9.973 -2.5640  2.1051  0.5840
  141SAPE   C2515390   2.998   0.923  10.056  0.0870  0.5464 -0.3083
  141SAPE   H5R15391   2.975   0.875  10.152  2.0708  1.0679  0.4659
  141SAPE   C2615392   2.957   0.858   9.944 -0.5346  0.0981 -0.0132
  141SAPE   H6R15393   2.894   0.770   9.961 -1.4117  0.5133 -0.9897
  141SAPE   C2715394   2.995   0.898   9.806  0.3810 -0.2474  0.0434
  141SAPE   H7R15395   3.105   0.891   9.789  0.9289 -0.2778  3.1062
  141SAPE   H7S15396   2.964   1.005   9.803  0.5431 -0.1918  0.3165
  141SAPE   C2815397   2.918   0.821   9.700 -0.1787  0.5803 -0.1133
  141SAPE   H8R15398   2.823   0.774   9.728  0.0730 -1.1993 -1.9804
  141SAPE   C2915399   2.967   0.787   9.580  0.3342 -0.0388 -0.3536
  141SAPE   H9R15400   2.910   0.723   9.512  1.7431  0.4230 -2.0495
  141SAPE  C21015401   3.104   0.808   9.528  0.1317 -0.4620  0.4564
  141SAPE  H10R15402   3.183   0.795   9.605 -0.1333  0.1735  0.8455
  141SAPE  H10S15403   3.102   0.917   9.506  2.0822 -1.0461 -3.4827
  141SAPE  C21115404   3.140   0.732   9.404  0.6251  0.1461  1.3132
  141SAPE  H11R15405   3.075   0.646   9.386  1.1767 -0.3539  1.6742
  141SAPE  C21215406   3.229   0.767   9.308 -0.1081 -0.1746 -0.0260
  141SAPE  H12R15407   3.233   0.708   9.214 -1.5614 -0.9655  0.3869
  141SAPE  C21315408   3.322   0.882   9.307 -0.0307  0.6973  0.0228
  141SAPE  H13R15409   3.366   0.898   9.408  0.5592  0.7708 -0.2423
  141SAPE  H13S15410   3.269   0.975   9.277 -0.4196  0.9847  1.4976
  141SAPE  C21415411   3.443   0.846   9.216 -0.9053 -0.5216 -0.4279
  141SAPE  H14R15412   3.539   0.846   9.268 -0.4026  1.6820 -1.2200
  141SAPE  C21515413   3.448   0.853   9.079  0.3541 -0.2521 -0.3227
  141SAPE  H15R15414   3.546   0.831   9.032  0.7337 -0.3213  0.4932
  141SAPE  C21615415   3.334   0.891   8.988  0.9857 -0.0223  0.6840
  141SAPE  H16R15416   3.362   0.976   8.922 -0.0465  1.2733  1.8769
  141SAPE  H16S15417   3.255   0.928   9.056  1.8894 -0.9081  2.2690
  141SAPE  C21715418   3.267   0.779   8.901  0.4782 -0.1433  0.5722
  141SAPE  H17R15419   3.281   0.682   8.953  1.1628  0.5163  1.6724
  141SAPE  H17S15420   3.334   0.765   8.813  0.1049  0.3015  0.2089
  141SAPE  C21815421   3.125   0.818   8.846  0.0331  0.1550 -0.5559
  141SAPE  H18R15422   3.104   0.750   8.761  0.3403 -1.7373  0.8415
  141SAPE  H18S15423   3.130   0.920   8.802  1.4833  0.8021  0.9871
  141SAPE  C21915424   3.018   0.816   8.950 -0.4742 -0.0425 -0.5739
  141SAPE  H19R15425   2.924   0.840   8.896  0.4230  0.9720 -1.7472
  141SAPE  H19S15426   3.034   0.892   9.029  0.2878 -0.3986 -0.3772
  141SAPE  C22015427   2.993   0.681   9.018  0.6108  0.5511 -0.2357
  141SAPE  H20R15428   3.078   0.636   9.072 -0.1018 -1.7118 -0.8916
  141SAPE  H20S15429   2.971   0.604   8.941 -0.1133 -2.8165  3.0511
  141SAPE  H20T15430   2.905   0.695   9.085 -1.3099  3.3938 -3.0210
  141SAPE   C3315431   3.468   0.722   9.963  0.4169 -0.5113  0.1326
  141SAPE   H3X15432   3.500   0.616   9.955  2.1227 -0.0532  0.4708
  141SAPE   H3Y15433   3.543   0.775  10.026 -0.8789  1.6352 -0.0061
  141SAPE   C3415434   3.462   0.768   9.816  0.8219  0.2673 -0.5633
  141SAPE   H4X15435   3.393   0.706   9.756  1.4261  0.7348 -1.7780
  141SAPE   H4Y15436   3.562   0.746   9.773  0.4996  0.3571 -1.3695
  141SAPE   C3515437   3.416   0.917   9.806 -0.3761  0.6414 -0.1122
  141SAPE   H5X15438   3.316   0.933   9.851  0.1775  3.1513  0.4181
  141SAPE   H5Y15439   3.395   0.933   9.698 -1.3160  1.5570  0.1876
  141SAPE   C3615440   3.518   1.025   9.860 -0.3376 -0.1877 -0.3814
  141SAPE   H6X15441   3.521   1.019   9.971  0.5110 -3.2940 -0.4654
  141SAPE   H6Y15442   3.468   1.121   9.835 -1.4581  0.1211  2.6072
  141SAPE   C3715443   3.658   1.033   9.787 -0.5063 -0.4396  0.0268
  141SAPE   H7X15444   3.709   0.934   9.785  0.5834  0.0145  2.2630
  141SAPE   H7Y15445   3.717   1.110   9.840 -0.3525 -1.5137  1.4943
  141SAPE   C3815446   3.659   1.088   9.643 -0.2231 -0.2845  0.2141
  141SAPE   H8X15447   3.597   1.179   9.631  2.6130  2.2021  2.6322
  141SAPE   H8Y15448   3.605   1.015   9.579 -0.1815 -0.2779  0.1717
  141SAPE   C3915449   3.803   1.109   9.585  0.5179 -0.3227 -0.2512
  141SAPE   H9X15450   3.852   1.010   9.573  0.4993 -0.7078  2.1901
  141SAPE   H9Y15451   3.853   1.160   9.670  1.7652 -1.2153 -0.4246
  141SAPE  C31015452   3.797   1.194   9.460 -0.0131  0.7243  0.0328
  141SAPE  H10X15453   3.902   1.220   9.434 -1.0307  2.2864 -3.1433
  141SAPE  H10Y15454   3.748   1.286   9.497 -1.8553 -0.9434  2.0261
  141SAPE  C31115455   3.725   1.127   9.344 -0.2506 -0.3401  0.4749
  141SAPE  H11X15456   3.618   1.155   9.355 -0.0230 -0.4233  4.0130
  141SAPE  H11Y15457   3.719   1.017   9.358  2.1555 -0.7715 -1.3231
  141SAPE  C31215458   3.773   1.182   9.202  0.1664 -0.1544  0.2384
  141SAPE  H12X15459   3.883   1.178   9.184  0.1397  3.1189 -1.4319
  141SAPE  H12Y15460   3.752   1.291   9.208 -2.9613 -0.6480 -0.2158
  141SAPE  C31315461   3.700   1.125   9.081 -0.1028 -0.2045  0.3163
  141SAPE  H13X15462   3.593   1.155   9.084  0.2851  1.1709  2.3032
  141SAPE  H13Y15463   3.701   1.016   9.100 -2.6322 -0.7363 -1.8979
  141SAPE  C31415464   3.772   1.168   8.956 -0.2196 -0.6786  0.0129
  141SAPE  H14X15465   3.882   1.153   8.964  0.2228  2.4513  1.8249
  141SAPE  H14Y15466   3.761   1.277   8.937  0.7721 -0.5292  0.2563
  141SAPE  C31515467   3.705   1.101   8.831 -0.2806  0.0329  0.1085
  141SAPE  H15X15468   3.596   1.121   8.842  0.0704  0.9320  2.7326
  141SAPE  H15Y15469   3.727   0.994   8.852  0.4096  0.1280 -0.1093
  141SAPE  C31615470   3.770   1.139   8.702  0.4837  0.2483 -0.6770
  141SAPE  H16X15471   3.880   1.119   8.698  0.6089  0.6032  0.6972
  141SAPE  H16Y15472   3.760   1.245   8.672  0.2394 -0.0092 -1.5311
  141SAPE  C31715473   3.712   1.068   8.580  0.0998  0.2705  0.1668
  141SAPE  H17X15474   3.758   1.117   8.492 -1.2633  1.2602 -0.0153
  141SAPE  H17Y15475   3.605   1.092   8.562 -1.2946 -2.5452  3.4613
  141SAPE  C31815476   3.742   0.916   8.574 -0.0924  0.2568 -0.0378
  141SAPE  H18X15477   3.683   0.859   8.649 -1.0134  1.0628 -0.1374
  141SAPE  H18Y15478   3.849   0.893   8.593 -0.3479 -0.7848  0.2475
  141SAPE  H18Z15479   3.705   0.874   8.478 -1.5672  0.1885  0.5328
  142SAPE     N15480   3.069   6.227  11.218  0.0021 -0.0470 -0.0506
  142SAPE   HN115481   3.111   6.236  11.313 -0.5496  1.6175  0.0685
  142SAPE   HN215482   3.121   6.165  11.152  0.0655 -0.3909  0.3197
  142SAPE   HN315483   3.062   6.322  11.175  2.0594  0.5676  0.8314
  142SAPE   C1215484   2.936   6.153  11.238  0.1620  0.0465 -0.2794
  142SAPE  H12A15485   2.854   6.227  11.226 -0.1397 -0.3434 -0.6383
  142SAPE  H12B15486   2.934   6.124  11.346  2.3462 -0.5022 -0.3484
  142SAPE   C1115487   2.928   6.033  11.139  0.0266 -0.7585  0.1492
  142SAPE  H11A15488   2.817   6.027  11.129 -0.4336  1.9692  2.2819
  142SAPE  H11B15489   2.971   5.945  11.190  2.2301  1.2206  1.9159
  142SAPE     P15490   2.912   6.046  10.877 -0.0498  0.1291  0.3855
  142SAPE   O1315491   2.929   5.908  10.818  0.3984 -0.1256  0.1493
  142SAPE   O1415492   2.775   6.092  10.899 -0.1654 -0.1151  0.4046
  142SAPE   O1215493   2.997   6.060  11.011  0.3284 -0.3758  0.3349
  142SAPE   O1115494   2.985   6.146  10.776  0.4056 -0.5285  0.3547
  142SAPE    C115495   3.122   6.133  10.750 -0.0225 -0.7971 -0.1488
  142SAPE    HA15496   3.174   6.222  10.792  1.1730 -1.4495 -0.2034
  142SAPE    HB15497   3.169   6.049  10.804 -0.1692  0.2536  1.6804
  142SAPE    C215498   3.150   6.118  10.605 -0.3540 -0.6270  0.0335
  142SAPE    HS15499   3.101   6.201  10.550  0.0063 -2.2862 -3.0101
  142SAPE   O2115500   3.104   5.983  10.572  0.0579  0.2723  0.3294
  142SAPE   C2115501   2.994   5.976  10.516 -0.2683  0.6522 -0.0668
  142SAPE   O2215502   2.908   6.064  10.501 -0.0165  0.9505 -0.0987
  142SAPE   C2215503   2.984   5.828  10.455  0.7179  0.3453  0.3509
  142SAPE   H2R15504   3.086   5.802  10.417  1.3273  1.8274  0.9008
  142SAPE   H2S15505   2.949   5.759  10.534  0.1250  0.3560  0.0981
  142SAPE    C315506   3.308   6.137  10.580  0.2772  0.6767  0.2649
  142SAPE    HX15507   3.348   6.042  10.621 -1.0374 -0.0120 -0.0013
  142SAPE    HY15508   3.336   6.214  10.655 -1.9854  0.3221  1.5630
  142SAPE   O3115509   3.334   6.174  10.446  0.3423  0.6102 -0.3727
  142SAPE   C3115510   3.355   6.070  10.364 -0.4152 -0.5745  0.1336
  142SAPE   O3215511   3.350   5.955  10.396 -0.3485 -0.4533  0.2865
  142SAPE   C3215512   3.394   6.118  10.226 -0.1052  0.1278  0.1080
  142SAPE   H2X15513   3.421   6.225  10.228  3.4434 -0.6265 -0.8898
  142SAPE   H2Y15514   3.312   6.104  10.152 -0.3294  0.5771  0.2689
  142SAPE   C2315515   2.872   5.829  10.348  0.7728 -0.4834 -0.2450
  142SAPE   H3R15516   2.888   5.917  10.282  0.2947  1.1806  1.7578
  142SAPE   H3S15517   2.775   5.840  10.400  0.9913  1.7298 -0.1950
  142SAPE   C2415518   2.874   5.703  10.265 -0.0042 -0.9305 -0.6308
  142SAPE   H4R15519   2.811   5.712  10.174  2.3658  2.8942 -2.1563
  142SAPE   H4S15520   2.836   5.622  10.330  3.1468 -2.0723 -0.0355
  142SAPE   C2515521   3.009   5.683  10.210  0.5002 -0.4992 -0.8426
  142SAPE   H5R15522   3.074   5.611  10.262  1.7757 -0.8350 -2.8350
  142SAPE   C2615523   3.070   5.749  10.115 -0.4475 -0.1480  1.0065
  142SAPE   H6R15524   3.171   5.713  10.090  0.3806  0.0504  3.7876
  142SAPE   C2715525   3.015   5.860  10.029  0.5028  0.7083 -0.0458
  142SAPE   H7R15526   2.906   5.855  10.008  0.8184  0.2313 -1.7507
  142SAPE   H7S15527   3.059   5.850   9.927 -1.9146 -0.7251 -1.0229
  142SAPE   C2815528   3.029   6.001  10.079  0.6024  0.0212 -0.4629
  142SAPE   H8R15529   3.025   6.012  10.189 -0.1887 -1.0562 -0.3774
  142SAPE   C2915530   3.058   6.111  10.007  0.3032  0.6059  0.0440
  142SAPE   H9R15531   3.060   6.207  10.060 -0.1066  1.8583 -2.0789
  142SAPE  C21015532   3.053   6.127   9.858 -0.1995  0.4968  0.5396
  142SAPE  H10R15533   2.988   6.214   9.836 -1.2370 -0.0478  1.3491
  142SAPE  H10S15534   2.997   6.040   9.818  2.1960 -1.3173  0.9485
  142SAPE  C21115535   3.189   6.117   9.793  0.1798 -0.0371  0.1219
  142SAPE  H11R15536   3.271   6.069   9.849  0.4439 -1.7129 -1.5914
  142SAPE  C21215537   3.221   6.141   9.664 -0.6988 -0.5987  0.2828
  142SAPE  H12R15538   3.324   6.130   9.625 -1.4091 -0.6353 -1.6857
  142SAPE  C21315539   3.117   6.187   9.559 -0.7344  0.1787 -0.6657
  142SAPE  H13R15540   3.151   6.272   9.497 -3.1831  1.0548 -0.9548
  142SAPE  H13S15541   3.034   6.231   9.620 -1.0707 -1.1232 -0.1456
  142SAPE  C21415542   3.082   6.062   9.486  0.2930  0.2497 -0.4245
  142SAPE  H14R15543   3.009   6.001   9.541  0.6904 -0.6419 -0.8570
  142SAPE  C21515544   3.126   6.032   9.366  1.3486 -0.3393 -0.5461
  142SAPE  H15R15545   3.079   5.942   9.323  1.2893 -0.5791  0.0096
  142SAPE  C21615546   3.212   6.115   9.281 -0.9846 -0.7196  0.1386
  142SAPE  H16R15547   3.305   6.054   9.280 -0.4008 -0.0438  3.2756
  142SAPE  H16S15548   3.242   6.214   9.321 -1.1752 -0.3594 -0.5894
  142SAPE  C21715549   3.157   6.133   9.138  0.9265  0.3316 -0.1669
  142SAPE  H17R15550   3.070   6.201   9.142 -1.0703 -2.0526 -0.5111
  142SAPE  H17S15551   3.133   6.037   9.088 -1.3927  0.3276  0.8488
  142SAPE  C21815552   3.263   6.209   9.050 -0.3640  0.1777  1.2408
  142SAPE  H18R15553   3.348   6.137   9.047  0.1731  0.8234  0.7246
  142SAPE  H18S15554   3.303   6.297   9.103  1.8077 -1.0111  1.6892
  142SAPE  C21915555   3.227   6.248   8.906 -0.5298 -0.0042 -0.5324
  142SAPE  H19R15556   3.167   6.341   8.919  3.0901  2.2196  2.1241
  142SAPE  H19S15557   3.176   6.161   8.860  2.6100 -1.8969 -0.6864
  142SAPE  C22015558   3.350   6.286   8.817  0.7801 -0.0762  0.2769
  142SAPE  H20R15559   3.405   6.372   8.860  1.2119 -0.3685  0.3222
  142SAPE  H20S15560   3.318   6.307   8.713  1.0953 -1.5554 -0.1467
  142SAPE  H20T15561   3.424   6.203   8.811 -1.3342 -2.0325 -0.5323
  142SAPE   C3315562   3.519   6.040  10.175  0.4481  0.0792 -0.3779
  142SAPE   H3X15563   3.588   6.024  10.261  0.8093 -0.7437 -0.8170
  142SAPE   H3Y15564   3.572   6.090  10.091  2.9966 -1.7815  0.0225
  142SAPE   C3415565   3.496   5.895  10.123  0.0063 -0.7409 -0.1512
  142SAPE   H4X15566   3.435   5.834  10.192  2.4547 -3.6463 -0.3788
  142SAPE   H4Y15567   3.600   5.857  10.115  0.9088  1.7070 -1.2216
  142SAPE   C3515568   3.426   5.898   9.991 -1.0834  0.1551  0.3903
  142SAPE   H5X15569   3.476   5.960   9.914  0.0885 -2.2687 -0.9241
  142SAPE   H5Y15570   3.323   5.937  10.006 -1.5681 -0.0953 -1.8461
  142SAPE   C3615571   3.418   5.757   9.934 -0.4435  0.2925 -0.1590
  142SAPE   H6X15572   3.343   5.698   9.991 -0.1054 -0.0313 -0.0420
  142SAPE   H6Y15573   3.509   5.693   9.935 -0.6230 -0.2393 -4.1831
  142SAPE   C3715574   3.385   5.758   9.781 -0.5322  0.0088 -0.3181
  142SAPE   H7X15575   3.308   5.835   9.765 -0.7574  0.0918  1.0961
  142SAPE   H7Y15576   3.333   5.665   9.749 -0.0232  0.0658 -1.3646
  142SAPE   C3815577   3.507   5.770   9.687 -0.2411 -0.0542  0.2329
  142SAPE   H8X15578   3.571   5.688   9.726 -2.4448 -2.1233 -0.2784
  142SAPE   H8Y15579   3.557   5.867   9.711 -0.1364  0.2633 -1.1963
  142SAPE   C3915580   3.485   5.741   9.539  0.7800 -0.6511 -0.3518
  142SAPE   H9X15581   3.407   5.800   9.488  0.1805 -1.8161 -0.8113
  142SAPE   H9Y15582   3.451   5.636   9.527 -1.5636 -0.0113  0.2102
  142SAPE  C31015583   3.619   5.738   9.465  0.2919 -0.2362  0.0578
  142SAPE  H10X15584   3.664   5.638   9.482  0.3570 -0.0973  0.7224
  142SAPE  H10Y15585   3.680   5.820   9.510  0.7650 -0.1203 -0.7625
  142SAPE  C31115586   3.607   5.765   9.312 -0.1594 -0.6628  0.8506
  142SAPE  H11X15587   3.576   5.871   9.296  0.6206 -0.7653 -1.6436
  142SAPE  H11Y15588   3.533   5.700   9.262  0.5098 -2.8339  2.5249
  142SAPE  C31215589   3.735   5.728   9.240  0.0083 -0.4818  0.0974
  142SAPE  H12X15590   3.811   5.748   9.318 -1.7990  1.6529  1.4347
  142SAPE  H12Y15591   3.752   5.793   9.152  0.7727  1.9787  1.9494
  142SAPE  C31315592   3.751   5.579   9.201 -0.2208  0.1026  0.2238
  142SAPE  H13X15593   3.677   5.566   9.119 -0.1517  2.4619 -0.2632
  142SAPE  H13Y15594   3.726   5.511   9.286  0.3114  0.3074  0.5480
  142SAPE  C31415595   3.882   5.548   9.135 -0.0697 -0.0957  0.3846
  142SAPE  H14X15596   3.965   5.524   9.205  0.0467 -1.3738 -0.1625
  142SAPE  H14Y15597   3.913   5.637   9.077  0.9848  0.4445  1.7160
  142SAPE  C31515598   3.877   5.425   9.044 -0.5867 -0.1026  0.2862
  142SAPE  H15X15599   3.971   5.417   8.984 -0.1220  1.1643  0.8014
  142SAPE  H15Y15600   3.792   5.437   8.974  1.0418 -0.0504 -1.8158
  142SAPE  C31615601   3.857   5.294   9.120 -0.1989 -0.3689  0.4583
  142SAPE  H16X15602   3.757   5.297   9.167  0.5939 -1.7551  2.3713
  142SAPE  H16Y15603   3.933   5.285   9.200  1.0695 -0.8477 -0.7584
  142SAPE  C31715604   3.865   5.169   9.029 -0.4285 -0.9286  0.2593
  142SAPE  H17X15605   3.970   5.161   8.994  0.4287  0.3331  2.4030
  142SAPE  H17Y15606   3.803   5.192   8.939  1.3403  0.2820 -0.7107
  142SAPE  C31815607   3.819   5.039   9.096  0.4033  0.9781 -1.0967
  142SAPE  H18X15608   3.863   5.020   9.196 -1.0750 -1.2638 -0.8090
  142SAPE  H18Y15609   3.853   4.958   9.028 -1.6480  0.3177 -1.4051
  142SAPE  H18Z15610   3.708   5.039   9.106  0.4341 -1.4586 -0.0479
  143SAPE     N15611   6.701   4.632  10.706  0.0964 -0.3882 -0.2057
  143SAPE   HN115612   6.804   4.642  10.695 -0.1298  0.7829 -1.4349
  143SAPE   HN215613   6.685   4.530  10.702  0.3609 -0.5916  2.1975
  143SAPE   HN315614   6.661   4.686  10.627 -0.4884  1.0533  1.0126
  143SAPE   C1215615   6.656   4.674  10.842 -0.0215 -0.4549  0.1929
  143SAPE  H12A15616   6.667   4.785  10.845  0.6447 -0.4674 -0.9724
  143SAPE  H12B15617   6.704   4.618  10.924 -2.0110 -0.8845  1.1335
  143SAPE   C1115618   6.505   4.648  10.851 -0.4327  0.3084  0.1323
  143SAPE  H11A15619   6.456   4.717  10.778  0.6473  0.0023 -0.9220
  143SAPE  H11B15620   6.474   4.671  10.955 -1.1569 -0.1784  0.0346
  143SAPE     P15621   6.336   4.440  10.826 -0.1260  0.1958 -0.1351
  143SAPE   O1315622   6.372   4.310  10.886  0.7184  0.4194  0.6882
  143SAPE   O1415623   6.231   4.524  10.893 -0.0942 -0.2823 -0.3251
  143SAPE   O1215624   6.470   4.515  10.819 -0.1576 -0.0599  0.4110
  143SAPE   O1115625   6.281   4.431  10.679  0.0811 -0.2484  0.1457
  143SAPE    C115626   6.284   4.549  10.597  0.0777 -0.1700  0.5079
  143SAPE    HA15627   6.378   4.609  10.592 -1.1855  1.8829 -0.2291
  143SAPE    HB15628   6.274   4.511  10.493  0.8133 -1.6194  0.9412
  143SAPE    C215629   6.158   4.645  10.612  0.0964 -0.2571 -0.4078
  143SAPE    HS15630   6.132   4.645  10.720 -0.4462 -1.1738 -0.5296
  143SAPE   O2115631   6.046   4.596  10.528  0.3997 -0.7017  0.5685
  143SAPE   C2115632   5.932   4.664  10.539 -0.4851 -0.0556  0.3391
  143SAPE   O2215633   5.906   4.736  10.635 -0.4293  0.0381  0.0723
  143SAPE   C2215634   5.842   4.630  10.420  0.3100  0.4628 -0.3084
  143SAPE   H2R15635   5.910   4.662  10.337  0.0066 -0.6627 -1.0177
  143SAPE   H2S15636   5.826   4.520  10.419 -2.3023  0.7842 -0.5258
  143SAPE    C315637   6.206   4.793  10.574  0.1261 -0.2017  0.2104
  143SAPE    HX15638   6.290   4.806  10.645  1.1472  0.6648 -1.0963
  143SAPE    HY15639   6.128   4.872  10.583 -0.7807 -1.0038 -0.3655
  143SAPE   O3115640   6.269   4.805  10.438 -0.5178 -0.0953  0.5218
  143SAPE   C3115641   6.190   4.817  10.333 -0.1657  0.0416 -0.5461
  143SAPE   O3215642   6.076   4.862  10.335 -0.2970  1.0532 -0.0241
  143SAPE   C3215643   6.257   4.769  10.210 -0.1390  0.2344  0.3509
  143SAPE   H2X15644   6.188   4.803  10.130  0.7151 -0.9740 -0.9411
  143SAPE   H2Y15645   6.256   4.658  10.215 -0.1462  0.2945  2.9103
  143SAPE   C2315646   5.695   4.675  10.417 -0.0865 -0.2594  1.2499
  143SAPE   H3R15647   5.686   4.785  10.429 -0.2504 -0.1243 -0.0365
  143SAPE   H3S15648   5.637   4.624  10.498 -2.0180 -1.5508 -0.8002
  143SAPE   C2415649   5.629   4.654  10.282 -0.0148 -0.2202  1.2833
  143SAPE   H4R15650   5.674   4.726  10.210 -1.0005 -1.7093 -0.9230
  143SAPE   H4S15651   5.523   4.686  10.292 -0.2001  0.2413 -1.3753
  143SAPE   C2515652   5.623   4.512  10.226 -0.2817  0.3960 -0.9898
  143SAPE   H5R15653   5.604   4.437  10.304  0.7924  0.7079 -0.4170
  143SAPE   C2615654   5.664   4.461  10.109 -0.3314  0.7775 -0.4390
  143SAPE   H6R15655   5.652   4.355  10.084 -1.7119  1.5182 -3.3928
  143SAPE   C2715656   5.712   4.539   9.993  0.3397 -0.7087  0.7734
  143SAPE   H7R15657   5.633   4.611   9.962 -0.8573 -2.0571  0.5430
  143SAPE   H7S15658   5.709   4.468   9.907  0.2561  0.0898  0.1102
  143SAPE   C2815659   5.838   4.620  10.008  0.0019  0.0342 -0.2108
  143SAPE   H8R15660   5.891   4.618  10.104  0.8710  1.4436 -0.6300
  143SAPE   C2915661   5.888   4.683   9.907  0.8735 -1.0968  0.6209
  143SAPE   H9R15662   5.988   4.727   9.913  0.7914 -0.1147 -3.1476
  143SAPE  C21015663   5.838   4.692   9.764 -0.0149  0.7717 -0.0717
  143SAPE  H10R15664   5.740   4.639   9.763  0.3827  0.0312 -0.6660
  143SAPE  H10S15665   5.920   4.643   9.707 -1.6150 -1.4074 -0.6091
  143SAPE  C21115666   5.823   4.834   9.721  0.4142  0.0129  0.1873
  143SAPE  H11R15667   5.818   4.904   9.805 -0.5645 -1.6282  1.5626
  143SAPE  C21215668   5.812   4.879   9.595 -0.1802  0.4594  0.5305
  143SAPE  H12R15669   5.797   4.985   9.570  3.3755  0.8240 -0.6650
  143SAPE  C21315670   5.811   4.792   9.469 -0.1291 -0.6198 -0.0465
  143SAPE  H13R15671   5.761   4.695   9.487 -0.9824 -0.1540  0.1625
  143SAPE  H13S15672   5.918   4.765   9.451 -0.6742 -1.5372 -2.2950
  143SAPE  C21415673   5.764   4.858   9.341  0.4488 -0.1922  0.5994
  143SAPE  H14R15674   5.676   4.923   9.345 -0.2456 -1.0715 -0.1649
  143SAPE  C21515675   5.787   4.818   9.218  0.5832 -0.2381 -0.1614
  143SAPE  H15R15676   5.759   4.879   9.130 -0.6726 -0.7622 -0.1401
  143SAPE  C21615677   5.865   4.694   9.181  0.8274  0.3500  0.4133
  143SAPE  H16R15678   5.810   4.631   9.108 -0.7370  0.2913  1.5893
  143SAPE  H16S15679   5.901   4.621   9.256 -0.5437 -0.7648  0.0351
  143SAPE  C21715680   5.984   4.742   9.098  0.1015 -0.4427  0.5160
  143SAPE  H17R15681   5.945   4.788   9.005  2.3818 -0.1291 -0.3303
  143SAPE  H17S15682   6.036   4.652   9.059  0.0391  0.5465 -2.0055
  143SAPE  C21815683   6.079   4.837   9.168  0.6461  0.5270  0.4106
  143SAPE  H18R15684   6.091   4.799   9.272 -0.6654 -0.8646  0.0924
  143SAPE  H18S15685   6.048   4.944   9.169 -0.6892  0.1656  0.4051
  143SAPE  C21915686   6.215   4.830   9.107  0.2644  0.0529  0.1592
  143SAPE  H19R15687   6.258   4.729   9.095  2.4083  0.8537  0.7466
  143SAPE  H19S15688   6.287   4.889   9.168 -1.0974  1.6555  0.2992
  143SAPE  C22015689   6.213   4.890   8.964 -0.5873  0.0200 -0.1223
  143SAPE  H20R15690   6.136   4.846   8.897  2.1130 -1.0382 -2.8030
  143SAPE  H20S15691   6.313   4.880   8.917 -1.3714 -0.7892 -1.6744
  143SAPE  H20T15692   6.193   4.999   8.966 -2.4786 -0.2971  0.4466
  143SAPE   C3315693   6.400   4.815  10.192 -0.1082 -0.0647  0.9287
  143SAPE   H3X15694   6.479   4.774  10.259  2.7304  1.9391 -0.9453
  143SAPE   H3Y15695   6.401   4.924  10.215 -0.5774 -0.5389  3.4595
  143SAPE   C3415696   6.443   4.795  10.044 -0.1416 -0.3524 -0.0430
  143SAPE   H4X15697   6.500   4.885  10.011 -1.9561 -0.0785 -2.7168
  143SAPE   H4Y15698   6.359   4.791   9.971 -1.9656 -0.0013  1.9474
  143SAPE   C3515699   6.539   4.677  10.016 -0.0593  0.3290 -0.3508
  143SAPE   H5X15700   6.484   4.584  10.040 -0.6903  0.5871 -0.7606
  143SAPE   H5Y15701   6.621   4.684  10.091  0.5990  4.4865 -1.1962
  143SAPE   C3615702   6.589   4.667   9.868  0.5513  0.0715  0.3826
  143SAPE   H6X15703   6.494   4.667   9.812  0.6772  2.4370  0.0455
  143SAPE   H6Y15704   6.631   4.567   9.844 -0.8177 -0.3607 -0.2991
  143SAPE   C3715705   6.684   4.779   9.827  0.0113  0.6542  0.6224
  143SAPE   H7X15706   6.758   4.798   9.907 -0.0279  2.0222  0.3464
  143SAPE   H7Y15707   6.615   4.865   9.817  1.2196  1.6838  0.9812
  143SAPE   C3815708   6.770   4.746   9.695 -0.0814 -0.9604  0.3000
  143SAPE   H8X15709   6.845   4.667   9.715 -0.9375 -2.0489 -0.6531
  143SAPE   H8Y15710   6.823   4.840   9.668 -1.7191  0.2317  1.0519
  143SAPE   C3915711   6.680   4.708   9.579 -0.5438 -0.3068 -0.3762
  143SAPE   H9X15712   6.591   4.775   9.579  0.5134  1.1813 -1.5733
  143SAPE   H9Y15713   6.643   4.605   9.596 -0.2508 -0.3222  0.2014
  143SAPE  C31015714   6.748   4.730   9.440 -0.3372  0.1008 -0.2533
  143SAPE  H10X15715   6.828   4.653   9.436  0.1692  0.2183  3.7515
  143SAPE  H10Y15716   6.785   4.833   9.423  1.6794 -0.6750 -0.8532
  143SAPE  C31115717   6.638   4.699   9.333 -0.0313 -0.1884  0.8601
  143SAPE  H11X15718   6.555   4.770   9.352 -0.9790 -1.5867  2.1563
  143SAPE  H11Y15719   6.605   4.593   9.335  2.2612 -0.9815 -0.0028
  143SAPE  C31215720   6.694   4.701   9.193 -0.4018 -0.2869  0.2229
  143SAPE  H12X15721   6.774   4.624   9.187 -0.4034 -0.3484  0.9487
  143SAPE  H12Y15722   6.732   4.801   9.164 -0.0977 -0.3172  0.5109
  143SAPE  C31315723   6.593   4.664   9.088 -0.0918 -0.1088  0.1290
  143SAPE  H13X15724   6.512   4.741   9.090  0.5835  0.6100  0.6204
  143SAPE  H13Y15725   6.543   4.566   9.104  0.0291  0.0254  1.4009
  143SAPE  C31415726   6.651   4.659   8.951  0.4929  0.0340 -0.2563
  143SAPE  H14X15727   6.753   4.617   8.963  0.2700 -0.9922 -1.7295
  143SAPE  H14Y15728   6.665   4.763   8.914 -2.7278  0.7530  0.2137
  143SAPE  C31515729   6.564   4.588   8.853 -0.4441  0.5638 -0.3992
  143SAPE  H15X15730   6.532   4.489   8.893  1.5537 -0.3288 -0.9194
  143SAPE  H15Y15731   6.633   4.563   8.770  1.5861  1.3867  0.9856
  143SAPE  C31615732   6.440   4.663   8.804 -1.0308  0.0332  0.1416
  143SAPE  H16X15733   6.459   4.768   8.774  0.2760  0.5252  2.4624
  143SAPE  H16Y15734   6.377   4.657   8.895 -1.3044 -0.7979 -0.0935
  143SAPE  C31715735   6.369   4.602   8.684 -0.1931 -0.1191  0.6472
  143SAPE  H17X15736   6.260   4.590   8.706 -0.2019 -3.3387 -0.6391
  143SAPE  H17Y15737   6.418   4.504   8.670 -1.6061 -0.7641 -0.0426
  143SAPE  C31815738   6.384   4.672   8.541 -0.3212 -0.3153  0.2115
  143SAPE  H18X15739   6.345   4.774   8.559  0.4449 -0.5872  4.6233
  143SAPE  H18Y15740   6.333   4.610   8.464  1.3383 -1.6669  0.1319
  143SAPE  H18Z15741   6.495   4.678   8.532 -0.4214  2.1020  0.0979
  144SAPE     N15742   1.291   4.764  11.149  0.0869 -0.0797 -0.7672
  144SAPE   HN115743   1.294   4.784  11.251 -0.6976 -2.9365 -0.0850
  144SAPE   HN215744   1.348   4.677  11.142  1.1462  0.3426  1.6527
  144SAPE   HN315745   1.333   4.833  11.084 -0.0981 -1.1391 -2.0729
  144SAPE   C1215746   1.149   4.726  11.102  0.4825 -0.6175 -0.3808
  144SAPE  H12A15747   1.120   4.656  11.182  0.0508  0.4179  0.3877
  144SAPE  H12B15748   1.146   4.684  10.999 -1.3265  2.6574 -1.8237
  144SAPE   C1115749   1.057   4.850  11.112  0.4055  0.0557 -0.6102
  144SAPE  H11A15750   1.068   4.902  11.210  0.5823 -0.3528 -0.4116
  144SAPE  H11B15751   0.948   4.831  11.117  0.3684  0.4649  2.7954
  144SAPE     P15752   1.050   4.952  10.866  0.2896 -0.0449  0.2507
  144SAPE   O1315753   0.934   4.861  10.847  0.9224 -0.0531 -0.0558
  144SAPE   O1415754   1.032   5.096  10.835  0.9861  0.6229  0.0136
  144SAPE   O1215755   1.095   4.940  11.014  0.1621 -0.2502 -0.2072
  144SAPE   O1115756   1.172   4.897  10.782 -0.7047  0.2103  0.6727
  144SAPE    C115757   1.172   4.799  10.678  0.2438  0.1234 -0.2442
  144SAPE    HA15758   1.276   4.764  10.659  0.4007  0.7418 -0.5386
  144SAPE    HB15759   1.114   4.706  10.696  1.4416 -0.5193  0.4751
  144SAPE    C215760   1.132   4.859  10.544  0.3461 -0.5009 -0.5673
  144SAPE    HS15761   1.175   4.962  10.543 -0.1175 -0.3011 -0.3404
  144SAPE   O2115762   0.988   4.858  10.540  0.0472 -0.7124 -0.7526
  144SAPE   C2115763   0.935   4.951  10.469  0.5664  0.1739 -0.0171
  144SAPE   O2215764   0.992   5.048  10.423 -0.2439 -0.3736 -0.0485
  144SAPE   C2215765   0.787   4.934  10.451 -0.6076  0.5502  0.3420
  144SAPE   H2R15766   0.774   4.835  10.401  1.3253  1.6495 -2.6262
  144SAPE   H2S15767   0.733   4.937  10.548  1.7460  0.3902  1.7275
  144SAPE    C315768   1.186   4.770  10.427 -0.5818 -0.6988  0.3354
  144SAPE    HX15769   1.142   4.668  10.432  0.5158 -1.2511 -0.5992
  144SAPE    HY15770   1.296   4.766  10.439 -0.6017 -2.1989  0.2326
  144SAPE   O3115771   1.147   4.821  10.301 -0.2299 -0.5634  0.6820
  144SAPE   C3115772   1.224   4.923  10.239  0.8752 -0.3644 -0.2903
  144SAPE   O3215773   1.313   4.980  10.294  0.4828 -0.3778  0.1677
  144SAPE   C3215774   1.171   4.945  10.102  0.1263 -0.8096 -0.0670
  144SAPE   H2X15775   1.171   5.054  10.083  1.1037 -0.7622  0.1535
  144SAPE   H2Y15776   1.065   4.913  10.093  0.3039 -1.0264 -1.6874
  144SAPE   C2315777   0.724   5.047  10.358  0.6649 -0.4767 -0.1860
  144SAPE   H3R15778   0.789   5.063  10.270 -1.3479  1.5268 -1.4418
  144SAPE   H3S15779   0.715   5.146  10.407  0.2714  0.2456 -1.6565
  144SAPE   C2415780   0.586   4.999  10.305  0.3703 -0.0630  0.7057
  144SAPE   H4R15781   0.536   4.958  10.395  0.6409 -0.5543  0.6337
  144SAPE   H4S15782   0.586   4.911  10.237 -1.2313  0.2886  0.1962
  144SAPE   C2515783   0.502   5.103  10.234  0.0203 -0.1250 -0.2620
  144SAPE   H5R15784   0.442   5.162  10.305  0.6947  0.2193  0.0216
  144SAPE   C2615785   0.471   5.121  10.100 -0.3384  0.2251 -0.4710
  144SAPE   H6R15786   0.409   5.209  10.079  0.5329  1.0391  0.2821
  144SAPE   C2715787   0.523   5.030   9.985  0.6180 -0.2414  0.3562
  144SAPE   H7R15788   0.461   5.069   9.901  0.7695 -1.1134 -0.1644
  144SAPE   H7S15789   0.498   4.925  10.011 -0.4868  0.6701  3.4824
  144SAPE   C2815790   0.669   5.065   9.951 -0.3048 -0.4630 -0.4313
  144SAPE   H8R15791   0.730   5.086  10.040  0.6967 -0.9043 -0.9918
  144SAPE   C2915792   0.720   5.084   9.829 -0.6505  0.1609 -0.2915
  144SAPE   H9R15793   0.826   5.110   9.814 -0.1229 -2.2122 -1.1876
  144SAPE  C21015794   0.636   5.086   9.706 -0.2514  0.0357  0.1243
  144SAPE  H10R15795   0.687   5.167   9.649 -0.3407 -0.0544 -0.0831
  144SAPE  H10S15796   0.538   5.133   9.727 -0.2111  0.2164 -0.0866
  144SAPE  C21115797   0.626   4.950   9.635 -0.0106 -1.2063  0.4280
  144SAPE  H11R15798   0.545   4.889   9.679 -0.6123 -0.2661  0.6597
  144SAPE  C21215799   0.703   4.895   9.534  0.6581 -0.1805 -0.6424
  144SAPE  H12R15800   0.668   4.802   9.488 -0.8427 -0.0380  0.1504
  144SAPE  C21315801   0.822   4.953   9.469  0.5236 -0.3248 -0.4857
  144SAPE  H13R15802   0.910   4.907   9.519 -0.5849 -3.8236 -1.4841
  144SAPE  H13S15803   0.829   5.062   9.493  0.9379 -0.6085  0.7670
  144SAPE  C21415804   0.823   4.955   9.315 -0.9525 -0.1100 -0.2368
  144SAPE  H14R15805   0.788   5.049   9.270 -0.7043  0.1894  0.1791
  144SAPE  C21515806   0.866   4.852   9.239  0.3734 -0.2153  0.3592
  144SAPE  H15R15807   0.867   4.861   9.129  0.6870 -0.8057  0.3086
  144SAPE  C21615808   0.908   4.717   9.291  0.0501  0.5738  0.0381
  144SAPE  H16R15809   0.820   4.670   9.339  1.1233  0.0524  1.5485
  144SAPE  H16S15810   0.992   4.723   9.363 -0.7981  0.2733  1.0847
  144SAPE  C21715811   0.965   4.638   9.168 -0.0735  0.4014 -0.0409
  144SAPE  H17R15812   1.024   4.551   9.205 -0.7529 -0.3911 -0.7888
  144SAPE  H17S15813   1.044   4.700   9.120 -1.1516 -0.9532 -3.8495
  144SAPE  C21815814   0.862   4.601   9.072  1.1991  0.0163  0.0471
  144SAPE  H18R15815   0.824   4.688   9.014  1.9479 -0.2312 -0.8273
  144SAPE  H18S15816   0.779   4.548   9.124  0.6799 -0.6118 -1.3584
  144SAPE  C21915817   0.908   4.498   8.976 -0.1922  0.7824  0.1710
  144SAPE  H19R15818   0.815   4.450   8.938 -0.9403  1.6184  0.8980
  144SAPE  H19S15819   0.959   4.416   9.032  0.4660  0.7523 -0.4627
  144SAPE  C22015820   0.994   4.553   8.865  0.0740 -0.2300 -0.2971
  144SAPE  H20R15821   1.088   4.599   8.903  0.0174  0.1386 -0.5951
  144SAPE  H20S15822   0.937   4.634   8.816 -0.4723 -0.9032 -0.7939
  144SAPE  H20T15823   1.023   4.477   8.790 -1.5514 -1.5341  0.3346
  144SAPE   C3315824   1.249   4.868  10.001  0.7242 -0.4443  0.4051
  144SAPE   H3X15825   1.228   4.759  10.010  2.0129 -0.7196  0.3011
  144SAPE   H3Y15826   1.356   4.896  10.000  0.7523 -0.3483  2.6040
  144SAPE   C3415827   1.189   4.899   9.861 -0.0679  0.1923 -0.3249
  144SAPE   H4X15828   1.187   5.008   9.843  1.2638  0.4964  1.1526
  144SAPE   H4Y15829   1.083   4.869   9.843  0.4812 -1.8553 -0.3759
  144SAPE   C3515830   1.276   4.829   9.754  0.0875  0.6261  0.8738
  144SAPE   H5X15831   1.289   4.719   9.761  2.9657  0.7204 -1.4755
  144SAPE   H5Y15832   1.370   4.887   9.750 -1.0144  2.4457  0.0493
  144SAPE   C3615833   1.220   4.859   9.607  0.0512 -0.6250 -0.2294
  144SAPE   H6X15834   1.167   4.957   9.601  2.7080  0.9062 -0.4479
  144SAPE   H6Y15835   1.140   4.784   9.591  1.2201 -2.2835  1.3729
  144SAPE   C3715836   1.323   4.849   9.493 -0.5121 -0.1690 -0.1100
  144SAPE   H7X15837   1.380   4.753   9.491 -1.8522 -1.0780  1.9589
  144SAPE   H7Y15838   1.408   4.918   9.511 -0.8722  0.3916 -0.5476
  144SAPE   C3815839   1.280   4.880   9.347  0.8034 -0.4679 -0.1101
  144SAPE   H8X15840   1.215   4.969   9.359 -0.8222 -1.6399  0.2215
  144SAPE   H8Y15841   1.204   4.808   9.307  1.5402 -0.9312 -0.6986
  144SAPE   C3915842   1.399   4.901   9.250  0.3208 -0.3696 -0.1190
  144SAPE   H9X15843   1.446   4.804   9.223  0.6444  0.0357 -1.0603
  144SAPE   H9Y15844   1.469   4.974   9.296  0.1229 -0.1612 -0.1461
  144SAPE  C31015845   1.357   4.966   9.117  0.4273  0.6517 -0.0392
  144SAPE  H10X15846   1.304   5.057   9.152 -3.2732 -0.7688 -1.4644
  144SAPE  H10Y15847   1.288   4.907   9.053  0.9397 -1.7808  1.4961
  144SAPE  C31115848   1.476   5.014   9.038 -0.1375 -0.1677 -0.5660
  144SAPE  H11X15849   1.522   4.925   8.990  1.4354  1.6546 -2.6064
  144SAPE  H11Y15850   1.547   5.067   9.104 -0.0161 -0.8855 -0.1083
  144SAPE  C31215851   1.449   5.096   8.916  0.5005 -0.0584  0.4809
  144SAPE  H12X15852   1.541   5.140   8.871 -0.3808  0.0070 -1.3522
  144SAPE  H12Y15853   1.377   5.177   8.941 -0.3566 -0.6223 -0.1026
  144SAPE  C31315854   1.393   5.026   8.794  0.1819  0.0047  0.8985
  144SAPE  H13X15855   1.332   4.938   8.823 -2.5760  1.6957  0.7331
  144SAPE  H13Y15856   1.481   5.003   8.732 -1.2857 -1.5439 -0.7157
  144SAPE  C31415857   1.292   5.104   8.700 -0.1595  0.7215 -0.2932
  144SAPE  H14X15858   1.200   5.139   8.752 -1.0693  0.2693 -1.5362
  144SAPE  H14Y15859   1.254   5.045   8.613  0.2927  0.3637 -0.2496
  144SAPE  C31515860   1.355   5.229   8.646  0.3036 -0.0897 -0.3566
  144SAPE  H15X15861   1.438   5.204   8.576  1.5599  1.4384  0.5254
  144SAPE  H15Y15862   1.407   5.297   8.718 -0.7325  0.0855  0.2497
  144SAPE  C31615863   1.248   5.323   8.572 -0.0866  0.2514  1.1219
  144SAPE  H16X15864   1.144   5.292   8.598  0.2169 -0.6633  1.2779
  144SAPE  H16Y15865   1.258   5.313   8.462  1.2126  0.0188  1.2512
  144SAPE  C31715866   1.263   5.469   8.621 -0.3213 -0.0268 -0.2190
  144SAPE  H17X15867   1.357   5.505   8.574 -0.8969  0.7353 -0.8203
  144SAPE  H17Y15868   1.269   5.476   8.732 -2.5479  0.0578 -0.0515
  144SAPE  C31815869   1.149   5.559   8.566 -0.3376  0.4114 -0.1123
  144SAPE  H18X15870   1.171   5.664   8.598 -0.7540  0.3057  0.5441
  144SAPE  H18Y15871   1.059   5.519   8.617  0.5985 -1.6511  0.0043
  144SAPE  H18Z15872   1.153   5.557   8.455 -0.4701 -0.5136 -0.1084
  145SAPE     N15873   4.189   6.547  11.048  0.0786 -0.8077 -0.0571
  145SAPE   HN115874   4.254   6.594  11.115  1.3212 -3.8094  1.0068
  145SAPE   HN215875   4.176   6.603  10.961  1.3994  0.4176  0.4905
  145SAPE   HN315876   4.095   6.545  11.091  0.0096  0.8615 -0.0371
  145SAPE   C1215877   4.231   6.401  11.021 -0.2976 -0.3415  0.4258
  145SAPE  H12A15878   4.270   6.360  11.117  0.7960 -2.2344 -0.7665
  145SAPE  H12B15879   4.307   6.410  10.941  0.5647 -0.1658  1.2521
  145SAPE   C1115880   4.108   6.314  10.974  0.2969 -0.4040 -0.2858
  145SAPE  H11A15881   4.138   6.212  10.941 -2.7081 -1.1257 -1.1094
  145SAPE  H11B15882   4.061   6.353  10.881  2.2832  0.6808 -0.8799
  145SAPE     P15883   3.897   6.379  11.108 -0.0004 -0.0683 -0.1352
  145SAPE   O1315884   3.853   6.353  11.248 -0.1807  0.2486  0.1969
  145SAPE   O1415885   3.933   6.518  11.078  0.0648 -0.3389 -0.1723
  145SAPE   O1215886   4.017   6.293  11.082  0.7812  0.0902  0.2522
  145SAPE   O1115887   3.787   6.325  11.004 -0.1589  0.2510 -0.0297
  145SAPE    C115888   3.784   6.176  10.982  0.1346 -0.2486  0.0920
  145SAPE    HA15889   3.852   6.118  11.049  0.4604 -0.3487 -0.3220
  145SAPE    HB15890   3.680   6.137  10.988 -0.1804  0.1298 -2.2507
  145SAPE    C215891   3.834   6.135  10.846  0.3210  0.3438  0.1988
  145SAPE    HS15892   3.940   6.168  10.832  0.1128  0.3393 -1.6008
  145SAPE   O2115893   3.758   6.203  10.747  0.6437  0.2948  0.2639
  145SAPE   C2115894   3.821   6.260  10.640 -0.0626 -0.0582  0.1929
  145SAPE   O2215895   3.945   6.268  10.628 -0.2785 -0.3478 -0.1027
  145SAPE   C2215896   3.720   6.315  10.542 -0.0993  0.1165 -0.3252
  145SAPE   H2R15897   3.641   6.237  10.546 -2.6623  2.6128  2.2952
  145SAPE   H2S15898   3.684   6.401  10.602  4.5175  0.2231  2.8791
  145SAPE    C315899   3.826   5.982  10.824 -0.0080  0.8446  0.9171
  145SAPE    HX15900   3.735   5.954  10.883 -1.1682  1.5598 -0.4630
  145SAPE    HY15901   3.913   5.930  10.869  0.5696  0.2629 -0.8238
  145SAPE   O3115902   3.812   5.948  10.687  0.2104 -0.0133 -0.0903
  145SAPE   C3115903   3.923   5.910  10.618 -0.0387 -0.4040 -0.0988
  145SAPE   O3215904   4.038   5.893  10.664  0.5439 -0.2055 -0.2547
  145SAPE   C3215905   3.876   5.875  10.473 -0.3036 -0.8250  0.1967
  145SAPE   H2X15906   3.838   5.966  10.423  0.5641 -1.9553 -2.7752
  145SAPE   H2Y15907   3.792   5.804  10.490 -0.2242 -0.7751  0.8382
  145SAPE   C2315908   3.766   6.366  10.407 -0.0084 -0.4242 -0.4249
  145SAPE   H3R15909   3.823   6.459  10.432 -1.0295 -0.2269  1.3178
  145SAPE   H3S15910   3.678   6.384  10.342 -0.0355 -1.6043 -0.7261
  145SAPE   C2415911   3.846   6.267  10.325 -0.0925  0.0119  0.6075
  145SAPE   H4R15912   3.770   6.199  10.279 -1.2881  0.9888  1.0990
  145SAPE   H4S15913   3.913   6.204  10.387  3.2169  2.0755 -0.6359
  145SAPE   C2515914   3.918   6.328  10.205 -0.4411  0.0061  0.2405
  145SAPE   H5R15915   4.024   6.347  10.229 -0.6440  1.7440 -0.0951
  145SAPE   C2615916   3.875   6.354  10.081 -0.1306 -0.1118  0.4644
  145SAPE   H6R15917   3.947   6.386  10.005  0.0332 -0.6740  0.3783
  145SAPE   C2715918   3.731   6.341  10.037  0.1706  0.2454  0.3116
  145SAPE   H7R15919   3.657   6.310  10.115  0.1408  1.7744  0.9308
  145SAPE   H7S15920   3.726   6.263   9.959  0.1292 -0.7988  1.3337
  145SAPE   C2815921   3.684   6.469   9.968  0.5659 -0.0809 -0.0423
  145SAPE   H8R15922   3.649   6.553  10.030 -1.6116 -1.1044  0.1900
  145SAPE   C2915923   3.669   6.484   9.839  0.3386 -0.6414 -0.1260
  145SAPE   H9R15924   3.623   6.575   9.797 -1.2450 -0.6748  1.4041
  145SAPE  C21015925   3.698   6.377   9.730 -0.4584  0.0628 -0.0481
  145SAPE  H10R15926   3.607   6.314   9.722  0.8224 -1.7022 -1.6990
  145SAPE  H10S15927   3.782   6.314   9.765 -0.1116  0.9211  0.6993
  145SAPE  C21115928   3.737   6.430   9.595  0.4269  0.0121 -0.1518
  145SAPE  H11R15929   3.783   6.529   9.601 -0.2788  0.2750  1.7971
  145SAPE  C21215930   3.699   6.379   9.473  0.1519  0.3271 -0.0267
  145SAPE  H12R15931   3.724   6.439   9.384  0.7255  0.5222  0.2609
  145SAPE  C21315932   3.609   6.256   9.451  0.1179 -0.6861 -0.0596
  145SAPE  H13R15933   3.541   6.237   9.538 -1.5267 -0.5593 -1.2629
  145SAPE  H13S15934   3.682   6.173   9.455  1.5814  0.5175 -0.7024
  145SAPE  C21415935   3.542   6.257   9.319 -0.3425 -0.0115 -0.3300
  145SAPE  H14R15936   3.440   6.296   9.325 -0.6078 -0.9383  2.0069
  145SAPE  C21515937   3.598   6.235   9.196 -0.3188  0.4109  0.3115
  145SAPE  H15R15938   3.532   6.261   9.111 -1.3319 -0.8683  0.6586
  145SAPE  C21615939   3.750   6.202   9.164 -0.8038  0.1462  0.5196
  145SAPE  H16R15940   3.767   6.111   9.103  1.9483  1.5158 -0.9388
  145SAPE  H16S15941   3.815   6.191   9.253 -0.1233  1.8683  0.2900
  145SAPE  C21715942   3.809   6.312   9.073  0.5430 -0.1923 -0.3166
  145SAPE  H17R15943   3.723   6.330   9.004 -0.9899 -0.8166  1.3615
  145SAPE  H17S15944   3.903   6.285   9.021  1.2263 -0.0542  0.8311
  145SAPE  C21815945   3.843   6.439   9.151 -0.0871 -0.3299 -0.3937
  145SAPE  H18R15946   3.885   6.405   9.248 -0.5450 -1.5138 -0.5908
  145SAPE  H18S15947   3.753   6.499   9.179  0.0840 -1.1604  2.2207
  145SAPE  C21915948   3.939   6.532   9.075  0.4271 -0.7996 -0.1098
  145SAPE  H19R15949   4.042   6.490   9.072 -0.0339 -2.0347  0.3551
  145SAPE  H19S15950   3.943   6.627   9.133  3.0958 -0.3225 -0.9824
  145SAPE  C22015951   3.907   6.560   8.928  0.3115 -0.0483 -0.5492
  145SAPE  H20R15952   3.888   6.467   8.870  3.1083 -0.5592 -0.7910
  145SAPE  H20S15953   3.998   6.613   8.892  0.0387  0.7554 -0.0686
  145SAPE  H20T15954   3.822   6.627   8.905 -0.4888 -1.3326 -1.5187
  145SAPE   C3315955   3.991   5.809  10.400 -0.5780  0.0107  0.4297
  145SAPE   H3X15956   4.025   5.721  10.459  1.6442 -1.2165 -2.4432
  145SAPE   H3Y15957   4.074   5.882  10.383  0.7423 -1.9348 -2.2820
  145SAPE   C3415958   3.962   5.752  10.260 -0.2921 -0.2493 -0.2553
  145SAPE   H4X15959   3.883   5.675  10.261  1.6541 -2.3749 -0.4143
  145SAPE   H4Y15960   4.054   5.704  10.220  0.4890  0.8915  0.0977
  145SAPE   C3515961   3.928   5.876  10.172 -0.0970  0.1897  1.1275
  145SAPE   H5X15962   4.000   5.958  10.193  0.2513  0.4703 -0.8971
  145SAPE   H5Y15963   3.821   5.900  10.191 -1.0605 -0.6076 -2.4070
  145SAPE   C3615964   3.933   5.838  10.018 -0.3645  0.5656  0.0490
  145SAPE   H6X15965   3.862   5.754  10.001 -0.3439  0.6362 -0.3749
  145SAPE   H6Y15966   4.037   5.814   9.988 -1.0095  1.2459 -3.0468
  145SAPE   C3715967   3.886   5.957   9.933  0.1855  0.3164  0.3612
  145SAPE   H7X15968   3.946   6.040   9.976 -0.4486  1.5386 -1.0209
  145SAPE   H7Y15969   3.778   5.978   9.946 -0.2127 -2.4084  2.0820
  145SAPE   C3815970   3.933   5.944   9.785  0.5181 -0.3400  0.1358
  145SAPE   H8X15971   3.868   5.879   9.724  1.2864  0.8702 -2.1054
  145SAPE   H8Y15972   4.033   5.895   9.784  0.5052 -0.5310 -3.4965
  145SAPE   C3915973   3.934   6.074   9.706 -0.3572 -0.6463 -0.0762
  145SAPE   H9X15974   4.025   6.128   9.740 -0.6154 -1.4621  2.0763
  145SAPE   H9Y15975   3.839   6.125   9.731  1.1120  2.6783 -0.7785
  145SAPE  C31015976   3.937   6.060   9.551 -0.3702  0.4055  0.0163
  145SAPE  H10X15977   3.960   6.160   9.510  0.3367  0.3820  0.3431
  145SAPE  H10Y15978   3.836   6.037   9.511 -0.3677  0.9330 -0.2952
  145SAPE  C31115979   4.039   5.955   9.504 -0.2658  1.3816 -0.4908
  145SAPE  H11X15980   3.995   5.856   9.528  2.6718 -0.3434 -1.6279
  145SAPE  H11Y15981   4.137   5.964   9.555  0.4928  2.6137 -2.0495
  145SAPE  C31215982   4.063   5.959   9.357 -0.0352 -0.1099 -0.2328
  145SAPE  H12X15983   4.137   6.038   9.332 -0.3851  1.1434  2.3325
  145SAPE  H12Y15984   3.971   5.982   9.299  0.3958  0.4976 -0.6907
  145SAPE  C31315985   4.121   5.828   9.313  0.3415 -0.1285  0.0451
  145SAPE  H13X15986   4.037   5.764   9.279  1.6973 -1.3619 -1.1474
  145SAPE  H13Y15987   4.164   5.765   9.394 -3.8601 -3.2369  0.2049
  145SAPE  C31415988   4.212   5.840   9.192  0.6041 -0.4669  0.3493
  145SAPE  H14X15989   4.261   5.746   9.158  2.4909  0.4802  0.3466
  145SAPE  H14Y15990   4.288   5.918   9.211 -0.8547  1.1026 -0.0208
  145SAPE  C31515991   4.130   5.882   9.070  0.4235 -0.2251  0.0062
  145SAPE  H15X15992   4.077   5.978   9.090  1.3582  0.4705 -0.7274
  145SAPE  H15Y15993   4.055   5.801   9.058 -1.4230  1.3923  0.1109
  145SAPE  C31615994   4.214   5.875   8.945 -0.6310 -1.2015 -0.3391
  145SAPE  H16X15995   4.248   5.772   8.919  0.3159 -0.5532 -1.8026
  145SAPE  H16Y15996   4.307   5.934   8.959 -2.2172  1.0005  1.6854
  145SAPE  C31715997   4.148   5.920   8.820 -0.5204  0.8591  0.1835
  145SAPE  H17X15998   4.060   5.853   8.808 -0.0128  0.3504 -0.7878
  145SAPE  H17Y15999   4.225   5.913   8.740  0.8558 -0.8879  1.5962
  145SAPE  C31816000   4.115   6.065   8.820  0.0082 -0.0148  0.1975
  145SAPE  H18X16001   4.203   6.129   8.797  0.4860 -1.7879 -3.6480
  145SAPE  H18Y16002   4.069   6.115   8.908 -2.3945  0.6877 -1.3611
  145SAPE  H18Z16003   4.034   6.087   8.748 -1.1907 -0.2227  1.4285
  146SAPE     N16004   0.814   6.751  10.807  0.7456 -0.0545 -0.3646
  146SAPE   HN116005   0.802   6.838  10.751  1.9117  0.7836  0.6512
  146SAPE   HN216006   0.845   6.770  10.904 -2.2944  3.5804  0.1303
  146SAPE   HN316007   0.882   6.692  10.755  1.4919  1.0804 -0.7064
  146SAPE   C1216008   0.693   6.667  10.812 -0.0391  0.2076  0.7984
  146SAPE  H12A16009   0.608   6.738  10.825  0.7042  1.7842 -2.2026
  146SAPE  H12B16010   0.698   6.595  10.897 -1.7462  0.5924  1.2619
  146SAPE   C1116011   0.694   6.595  10.682 -0.0384 -0.2547  0.3891
  146SAPE  H11A16012   0.682   6.672  10.602 -2.1613  0.4160  1.2882
  146SAPE  H11B16013   0.601   6.536  10.670  0.1962 -0.3111 -1.5954
  146SAPE     P16014   0.806   6.370  10.683  0.1410 -0.1785 -0.4619
  146SAPE   O1316015   0.940   6.311  10.707  0.1747 -0.2092 -0.5610
  146SAPE   O1416016   0.696   6.342  10.780  0.7885 -0.5633 -1.0234
  146SAPE   O1216017   0.814   6.524  10.671 -0.2305  0.2499  0.0464
  146SAPE   O1116018   0.764   6.326  10.534 -0.2140  0.1049 -0.8654
  146SAPE    C116019   0.879   6.325  10.440 -0.1925 -0.4320 -0.3034
  146SAPE    HA16020   0.969   6.269  10.475 -0.2396 -0.5299 -0.3392
  146SAPE    HB16021   0.850   6.292  10.338  0.0623  4.5458 -2.2649
  146SAPE    C216022   0.935   6.464  10.405  0.3202  0.1063  0.0003
  146SAPE    HS16023   0.992   6.499  10.494 -0.2309 -0.7467  0.7122
  146SAPE   O2116024   0.829   6.553  10.371 -0.0608  0.1663  0.4075
  146SAPE   C2116025   0.847   6.682  10.388 -0.4256  0.3124 -0.5645
  146SAPE   O2216026   0.940   6.731  10.452  0.5319 -0.3034 -0.1145
  146SAPE   C2216027   0.736   6.770  10.326 -0.1573  0.2408 -0.5680
  146SAPE   H2R16028   0.690   6.810  10.419  0.6771 -0.8104  0.3228
  146SAPE   H2S16029   0.789   6.849  10.269 -1.1949  1.6580  0.3759
  146SAPE    C316030   1.024   6.457  10.279 -0.1822  0.1112 -0.1446
  146SAPE    HX16031   1.111   6.390  10.289 -0.1469  0.1155 -0.4149
  146SAPE    HY16032   1.071   6.557  10.267 -0.2856 -0.0843 -2.6867
  146SAPE   O3116033   0.962   6.406  10.157 -0.1274  0.2424 -0.4022
  146SAPE   C3116034   0.945   6.499  10.054 -0.2954  0.4409 -0.2954
  146SAPE   O3216035   0.951   6.617  10.065 -0.1571  0.4594 -0.5911
  146SAPE   C3216036   0.906   6.425   9.924  0.1565  0.0481 -0.4052
  146SAPE   H2X16037   0.827   6.485   9.874 -0.4120 -1.9038 -2.0126
  146SAPE   H2Y16038   0.867   6.324   9.949 -0.6467 -0.0898 -2.0889
  146SAPE   C2316039   0.628   6.690  10.250 -0.6347 -0.1613 -0.6807
  146SAPE   H3R16040   0.608   6.590  10.295  1.2996  0.4223  1.6822
  146SAPE   H3S16041   0.664   6.683  10.145 -0.2220 -0.3471 -0.5289
  146SAPE   C2416042   0.488   6.757  10.241  0.1013 -1.2301  0.2732
  146SAPE   H4R16043   0.451   6.783  10.342  0.2934 -0.1875  0.0841
  146SAPE   H4S16044   0.411   6.691  10.196 -1.7172 -0.4140  2.0638
  146SAPE   C2516045   0.493   6.896  10.177  0.3577 -0.1788  0.1139
  146SAPE   H5R16046   0.530   6.972  10.248 -0.1149 -1.0629  1.3313
  146SAPE   C2616047   0.461   6.916  10.044 -0.0991 -0.1336  0.5796
  146SAPE   H6R16048   0.484   7.014  10.000 -2.9600  0.4272  0.1623
  146SAPE   C2716049   0.417   6.806   9.944  0.2412  0.0354 -0.5069
  146SAPE   H7R16050   0.322   6.828   9.891 -0.5848  1.0206  1.2984
  146SAPE   H7S16051   0.385   6.713   9.996 -3.8170  1.2717 -0.4684
  146SAPE   C2816052   0.537   6.773   9.860 -0.5616 -0.1652 -0.4062
  146SAPE   H8R16053   0.634   6.774   9.912 -0.8595 -0.2832  0.1549
  146SAPE   C2916054   0.542   6.757   9.726 -0.0906  0.0381 -0.1276
  146SAPE   H9R16055   0.640   6.727   9.686  0.8683  1.6849  0.8986
  146SAPE  C21016056   0.427   6.745   9.625  0.1489 -0.1478  0.0434
  146SAPE  H10R16057   0.336   6.710   9.677  1.5775 -0.9319  2.1928
  146SAPE  H10S16058   0.448   6.661   9.556  0.8307 -0.2865  0.4141
  146SAPE  C21116059   0.404   6.873   9.552  0.4179 -0.0108  0.0321
  146SAPE  H11R16060   0.359   6.948   9.620 -1.2103 -1.1155  0.2286
  146SAPE  C21216061   0.419   6.904   9.423 -0.7494 -0.7188 -0.7480
  146SAPE  H12R16062   0.417   7.010   9.394 -1.7687 -1.2132 -2.6500
  146SAPE  C21316063   0.477   6.818   9.315  0.0348  0.2862  0.8201
  146SAPE  H13R16064   0.474   6.712   9.350  0.0746 -0.5459 -1.5517
  146SAPE  H13S16065   0.585   6.843   9.307 -0.1689  0.6911 -0.9574
  146SAPE  C21416066   0.397   6.830   9.182 -1.1293 -0.4302  0.0043
  146SAPE  H14R16067   0.421   6.925   9.130  1.6658  0.7195  3.0179
  146SAPE  C21516068   0.292   6.762   9.131  0.3504 -0.7254  0.1547
  146SAPE  H15R16069   0.256   6.789   9.031 -1.0989 -2.3425  0.1889
  146SAPE  C21616070   0.235   6.638   9.196  0.4562  0.7367 -0.0457
  146SAPE  H16R16071   0.129   6.663   9.218 -1.1921 -2.2317 -3.5769
  146SAPE  H16S16072   0.272   6.605   9.295 -0.9404  1.1768  0.6555
  146SAPE  C21716073   0.224   6.507   9.108  0.4586  0.7576 -0.6202
  146SAPE  H17R16074   0.164   6.505   9.014  0.1297  0.5553 -0.4063
  146SAPE  H17S16075   0.170   6.442   9.180  0.4182  0.1217 -1.2143
  146SAPE  C21816076   0.352   6.437   9.059 -0.3109 -0.4939  0.0696
  146SAPE  H18R16077   0.416   6.409   9.145 -0.5663  1.0711  0.8185
  146SAPE  H18S16078   0.401   6.510   8.992 -1.3577 -0.2521 -0.4518
  146SAPE  C21916079   0.330   6.301   8.975  0.2249  0.0759 -0.3407
  146SAPE  H19R16080   0.239   6.313   8.913 -1.5062  1.3275  2.2617
  146SAPE  H19S16081   0.321   6.226   9.057  0.4995  0.2131 -0.1847
  146SAPE  C22016082   0.456   6.264   8.890 -0.0987 -0.2858  0.5361
  146SAPE  H20R16083   0.445   6.164   8.842  0.1282 -0.5448  1.0216
  146SAPE  H20S16084   0.536   6.249   8.966  0.1705 -0.7874  0.1584
  146SAPE  H20T16085   0.494   6.343   8.822  3.0740 -0.8587  1.4357
  146SAPE   C3316086   1.022   6.416   9.831  0.4080 -0.1538  0.4729
  146SAPE   H3X16087   1.113   6.382   9.885 -0.9377  0.2288  3.1863
  146SAPE   H3Y16088   1.063   6.515   9.799  2.4136 -1.5383 -1.5035
  146SAPE   C3416089   0.996   6.323   9.703 -0.3229 -0.2118 -0.3997
  146SAPE   H4X16090   0.910   6.371   9.652  0.9151  3.6944  0.7685
  146SAPE   H4Y16091   0.983   6.218   9.736  1.3382  0.2829  2.0967
  146SAPE   C3516092   1.120   6.329   9.608  0.4553 -0.0657 -0.4592
  146SAPE   H5X16093   1.204   6.288   9.668 -0.8730 -0.7762  0.9789
  146SAPE   H5Y16094   1.144   6.432   9.573 -2.6617  1.2638  0.9558
  146SAPE   C3616095   1.097   6.247   9.483  0.0413  0.2810  0.2725
  146SAPE   H6X16096   1.007   6.292   9.437  0.6851  2.3864  0.9569
  146SAPE   H6Y16097   1.087   6.139   9.506  0.4790 -0.1719 -1.5173
  146SAPE   C3716098   1.204   6.252   9.371  0.5567  0.3094  0.6388
  146SAPE   H7X16099   1.305   6.233   9.413  1.2993  1.4137 -0.5678
  146SAPE   H7Y16100   1.222   6.357   9.339 -0.9334  0.7412  1.1009
  146SAPE   C3816101   1.168   6.166   9.254  0.8786  0.5383  0.6981
  146SAPE   H8X16102   1.074   6.204   9.207  0.2872 -1.8060 -0.1622
  146SAPE   H8Y16103   1.152   6.062   9.288  0.7653 -0.1248 -1.2462
  146SAPE   C3916104   1.280   6.175   9.150  0.4752 -0.3584 -0.1256
  146SAPE   H9X16105   1.358   6.100   9.176 -0.5504 -1.0806  0.9885
  146SAPE   H9Y16106   1.333   6.271   9.163 -1.7458  0.7625  1.3417
  146SAPE  C31016107   1.266   6.151   9.003 -0.7794  0.7270 -0.2528
  146SAPE  H10X16108   1.223   6.051   8.982 -0.3093  0.3103  0.6884
  146SAPE  H10Y16109   1.365   6.158   8.953  1.2884 -2.1687  2.9817
  146SAPE  C31116110   1.166   6.243   8.929 -0.4646  0.2611  0.1791
  146SAPE  H11X16111   1.161   6.344   8.976  2.6385  0.0457  1.2074
  146SAPE  H11Y16112   1.064   6.201   8.930  0.0772 -1.2703 -1.8579
  146SAPE  C31216113   1.220   6.247   8.782 -0.2729  0.0117 -0.0701
  146SAPE  H12X16114   1.220   6.143   8.743 -0.6564  0.0792 -0.2581
  146SAPE  H12Y16115   1.322   6.289   8.773  0.4345 -1.7067 -0.4499
  146SAPE  C31316116   1.111   6.309   8.687 -0.1729  1.6359 -0.0433
  146SAPE  H13X16117   1.105   6.416   8.716 -0.6289  1.7973 -0.7074
  146SAPE  H13Y16118   1.017   6.254   8.711  0.4386  0.6196  0.0614
  146SAPE  C31416119   1.137   6.312   8.538 -0.3581 -0.3699 -0.5953
  146SAPE  H14X16120   1.234   6.363   8.523 -0.4815  0.6027  1.5781
  146SAPE  H14Y16121   1.056   6.371   8.491 -0.5004  0.1311  0.2617
  146SAPE  C31516122   1.157   6.180   8.473 -0.0364  0.3081  0.3643
  146SAPE  H15X16123   1.078   6.107   8.500 -2.8030  2.5180 -1.1773
  146SAPE  H15Y16124   1.258   6.141   8.500 -0.4506 -1.7650 -0.8959
  146SAPE  C31616125   1.144   6.198   8.320 -0.1312  0.5809  0.0120
  146SAPE  H16X16126   1.035   6.214   8.308 -0.2686  0.2857  0.8625
  146SAPE  H16Y16127   1.164   6.094   8.287 -0.4637  0.3510  0.5452
  146SAPE  C31716128   1.248   6.295   8.256  0.4936  0.2485  0.0292
  146SAPE  H17X16129   1.347   6.261   8.293 -0.4399  0.9176  3.4278
  146SAPE  H17Y16130   1.228   6.396   8.295 -0.5114 -0.4263  1.3146
  146SAPE  C31816131   1.242   6.300   8.107 -0.0397 -0.5813  0.0206
  146SAPE  H18X16132   1.297   6.215   8.062  1.0473  0.0494  0.1289
  146SAPE  H18Y16133   1.294   6.392   8.072 -0.3287  0.1828  1.5033
  146SAPE  H18Z16134   1.137   6.289   8.070  0.3840 -0.9157 -1.1090
  147SAPE     N16135   0.399   0.181   6.202  0.7370  0.2640  0.5063
  147SAPE   HN116136   0.480   0.230   6.159  1.2404 -0.8372  0.1513
  147SAPE   HN216137   0.428   0.139   6.293  1.1350  1.7408  1.0944
  147SAPE   HN316138   0.369   0.099   6.145 -2.7363  1.6693  0.0815
  147SAPE   C1216139   0.276   0.256   6.231 -0.5062  0.1865  0.3037
  147SAPE  H12A16140   0.261   0.324   6.144  1.7104 -0.4090 -0.6278
  147SAPE  H12B16141   0.308   0.335   6.302  0.3391  0.3063 -0.1931
  147SAPE   C1116142   0.164   0.177   6.295  0.2742  0.8471  0.9933
  147SAPE  H11A16143   0.093   0.259   6.318 -1.3356 -0.4847  0.9685
  147SAPE  H11B16144   0.199   0.129   6.389  0.3034 -0.9468  0.1119
  147SAPE     P16145   0.103  -0.071   6.224 -0.2910 -0.3112 -0.0769
  147SAPE   O1316146  -0.023  -0.124   6.170  0.1602  0.1053 -0.2721
  147SAPE   O1416147   0.235  -0.108   6.165  0.4414  0.4183 -0.6110
  147SAPE   O1216148   0.106   0.081   6.204 -0.3314 -0.6074  0.9819
  147SAPE   O1116149   0.102  -0.084   6.386  0.3097 -0.7666  0.3984
  147SAPE    C116150  -0.021  -0.097   6.454  0.3621 -0.8650  0.6552
  147SAPE    HA16151  -0.107  -0.045   6.408  1.3029  0.6046  0.5129
  147SAPE    HB16152  -0.055  -0.203   6.444 -2.5597  0.0999 -0.7421
  147SAPE    C216153  -0.018  -0.075   6.607  0.4204  0.8288 -0.1195
  147SAPE    HS16154  -0.114  -0.105   6.654  1.3318 -0.3990  1.0234
  147SAPE   O2116155   0.008   0.072   6.630 -0.3687  0.4586  0.2210
  147SAPE   C2116156  -0.108   0.144   6.640 -0.0182 -0.4305 -0.0219
  147SAPE   O2216157  -0.220   0.102   6.630  0.7556 -0.0650  0.0510
  147SAPE   C2216158  -0.075   0.291   6.680  0.2084  0.4331 -0.5596
  147SAPE   H2R16159   0.035   0.303   6.689  0.4396 -1.6256 -0.0992
  147SAPE   H2S16160  -0.113   0.361   6.603 -1.6171  0.6952  0.5188
  147SAPE    C316161   0.095  -0.165   6.677 -0.1411  0.6062  0.0455
  147SAPE    HX16162   0.198  -0.150   6.639  0.8564 -3.8271  0.3869
  147SAPE    HY16163   0.076  -0.273   6.656 -0.3663  0.6236  0.1554
  147SAPE   O3116164   0.105  -0.142   6.822  0.5485 -0.0878  0.6827
  147SAPE   C3116165  -0.001  -0.184   6.898  0.3353  0.2249 -0.7531
  147SAPE   O3216166  -0.100  -0.248   6.861 -0.1210 -0.9314  0.4498
  147SAPE   C3216167   0.021  -0.142   7.045  0.5145  0.0411 -0.1005
  147SAPE   H2X16168   0.056  -0.037   7.033 -1.0761  0.5382 -0.7061
  147SAPE   H2Y16169   0.097  -0.209   7.091  0.6189 -0.6951 -1.3042
  147SAPE   C2316170  -0.150   0.326   6.814 -0.2437  0.0092 -0.4204
  147SAPE   H3R16171  -0.260   0.331   6.797 -0.6487 -2.4707  0.9040
  147SAPE   H3S16172  -0.143   0.435   6.833 -1.2808  0.0862 -0.3974
  147SAPE   C2416173  -0.128   0.235   6.932  0.8573 -0.2757  0.0686
  147SAPE   H4R16174  -0.157   0.132   6.902  3.5970 -0.4307 -2.5168
  147SAPE   H4S16175  -0.198   0.268   7.010 -0.4167  0.9839 -1.5441
  147SAPE   C2516176   0.019   0.238   6.970 -0.2344 -0.0460  0.0326
  147SAPE   H5R16177   0.084   0.165   6.919 -0.6609 -1.2693  1.1608
  147SAPE   C2616178   0.072   0.299   7.075 -0.6855 -0.2237  0.0126
  147SAPE   H6R16179   0.176   0.268   7.097 -0.8222 -0.8276 -0.1787
  147SAPE   C2716180  -0.002   0.374   7.183 -0.0140 -0.3791  0.2297
  147SAPE   H7R16181  -0.001   0.296   7.262 -1.5266 -0.1839  0.4757
  147SAPE   H7S16182  -0.105   0.403   7.151  0.8538 -0.7885 -3.4872
  147SAPE   C2816183   0.074   0.491   7.238 -0.2235 -0.3847 -0.3544
  147SAPE   H8R16184   0.124   0.549   7.159 -0.0999  0.1547  0.1141
  147SAPE   C2916185   0.111   0.520   7.369 -0.9055 -0.0014  0.5103
  147SAPE   H9R16186   0.182   0.604   7.379  0.7188 -1.3352  0.5291
  147SAPE  C21016187   0.080   0.458   7.502  0.8529  0.1262  0.0771
  147SAPE  H10R16188   0.054   0.352   7.478  0.8639  0.3816 -1.1586
  147SAPE  H10S16189  -0.009   0.505   7.549  0.0047 -1.5642  0.2361
  147SAPE  C21116190   0.208   0.467   7.589 -0.5780  0.9225 -0.2948
  147SAPE  H11R16191   0.305   0.458   7.540 -0.9160  0.9839 -0.9865
  147SAPE  C21216192   0.195   0.463   7.729  0.2775 -0.0707  0.9639
  147SAPE  H12R16193   0.286   0.462   7.791  0.8302  2.6465  0.3303
  147SAPE  C21316194   0.061   0.462   7.809  0.0781  0.2312 -0.0734
  147SAPE  H13R16195  -0.005   0.386   7.763 -1.9308  1.9129 -0.1347
  147SAPE  H13S16196   0.011   0.559   7.787  0.7494  0.6828  0.3363
  147SAPE  C21416197   0.069   0.439   7.961  0.0587  0.4217  0.5065
  147SAPE  H14R16198   0.036   0.528   8.017 -0.5435  0.5198  0.0079
  147SAPE  C21516199   0.116   0.335   8.032 -0.2149 -0.3160 -0.2305
  147SAPE  H15R16200   0.106   0.329   8.141  1.6655 -0.6694 -0.0506
  147SAPE  C21616201   0.161   0.207   7.974  0.2543  0.4379 -0.3582
  147SAPE  H16R16202   0.170   0.210   7.863 -0.8943  0.7303 -0.4556
  147SAPE  H16S16203   0.089   0.130   8.008  1.0257 -0.5520 -0.8972
  147SAPE  C21716204   0.303   0.176   8.019 -0.5431 -0.4701  0.2147
  147SAPE  H17R16205   0.364   0.268   8.010 -1.3085 -0.0642 -0.9528
  147SAPE  H17S16206   0.362   0.117   7.945  0.1912  0.1976  0.2548
  147SAPE  C21816207   0.291   0.099   8.153  0.3921  0.3872 -0.5443
  147SAPE  H18R16208   0.214   0.022   8.137  0.2773  0.5829 -0.9422
  147SAPE  H18S16209   0.253   0.187   8.209  1.1335  2.1005 -2.5763
  147SAPE  C21916210   0.418   0.035   8.200 -0.4981 -0.6723  0.6395
  147SAPE  H19R16211   0.419   0.028   8.311 -0.6782 -0.1204  0.6786
  147SAPE  H19S16212   0.505   0.099   8.176 -1.0072  0.1173  0.8699
  147SAPE  C22016213   0.439  -0.105   8.139 -0.3511 -0.5466 -0.3144
  147SAPE  H20R16214   0.354  -0.166   8.178  0.2326 -0.7175  0.7332
  147SAPE  H20S16215   0.529  -0.150   8.187 -0.4488  0.2486  0.6575
  147SAPE  H20T16216   0.458  -0.101   8.030  1.3510 -1.1539 -0.0667
  147SAPE   C3316217  -0.099  -0.156   7.148  0.5176 -0.0735  0.2534
  147SAPE   H3X16218  -0.154  -0.252   7.146 -0.5690  0.5330 -1.8929
  147SAPE   H3Y16219  -0.174  -0.076   7.135 -1.2248 -1.6462  0.2487
  147SAPE   C3416220  -0.049  -0.140   7.301 -0.0718 -0.3901  0.0103
  147SAPE   H4X16221   0.010  -0.047   7.314 -2.3008  1.1597 -0.3736
  147SAPE   H4Y16222  -0.000  -0.236   7.330 -1.2908 -0.5257  1.7510
  147SAPE   C3516223  -0.169  -0.125   7.392  0.0474  0.2238  0.6218
  147SAPE   H5X16224  -0.239  -0.203   7.357  0.7640  0.2690 -0.9681
  147SAPE   H5Y16225  -0.217  -0.025   7.390  0.8792  0.6138 -0.3389
  147SAPE   C3616226  -0.138  -0.166   7.538  0.1649 -0.5873  0.2426
  147SAPE   H6X16227  -0.101  -0.270   7.551  0.1844 -0.5998  0.0886
  147SAPE   H6Y16228  -0.234  -0.166   7.594  0.4278  1.2455  0.7744
  147SAPE   C3716229  -0.040  -0.062   7.612  0.4025 -0.1932 -0.0420
  147SAPE   H7X16230  -0.077   0.039   7.584  2.8342  0.3897 -1.4242
  147SAPE   H7Y16231   0.064  -0.077   7.576  0.8448  1.4092  0.4852
  147SAPE   C3816232  -0.040  -0.086   7.766  0.3646 -0.1699  0.2810
  147SAPE   H8X16233  -0.144  -0.092   7.805  0.4695  1.2680  0.8307
  147SAPE   H8Y16234  -0.008   0.001   7.827  0.5926  1.5123 -2.1281
  147SAPE   C3916235   0.034  -0.213   7.808  0.2369 -0.1144 -0.1455
  147SAPE   H9X16236   0.138  -0.178   7.826 -0.0750  0.7985 -0.0466
  147SAPE   H9Y16237   0.021  -0.289   7.729  0.1059  0.5153 -0.7366
  147SAPE  C31016238  -0.031  -0.269   7.939 -0.1748 -0.2231  0.3636
  147SAPE  H10X16239  -0.001  -0.374   7.954  0.6621  0.0563  0.7393
  147SAPE  H10Y16240  -0.142  -0.273   7.930 -0.2272 -1.7437  1.3555
  147SAPE  C31116241   0.008  -0.186   8.066 -0.0887 -0.2305  0.5219
  147SAPE  H11X16242  -0.012  -0.077   8.069  2.0552  0.2123  0.3443
  147SAPE  H11Y16243   0.116  -0.210   8.069 -0.2103 -1.0551 -0.7167
  147SAPE  C31216244  -0.044  -0.241   8.199  0.3425  0.6424 -0.6716
  147SAPE  H12X16245  -0.023  -0.350   8.196  2.0830  0.9344 -0.1040
  147SAPE  H12Y16246  -0.150  -0.211   8.214  0.5232  0.7377  0.5141
  147SAPE  C31316247   0.027  -0.180   8.317 -0.1234 -0.1576  0.6870
  147SAPE  H13X16248   0.013  -0.071   8.308  1.2016 -0.1316 -2.3528
  147SAPE  H13Y16249   0.137  -0.188   8.298 -0.2067 -0.6377  0.3727
  147SAPE  C31416250  -0.004  -0.236   8.464  0.3934 -0.2357  0.0295
  147SAPE  H14X16251   0.037  -0.338   8.475 -0.1584 -0.4226  0.4305
  147SAPE  H14Y16252  -0.113  -0.259   8.460  0.1754  0.8652 -0.7713
  147SAPE  C31516253   0.024  -0.139   8.582 -0.0716  0.2749 -0.6127
  147SAPE  H15X16254   0.018  -0.192   8.679 -0.4756  2.3622  0.5686
  147SAPE  H15Y16255  -0.058  -0.066   8.596 -0.6071 -0.7875  2.6564
  147SAPE  C31616256   0.156  -0.064   8.587 -0.1588 -0.5714  0.4502
  147SAPE  H16X16257   0.175   0.004   8.672  1.5247 -0.2198 -0.1541
  147SAPE  H16Y16258   0.175   0.001   8.498  1.4421 -0.0817  1.1153
  147SAPE  C31716259   0.280  -0.159   8.585 -0.6467 -0.1672 -0.1385
  147SAPE  H17X16260   0.367  -0.092   8.598  1.2718 -2.5039 -0.1541
  147SAPE  H17Y16261   0.298  -0.209   8.488  3.0655  1.3018 -0.3659
  147SAPE  C31816262   0.294  -0.266   8.693  0.1270  0.2775 -0.2753
  147SAPE  H18X16263   0.381  -0.334   8.680 -0.9979 -1.0346 -1.2875
  147SAPE  H18Y16264   0.207  -0.334   8.680  0.9548 -0.5794 -1.5640
  147SAPE  H18Z16265   0.291  -0.221   8.795  0.6963 -1.5678  0.6066
  148SAPE     N16266   5.861   5.675   6.396  0.3407 -0.0176  0.5241
  148SAPE   HN116267   5.853   5.771   6.435  1.1290 -0.3468  1.5632
  148SAPE   HN216268   5.865   5.676   6.292  0.8586 -1.8207  0.4956
  148SAPE   HN316269   5.781   5.617   6.427 -0.7785  2.0292  1.7326
  148SAPE   C1216270   5.986   5.625   6.455  0.4231  0.2300  0.4449
  148SAPE  H12A16271   5.993   5.649   6.563 -0.2032 -1.7002  0.9384
  148SAPE  H12B16272   6.076   5.680   6.419  0.8614 -0.5706  0.2938
  148SAPE   C1116273   6.004   5.475   6.437  1.2766 -0.5424 -0.4163
  148SAPE  H11A16274   6.098   5.446   6.490 -0.4733 -0.1321  3.2511
  148SAPE  H11B16275   5.995   5.449   6.330  1.4450 -1.2627 -0.2610
  148SAPE     P16276   5.884   5.248   6.467 -0.5918  0.5422 -0.2921
  148SAPE   O1316277   5.763   5.265   6.381 -0.1037  0.3086 -0.4693
  148SAPE   O1416278   6.002   5.188   6.404  0.3927 -0.0089 -0.1331
  148SAPE   O1216279   5.909   5.399   6.506  0.1640 -0.2274 -0.7661
  148SAPE   O1116280   5.854   5.172   6.604 -0.0264  0.3971  0.1833
  148SAPE    C116281   5.780   5.229   6.705  0.1343 -0.0631  0.0996
  148SAPE    HA16282   5.737   5.328   6.677  1.9434  0.3990 -1.2321
  148SAPE    HB16283   5.690   5.166   6.725  1.2563 -2.0553 -0.7643
  148SAPE    C216284   5.862   5.240   6.833 -0.4366  0.2858  0.4514
  148SAPE    HS16285   5.910   5.142   6.852  0.3984  0.4283 -0.7965
  148SAPE   O2116286   5.768   5.269   6.942 -0.8034 -0.4923  0.2117
  148SAPE   C2116287   5.713   5.156   6.989  0.7897  0.5214 -0.0355
  148SAPE   O2216288   5.748   5.046   6.960  1.0215  0.2479 -0.0657
  148SAPE   C2216289   5.587   5.192   7.073 -0.9727  0.2107  0.1409
  148SAPE   H2R16290   5.543   5.287   7.037 -1.9835  0.0364  0.8748
  148SAPE   H2S16291   5.505   5.117   7.062  0.6047 -1.6844  0.7065
  148SAPE    C316292   5.968   5.343   6.822  0.5679 -0.9035 -0.9080
  148SAPE    HX16293   5.919   5.427   6.768  0.2658 -0.5079 -0.0496
  148SAPE    HY16294   6.057   5.322   6.760  1.3857 -1.7314  0.4813
  148SAPE   O3116295   6.015   5.384   6.952  0.2994 -0.1178  0.2840
  148SAPE   C3116296   6.053   5.508   6.974  0.4850  0.2812 -0.8960
  148SAPE   O3216297   6.060   5.597   6.890 -0.2352  0.8825  0.2727
  148SAPE   C3216298   6.086   5.517   7.124  0.5284 -0.2682  0.2713
  148SAPE   H2X16299   6.168   5.448   7.153  2.3706  1.7280  0.0225
  148SAPE   H2Y16300   5.999   5.481   7.183  1.5035 -1.4683  1.0259
  148SAPE   C2316301   5.614   5.186   7.227  0.0052  0.1970 -0.7830
  148SAPE   H3R16302   5.628   5.084   7.269 -1.9384  1.1200  2.4673
  148SAPE   H3S16303   5.531   5.223   7.291  0.8736 -0.6995  0.9228
  148SAPE   C2416304   5.744   5.264   7.270 -0.4748 -0.1243  0.3738
  148SAPE   H4R16305   5.828   5.226   7.207 -0.4258  0.1485  0.2748
  148SAPE   H4S16306   5.780   5.249   7.374  0.4742  1.3626  0.2953
  148SAPE   C2516307   5.725   5.413   7.243 -0.6070  0.6635  0.0275
  148SAPE   H5R16308   5.720   5.451   7.140  1.1975  0.5803 -0.1097
  148SAPE   C2616309   5.719   5.504   7.339  0.1877  0.0935 -0.2469
  148SAPE   H6R16310   5.710   5.604   7.296 -0.4321  0.0473 -0.2232
  148SAPE   C2716311   5.727   5.494   7.489  0.1944 -0.5626  0.2228
  148SAPE   H7R16312   5.719   5.601   7.518  1.0539  0.0192 -1.5573
  148SAPE   H7S16313   5.827   5.473   7.531  1.7135  2.7741 -1.3164
  148SAPE   C2816314   5.621   5.408   7.547 -0.4576 -0.0211  0.3815
  148SAPE   H8R16315   5.598   5.315   7.492 -0.1634  0.0025  0.2175
  148SAPE   C2916316   5.552   5.429   7.657  0.0828 -0.1093  0.4686
  148SAPE   H9R16317   5.466   5.364   7.672  0.0223 -0.4037 -0.9982
  148SAPE  C21016318   5.572   5.544   7.763 -0.1812  0.3603  0.4578
  148SAPE  H10R16319   5.470   5.566   7.801 -0.4405 -1.3097  0.8357
  148SAPE  H10S16320   5.604   5.636   7.712  0.1383  0.6793  1.2135
  148SAPE  C21116321   5.671   5.520   7.878  0.3629  0.1713 -0.1168
  148SAPE  H11R16322   5.712   5.418   7.874 -1.7210 -0.7273  0.4525
  148SAPE  C21216323   5.711   5.609   7.968 -0.5572 -0.5740 -0.3291
  148SAPE  H12R16324   5.796   5.578   8.030 -0.0126  0.0964 -0.7135
  148SAPE  C21316325   5.675   5.757   7.984  0.2510  0.4396 -0.0624
  148SAPE  H13R16326   5.568   5.784   7.973  0.5984  1.7831 -0.4527
  148SAPE  H13S16327   5.725   5.801   7.895  1.7142  0.5658  0.7878
  148SAPE  C21416328   5.744   5.814   8.108 -0.2819  0.3233 -0.2697
  148SAPE  H14R16329   5.851   5.837   8.090  0.1503 -0.3875  1.2110
  148SAPE  C21516330   5.691   5.853   8.221 -0.4223 -0.0351  0.4712
  148SAPE  H15R16331   5.766   5.897   8.289  0.2786  0.7331 -0.7653
  148SAPE  C21616332   5.545   5.825   8.258 -0.5454 -0.0401  0.0766
  148SAPE  H16R16333   5.505   5.728   8.221 -1.8142  0.6456 -0.3992
  148SAPE  H16S16334   5.475   5.905   8.227  0.4416  1.3060  1.1937
  148SAPE  C21716335   5.545   5.811   8.414 -0.6777 -0.6488 -0.5137
  148SAPE  H17R16336   5.591   5.901   8.460 -1.5116 -1.1370  1.3997
  148SAPE  H17S16337   5.596   5.724   8.461 -1.1197 -0.2457  0.7631
  148SAPE  C21816338   5.398   5.807   8.459 -0.3326 -0.4770  0.1600
  148SAPE  H18R16339   5.353   5.711   8.425 -2.5200 -0.8071  3.4834
  148SAPE  H18S16340   5.346   5.898   8.422 -0.2173  0.7528  2.7513
  148SAPE  C21916341   5.381   5.796   8.610  0.2680  0.8897  0.1200
  148SAPE  H19R16342   5.403   5.897   8.652 -0.1901  0.9972  0.0998
  148SAPE  H19S16343   5.443   5.715   8.654 -0.8803  0.1669  0.4408
  148SAPE  C22016344   5.240   5.774   8.656  0.1714 -0.0678  0.5768
  148SAPE  H20R16345   5.206   5.678   8.612  0.8428 -0.1073  0.1329
  148SAPE  H20S16346   5.176   5.860   8.629  0.1803 -0.3170 -0.2752
  148SAPE  H20T16347   5.238   5.764   8.766  0.1252 -0.5897  0.5291
  148SAPE   C3316348   6.119   5.649   7.183  0.0019 -0.0092  0.2338
  148SAPE   H3X16349   6.043   5.720   7.145 -2.8036 -2.4310  0.9730
  148SAPE   H3Y16350   6.224   5.675   7.158  0.1025 -0.2089  0.4433
  148SAPE   C3416351   6.093   5.649   7.332  0.5372 -0.3946 -0.3442
  148SAPE   H4X16352   6.157   5.566   7.369 -1.0852 -1.0951  1.0209
  148SAPE   H4Y16353   5.990   5.633   7.369  1.2698 -0.5622  1.7752
  148SAPE   C3516354   6.142   5.777   7.403  0.7215  0.2380 -0.1452
  148SAPE   H5X16355   6.093   5.873   7.374 -0.4680 -0.2042  0.3200
  148SAPE   H5Y16356   6.251   5.791   7.389  0.9476  0.0690  1.2534
  148SAPE   C3616357   6.111   5.761   7.560  0.0078  0.6463  0.3349
  148SAPE   H6X16358   6.165   5.668   7.588  0.8381  0.6605 -1.1252
  148SAPE   H6Y16359   6.001   5.745   7.572 -0.0550  1.6406  1.1886
  148SAPE   C3716360   6.137   5.888   7.643  0.3889  0.6078  0.5948
  148SAPE   H7X16361   6.061   5.964   7.614 -0.2156  0.3594  1.4734
  148SAPE   H7Y16362   6.238   5.924   7.612  0.9990 -0.9080  0.7141
  148SAPE   C3816363   6.141   5.854   7.795 -0.1406 -0.0935  0.3972
  148SAPE   H8X16364   6.196   5.758   7.802  2.0740  1.0908  0.2203
  148SAPE   H8Y16365   6.038   5.836   7.833 -0.0553  0.6247  0.9845
  148SAPE   C3916366   6.201   5.958   7.893  0.2758  0.2100 -0.3262
  148SAPE   H9X16367   6.159   6.060   7.884  1.2899  0.6393 -0.2985
  148SAPE   H9Y16368   6.304   5.986   7.863 -0.1952  3.4867  0.7015
  148SAPE  C31016369   6.203   5.901   8.032  0.1778  0.7127 -0.3800
  148SAPE  H10X16370   6.249   5.800   8.022  0.5868  0.5242  2.4737
  148SAPE  H10Y16371   6.103   5.885   8.078 -0.4102 -2.3277 -2.3915
  148SAPE  C31116372   6.288   5.988   8.123  0.3080  0.7812  0.0224
  148SAPE  H11X16373   6.396   5.980   8.096  0.6082  3.0124  0.3353
  148SAPE  H11Y16374   6.291   5.950   8.227 -0.7440 -1.2987 -0.6638
  148SAPE  C31216375   6.235   6.132   8.116  0.0374 -0.1305  0.9510
  148SAPE  H12X16376   6.268   6.187   8.025  2.1642  0.6790  2.1324
  148SAPE  H12Y16377   6.282   6.191   8.197 -0.4490 -0.1365  1.2362
  148SAPE  C31316378   6.082   6.156   8.133  0.3065 -0.1959 -0.2310
  148SAPE  H13X16379   6.015   6.103   8.061  0.5655  1.3312 -1.6633
  148SAPE  H13Y16380   6.069   6.266   8.135  0.1094 -0.2248  0.4488
  148SAPE  C31416381   6.045   6.115   8.275 -0.2309  0.2528 -0.2799
  148SAPE  H14X16382   6.132   6.130   8.342 -2.2507  0.8830  2.3404
  148SAPE  H14Y16383   6.030   6.005   8.275 -0.3597  0.2515 -1.4452
  148SAPE  C31516384   5.930   6.193   8.334  0.8446  0.2565  0.7444
  148SAPE  H15X16385   5.842   6.171   8.268 -1.2239 -0.2912  3.4959
  148SAPE  H15Y16386   5.937   6.304   8.333 -0.2245  0.3446 -0.4370
  148SAPE  C31616387   5.879   6.145   8.467 -0.3451  0.7961  0.0674
  148SAPE  H16X16388   5.955   6.155   8.547  0.7146  0.1257 -0.8129
  148SAPE  H16Y16389   5.855   6.037   8.473 -1.2796  0.9975  0.1268
  148SAPE  C31716390   5.756   6.218   8.510  1.0470  0.1245  0.6306
  148SAPE  H17X16391   5.671   6.212   8.438  1.4964  0.5237  0.0594
  148SAPE  H17Y16392   5.788   6.323   8.522 -0.3538  1.2104 -3.5342
  148SAPE  C31816393   5.704   6.169   8.640 -0.1093 -0.4798  0.6618
  148SAPE  H18X16394   5.641   6.249   8.685  0.8141  1.3348 -1.1258
  148SAPE  H18Y16395   5.796   6.162   8.703  1.1841 -0.0447 -1.1029
  148SAPE  H18Z16396   5.652   6.071   8.634 -1.1738  0.1375 -0.5040
  149SAPE     N16397   4.918   4.943   6.478  0.7924  0.2494  0.4355
  149SAPE   HN116398   5.018   4.918   6.489  0.3266 -2.8923 -1.1442
  149SAPE   HN216399   4.900   5.041   6.506 -0.2197 -0.7715  3.8020
  149SAPE   HN316400   4.855   4.879   6.530 -1.6196 -0.7768 -3.3258
  149SAPE   C1216401   4.883   4.896   6.339 -0.2169 -0.2051  0.1902
  149SAPE  H12A16402   4.925   4.960   6.259  0.0807 -0.4047  0.1859
  149SAPE  H12B16403   4.773   4.887   6.320 -0.3851  0.3860  0.8355
  149SAPE   C1116404   4.939   4.757   6.325  0.0272 -0.4387  0.0374
  149SAPE  H11A16405   5.044   4.755   6.361  0.2561 -0.6541 -0.6137
  149SAPE  H11B16406   4.946   4.730   6.217  0.8407  0.4339 -0.1368
  149SAPE     P16407   4.867   4.514   6.390 -0.1440  0.5087 -0.2327
  149SAPE   O1316408   4.738   4.463   6.340 -0.3646  0.0488  0.0661
  149SAPE   O1416409   4.989   4.473   6.322 -0.4788  0.3998  0.2286
  149SAPE   O1216410   4.864   4.674   6.410 -0.4115  0.4872 -0.0557
  149SAPE   O1116411   4.875   4.465   6.547  0.4185 -0.2144  0.4047
  149SAPE    C116412   4.983   4.505   6.634 -0.6328  0.2674  0.1062
  149SAPE    HA16413   5.022   4.609   6.626  0.1571  0.0961  1.4015
  149SAPE    HB16414   4.943   4.503   6.738 -0.0356 -0.0821  0.3370
  149SAPE    C216415   5.096   4.403   6.630 -0.2255  0.7141 -0.8057
  149SAPE    HS16416   5.132   4.399   6.525 -0.9655  2.4663 -1.1637
  149SAPE   O2116417   5.052   4.276   6.694  0.0070 -0.4550 -0.1256
  149SAPE   C2116418   5.121   4.175   6.653  0.2085 -0.2962  0.2146
  149SAPE   O2216419   5.199   4.174   6.559 -0.1857 -0.1636  0.1815
  149SAPE   C2216420   5.081   4.041   6.733 -0.0760 -0.0462 -0.6004
  149SAPE   H2R16421   5.041   4.077   6.831  1.3184  0.7107 -0.2734
  149SAPE   H2S16422   4.996   3.997   6.677 -0.1533  0.7425 -1.1226
  149SAPE    C316423   5.217   4.459   6.703 -0.0688  0.1773  0.0258
  149SAPE    HX16424   5.174   4.487   6.802 -1.6536 -0.3731 -0.4849
  149SAPE    HY16425   5.241   4.552   6.648 -4.5146  0.3276 -2.0713
  149SAPE   O3116426   5.323   4.370   6.725 -0.0791  0.1048  0.2779
  149SAPE   C3116427   5.433   4.426   6.786 -0.1763 -0.5722 -0.1271
  149SAPE   O3216428   5.443   4.545   6.804  0.0510 -0.2296 -0.2008
  149SAPE   C3216429   5.528   4.321   6.805 -0.4654  0.5575  0.2985
  149SAPE   H2X16430   5.621   4.341   6.748  0.6226 -0.7954  1.5089
  149SAPE   H2Y16431   5.489   4.225   6.766 -0.6534  0.8710 -0.2879
  149SAPE   C2316432   5.200   3.943   6.756  0.2295 -0.0493 -0.0361
  149SAPE   H3R16433   5.278   3.997   6.814 -2.8178  1.5026  2.9994
  149SAPE   H3S16434   5.247   3.922   6.657  1.4880  0.1029  0.5153
  149SAPE   C2416435   5.163   3.809   6.819 -0.6681  0.3648  0.4406
  149SAPE   H4R16436   5.258   3.753   6.836 -1.2313 -0.4780  0.8984
  149SAPE   H4S16437   5.094   3.752   6.753 -1.1502 -0.3513  1.5293
  149SAPE   C2516438   5.079   3.842   6.945 -0.1749  0.4320 -0.3093
  149SAPE   H5R16439   4.977   3.877   6.923 -1.8365 -2.8723  1.4307
  149SAPE   C2616440   5.107   3.820   7.077 -0.3269 -0.8160  0.5013
  149SAPE   H6R16441   5.038   3.854   7.156 -2.8543  0.3427 -2.0554
  149SAPE   C2716442   5.234   3.765   7.131  0.0199 -0.6712 -0.2217
  149SAPE   H7R16443   5.300   3.852   7.148 -0.9391 -0.0345  0.3081
  149SAPE   H7S16444   5.293   3.696   7.067  2.7325  1.3265 -0.0244
  149SAPE   C2816445   5.222   3.701   7.265  0.1038  0.2755 -0.1064
  149SAPE   H8R16446   5.223   3.591   7.271  1.3953  0.3369  1.3336
  149SAPE   C2916447   5.219   3.763   7.388  0.1883 -0.2247 -0.2854
  149SAPE   H9R16448   5.208   3.702   7.479 -0.0584  1.3689  0.7851
  149SAPE  C21016449   5.228   3.912   7.412  0.4142 -0.4851 -0.7633
  149SAPE  H10R16450   5.244   3.969   7.318 -1.5070 -0.9405 -1.4094
  149SAPE  H10S16451   5.328   3.917   7.461  1.2340  0.6042 -2.4662
  149SAPE  C21116452   5.110   3.985   7.472  0.2221  0.0768 -0.0569
  149SAPE  H11R16453   5.030   3.989   7.396 -0.3927 -2.5879  0.3290
  149SAPE  C21216454   5.094   4.037   7.596  0.3224  0.2205  0.8784
  149SAPE  H12R16455   5.004   4.091   7.630 -0.6962 -0.5083 -0.5834
  149SAPE  C21316456   5.205   4.048   7.697 -0.2484  0.4269  0.1377
  149SAPE  H13R16457   5.241   4.150   7.720  0.1579  0.3853 -0.2917
  149SAPE  H13S16458   5.301   4.005   7.661 -1.2481 -0.2419 -1.8595
  149SAPE  C21416459   5.152   3.969   7.817 -0.3599  0.3492  0.6484
  149SAPE  H14R16460   5.063   3.904   7.806 -0.2555  0.4077 -0.7745
  149SAPE  C21516461   5.210   3.968   7.934 -0.1185  0.1028 -1.0646
  149SAPE  H15R16462   5.171   3.916   8.023  0.4802  2.5773  0.7854
  149SAPE  C21616463   5.331   4.038   7.976 -0.6691  0.4821 -0.5075
  149SAPE  H16R16464   5.361   4.115   7.901  2.2023  0.8805  0.9084
  149SAPE  H16S16465   5.421   3.973   7.974  0.1469  1.5059  0.6838
  149SAPE  C21716466   5.333   4.108   8.117  0.2525 -0.2521  0.0327
  149SAPE  H17R16467   5.232   4.139   8.151  1.4485  1.2041  2.5405
  149SAPE  H17S16468   5.395   4.199   8.103 -1.8142  1.3625  0.7890
  149SAPE  C21816469   5.377   4.009   8.227  0.1357  0.6806  0.0927
  149SAPE  H18R16470   5.471   3.952   8.209 -0.0715 -0.0308  1.1904
  149SAPE  H18S16471   5.294   3.937   8.244  1.7849 -1.0994  1.0380
  149SAPE  C21916472   5.393   4.066   8.370 -0.2121 -0.6017  0.3874
  149SAPE  H19R16473   5.307   4.134   8.385  0.3529  0.5149 -1.1383
  149SAPE  H19S16474   5.489   4.121   8.358 -1.1485  1.4343  1.7607
  149SAPE  C22016475   5.404   3.971   8.491 -0.4595 -0.0555  0.0373
  149SAPE  H20R16476   5.491   3.903   8.475  1.0269  1.1471  2.3889
  149SAPE  H20S16477   5.313   3.908   8.504  0.9431 -1.9684  1.0992
  149SAPE  H20T16478   5.414   4.036   8.581  1.0277 -0.1376 -0.0352
  149SAPE   C3316479   5.586   4.289   6.951 -0.0608  0.5996  0.4772
  149SAPE   H3X16480   5.651   4.375   6.981 -0.1552  0.5600  0.7936
  149SAPE   H3Y16481   5.649   4.198   6.941  0.6400  1.0768  0.4585
  149SAPE   C3416482   5.475   4.280   7.059  0.6017 -0.7639 -0.3019
  149SAPE   H4X16483   5.373   4.289   7.018  0.4817  0.5664  0.2174
  149SAPE   H4Y16484   5.494   4.367   7.127  1.9443 -0.2538 -1.2722
  149SAPE   C3516485   5.488   4.169   7.167 -0.2493  0.2154  0.1569
  149SAPE   H5X16486   5.499   4.072   7.116  0.4330  1.8643 -3.1063
  149SAPE   H5Y16487   5.400   4.182   7.234  0.3856  1.9823  0.7066
  149SAPE   C3616488   5.610   4.182   7.249 -0.1731  0.1024 -0.1017
  149SAPE   H6X16489   5.616   4.289   7.279  0.2478 -0.2657  1.2406
  149SAPE   H6Y16490   5.707   4.161   7.198  0.2466  0.2871  0.6019
  149SAPE   C3716491   5.602   4.090   7.375  0.2694 -0.2451 -0.2114
  149SAPE   H7X16492   5.628   3.985   7.351  0.5226 -0.3425  0.4709
  149SAPE   H7Y16493   5.504   4.079   7.426  1.1912  0.2690  1.7749
  149SAPE   C3816494   5.706   4.140   7.481  0.1092 -0.0622  0.7691
  149SAPE   H8X16495   5.692   4.249   7.498 -1.7738 -0.0195 -0.7240
  149SAPE   H8Y16496   5.811   4.124   7.446 -1.3769 -1.3026 -3.8736
  149SAPE   C3916497   5.684   4.069   7.619  0.1350  0.3792 -0.1326
  149SAPE   H9X16498   5.724   3.967   7.605 -0.9390 -0.1465  0.5216
  149SAPE   H9Y16499   5.576   4.069   7.649  0.1171  1.0041 -0.1689
  149SAPE  C31016500   5.760   4.131   7.742 -0.0061  0.3811  0.4231
  149SAPE  H10X16501   5.722   4.235   7.750 -1.6264 -0.2693  1.8054
  149SAPE  H10Y16502   5.868   4.140   7.718  0.3823  0.8718  2.2018
  149SAPE  C31116503   5.733   4.057   7.877 -0.6670 -0.0197  0.5460
  149SAPE  H11X16504   5.772   3.954   7.867  1.3095  0.7712 -0.6373
  149SAPE  H11Y16505   5.624   4.051   7.893 -0.8655  2.1394  0.3895
  149SAPE  C31216506   5.800   4.124   7.990  0.2533 -1.1278 -0.2864
  149SAPE  H12X16507   5.748   4.223   7.993  2.9883  0.4030 -0.4838
  149SAPE  H12Y16508   5.909   4.136   7.972  0.1172  0.4453 -0.2394
  149SAPE  C31316509   5.790   4.067   8.131  0.4816 -0.4368  0.3935
  149SAPE  H13X16510   5.871   3.999   8.164  1.5703  1.1230  1.0712
  149SAPE  H13Y16511   5.699   4.004   8.145 -1.3010  2.2141  1.6875
  149SAPE  C31416512   5.776   4.170   8.239  0.5648 -0.0417  0.2665
  149SAPE  H14X16513   5.787   4.112   8.333 -0.3628 -0.7055 -0.0104
  149SAPE  H14Y16514   5.674   4.215   8.242  1.1480  1.3892 -0.5276
  149SAPE  C31516515   5.870   4.296   8.228  0.5161 -0.6537 -0.1360
  149SAPE  H15X16516   5.850   4.361   8.141  2.5014  1.8984  1.1706
  149SAPE  H15Y16517   5.975   4.262   8.221  0.4264 -0.5482 -2.9994
  149SAPE  C31616518   5.844   4.399   8.344 -0.2743 -0.1096  0.3702
  149SAPE  H16X16519   5.868   4.342   8.436 -0.9336  0.4666  0.9185
  149SAPE  H16Y16520   5.734   4.416   8.342 -0.0988  1.0496 -0.7784
  149SAPE  C31716521   5.930   4.524   8.325  0.1952 -0.3773  0.2092
  149SAPE  H17X16522   5.931   4.578   8.227  0.0664  1.9656  1.4258
  149SAPE  H17Y16523   6.038   4.497   8.333  0.5699  0.4955 -1.3634
  149SAPE  C31816524   5.892   4.627   8.429  0.0166  0.5926  0.2778
  149SAPE  H18X16525   5.885   4.575   8.527  0.2814  0.8412  0.4299
  149SAPE  H18Y16526   5.798   4.681   8.407  0.7627  2.4152  1.2725
  149SAPE  H18Z16527   5.968   4.708   8.437 -0.2117  1.1748 -2.4317
  150SAPE     N16528   3.280   5.664   6.220 -0.0690  0.6834 -0.1558
  150SAPE   HN116529   3.258   5.743   6.155 -0.1455 -1.1738 -2.5363
  150SAPE   HN216530   3.360   5.608   6.184  0.6962  0.4209  1.8390
  150SAPE   HN316531   3.199   5.605   6.244 -0.5755  0.6312 -1.8393
  150SAPE   C1216532   3.352   5.711   6.352  0.2344  0.2002 -0.3162
  150SAPE  H12A16533   3.287   5.782   6.407  2.5057  0.7622  1.8539
  150SAPE  H12B16534   3.445   5.769   6.332  0.5911  0.4329  1.7852
  150SAPE   C1116535   3.377   5.587   6.439 -0.8571 -1.0468  0.2144
  150SAPE  H11A16536   3.282   5.557   6.489 -1.0629  0.1395  0.5692
  150SAPE  H11B16537   3.457   5.609   6.513 -2.3035  0.0580  1.5135
  150SAPE     P16538   3.548   5.395   6.393  0.2899 -0.3145 -0.0550
  150SAPE   O1316539   3.548   5.278   6.300  0.4407  0.6033  0.2929
  150SAPE   O1416540   3.657   5.498   6.390 -0.0591  0.1042  0.5628
  150SAPE   O1216541   3.411   5.468   6.366  0.0929 -0.0174  0.4106
  150SAPE   O1116542   3.537   5.334   6.532 -0.7729 -0.8154 -0.2379
  150SAPE    C116543   3.636   5.321   6.633 -0.9292  0.3691 -0.7038
  150SAPE    HA16544   3.672   5.216   6.639 -1.8185  0.1087  0.5348
  150SAPE    HB16545   3.725   5.386   6.626 -0.5539 -0.0069  0.2810
  150SAPE    C216546   3.581   5.363   6.776 -0.2964  0.0622 -0.3519
  150SAPE    HS16547   3.665   5.347   6.846  0.1428  2.1295 -0.3450
  150SAPE   O2116548   3.454   5.305   6.811  0.4788 -0.0737 -0.6659
  150SAPE   C2116549   3.450   5.179   6.857 -0.1770  0.4279 -0.5743
  150SAPE   O2216550   3.541   5.095   6.860 -0.3093  0.3483  0.7831
  150SAPE   C2216551   3.312   5.153   6.917 -0.1451 -0.5827 -0.2022
  150SAPE   H2R16552   3.235   5.148   6.837  0.0916 -1.2006 -0.3963
  150SAPE   H2S16553   3.319   5.057   6.973  0.4330 -1.6455 -2.0214
  150SAPE    C316554   3.544   5.519   6.772 -0.2033  0.7227  0.3722
  150SAPE    HX16555   3.455   5.533   6.707  0.2614  1.9442 -0.0375
  150SAPE    HY16556   3.630   5.578   6.733 -1.0861  1.2341 -0.8909
  150SAPE   O3116557   3.509   5.561   6.906 -0.0114 -0.3912  0.5034
  150SAPE   C3116558   3.618   5.591   6.981  0.3620 -0.0713  0.2960
  150SAPE   O3216559   3.731   5.566   6.955  0.6457  0.3989  0.6335
  150SAPE   C3216560   3.569   5.662   7.109  0.5798  0.0079  0.4955
  150SAPE   H2X16561   3.505   5.585   7.159 -1.9122 -0.2522 -2.7508
  150SAPE   H2Y16562   3.518   5.755   7.079  1.1909  0.9192  2.1651
  150SAPE   C2316563   3.261   5.265   7.011 -0.4515  0.1883  1.0964
  150SAPE   H3R16564   3.159   5.237   7.044 -0.4662 -4.9560 -2.1836
  150SAPE   H3S16565   3.251   5.354   6.946  0.4569 -0.0820  0.5692
  150SAPE   C2416566   3.357   5.301   7.126  0.0633  0.2795 -0.6612
  150SAPE   H4R16567   3.304   5.381   7.182 -0.6140 -0.7645  0.2552
  150SAPE   H4S16568   3.444   5.353   7.081 -0.2504 -1.1287 -3.1058
  150SAPE   C2516569   3.395   5.187   7.214  0.6122  0.7599  0.3037
  150SAPE   H5R16570   3.461   5.112   7.167 -1.4593 -0.7531 -0.3410
  150SAPE   C2616571   3.348   5.160   7.341 -0.1639  0.3916  1.3637
  150SAPE   H6R16572   3.398   5.076   7.392 -0.4862 -1.3241 -1.0184
  150SAPE   C2716573   3.249   5.246   7.423 -1.3761 -0.0948 -0.1011
  150SAPE   H7R16574   3.187   5.309   7.355  2.4402  2.2940 -1.6929
  150SAPE   H7S16575   3.312   5.322   7.475 -1.9557 -0.0759  0.5988
  150SAPE   C2816576   3.169   5.173   7.529  0.5836  0.3866 -0.2393
  150SAPE   H8R16577   3.086   5.117   7.486 -1.1739  1.4777  1.5452
  150SAPE   C2916578   3.188   5.169   7.666  0.5173 -0.2601  0.4885
  150SAPE   H9R16579   3.129   5.096   7.724 -0.5151  0.0168 -0.2016
  150SAPE  C21016580   3.301   5.243   7.735  0.1482  0.1794  0.5996
  150SAPE  H10R16581   3.266   5.347   7.754  1.9104  0.8629  0.2978
  150SAPE  H10S16582   3.387   5.243   7.665  0.4354 -1.2516  0.9314
  150SAPE  C21116583   3.350   5.187   7.870 -0.7967  0.6899  0.4823
  150SAPE  H11R16584   3.453   5.148   7.875 -1.4929 -1.5205 -0.8642
  150SAPE  C21216585   3.277   5.204   7.980 -0.2876 -0.0966 -0.6614
  150SAPE  H12R16586   3.320   5.172   8.076 -0.4412  2.3241  0.2920
  150SAPE  C21316587   3.158   5.296   7.989  0.2593  0.2906 -0.8847
  150SAPE  H13R16588   3.084   5.225   8.033  0.4213  0.3983 -0.4290
  150SAPE  H13S16589   3.118   5.329   7.891  1.0358  2.4124 -0.5378
  150SAPE  C21416590   3.154   5.410   8.087 -0.0678  0.1397 -0.4365
  150SAPE  H14R16591   3.133   5.510   8.046  0.2171  0.1928 -0.4546
  150SAPE  C21516592   3.165   5.419   8.225  0.2944 -1.1003  0.8306
  150SAPE  H15R16593   3.161   5.524   8.259  3.3420 -0.0289 -1.6190
  150SAPE  C21616594   3.183   5.313   8.325  0.2884 -0.0384  0.2754
  150SAPE  H16R16595   3.286   5.313   8.366 -0.3419  0.0196  1.9771
  150SAPE  H16S16596   3.158   5.216   8.278 -0.9515  0.5112 -0.2492
  150SAPE  C21716597   3.079   5.321   8.440 -0.3226  0.5347  0.4554
  150SAPE  H17R16598   2.978   5.326   8.395 -0.0599 -0.2189 -0.2591
  150SAPE  H17S16599   3.104   5.412   8.497  2.4426 -0.6237  1.2570
  150SAPE  C21816600   3.069   5.200   8.532  0.1112 -0.6175 -0.2260
  150SAPE  H18R16601   3.037   5.107   8.480 -1.4024 -0.1077 -0.2501
  150SAPE  H18S16602   2.983   5.212   8.600 -1.0702  0.3729 -1.8257
  150SAPE  C21916603   3.212   5.182   8.600  0.3607  0.1689 -0.4777
  150SAPE  H19R16604   3.247   5.282   8.633  0.1514  0.2556 -0.5130
  150SAPE  H19S16605   3.298   5.160   8.534  0.6635  1.5027 -0.5477
  150SAPE  C22016606   3.229   5.076   8.707 -0.0949 -0.8863 -0.0738
  150SAPE  H20R16607   3.323   5.078   8.766  0.1380  0.1607 -0.4649
  150SAPE  H20S16608   3.201   4.975   8.670 -0.5179 -0.9072  0.2976
  150SAPE  H20T16609   3.149   5.095   8.781 -0.7917 -0.5609 -0.8967
  150SAPE   C3316610   3.675   5.700   7.208 -0.1127  0.6201 -0.7997
  150SAPE   H3X16611   3.738   5.777   7.159 -0.2780  1.5401  0.3850
  150SAPE   H3Y16612   3.737   5.613   7.236  2.2001  1.6933 -2.3214
  150SAPE   C3416613   3.623   5.742   7.346 -0.9128  0.1196 -0.3262
  150SAPE   H4X16614   3.563   5.835   7.348 -0.1209  0.6816  3.0229
  150SAPE   H4Y16615   3.717   5.772   7.396 -0.2520  0.3655 -1.6523
  150SAPE   C3516616   3.549   5.638   7.429 -0.5802 -0.6055 -0.7372
  150SAPE   H5X16617   3.599   5.541   7.407 -0.4383 -0.6396 -0.2794
  150SAPE   H5Y16618   3.443   5.635   7.396 -0.6933 -0.3870 -0.3862
  150SAPE   C3616619   3.574   5.677   7.580 -0.0648 -0.0854  0.4305
  150SAPE   H6X16620   3.679   5.705   7.601 -1.0249  2.3232  2.7645
  150SAPE   H6Y16621   3.553   5.575   7.617  1.9478 -0.5387  0.4213
  150SAPE   C3716622   3.502   5.792   7.630  0.3635 -0.0546  0.7655
  150SAPE   H7X16623   3.396   5.789   7.597  1.2504 -0.8006 -2.3688
  150SAPE   H7Y16624   3.535   5.883   7.577 -1.0243 -0.9552 -1.8229
  150SAPE   C3816625   3.500   5.801   7.786 -0.1166  0.6659  0.1118
  150SAPE   H8X16626   3.583   5.863   7.827  1.3181 -1.3602  0.4491
  150SAPE   H8Y16627   3.521   5.698   7.822 -1.1997  0.6026  0.5869
  150SAPE   C3916628   3.370   5.860   7.844  0.1318 -0.2846  0.3424
  150SAPE   H9X16629   3.289   5.785   7.833  0.8585 -0.7702 -3.1014
  150SAPE   H9Y16630   3.343   5.947   7.781  0.0684 -0.4886  0.0811
  150SAPE  C31016631   3.388   5.925   7.983  0.3642 -0.1554  0.0506
  150SAPE  H10X16632   3.296   5.969   8.027  0.0773 -1.8075  1.1797
  150SAPE  H10Y16633   3.470   6.000   7.971  1.0574 -1.2829 -3.1946
  150SAPE  C31116634   3.418   5.816   8.087  0.0448 -0.8174 -0.3498
  150SAPE  H11X16635   3.519   5.772   8.071 -0.1373 -0.5709 -2.4482
  150SAPE  H11Y16636   3.344   5.733   8.095  0.1065 -0.8363  0.0344
  150SAPE  C31216637   3.412   5.873   8.231 -0.3197 -0.4524 -0.1656
  150SAPE  H12X16638   3.437   5.799   8.310  2.9120  0.4002 -0.2747
  150SAPE  H12Y16639   3.307   5.904   8.249 -0.1615  1.5430 -2.2128
  150SAPE  C31316640   3.496   6.001   8.267  0.4251  0.1323  0.0846
  150SAPE  H13X16641   3.476   6.087   8.199  0.5140 -0.7752 -1.1140
  150SAPE  H13Y16642   3.600   5.972   8.244  0.4381 -1.2719  1.7399
  150SAPE  C31416643   3.497   6.031   8.411 -0.3695  0.3057 -0.1800
  150SAPE  H14X16644   3.399   6.006   8.457  0.0850  0.5215  0.9277
  150SAPE  H14Y16645   3.520   6.138   8.431 -0.9876  0.2795  0.7349
  150SAPE  C31516646   3.606   5.944   8.486  0.0980 -0.2165  0.4275
  150SAPE  H15X16647   3.704   5.985   8.453 -0.7331  1.9638  0.5192
  150SAPE  H15Y16648   3.594   5.836   8.463 -1.2007  0.0719 -0.3426
  150SAPE  C31616649   3.598   5.969   8.638  0.5601 -0.6953  0.2156
  150SAPE  H16X16650   3.509   5.918   8.679 -0.3844 -0.9236 -2.0108
  150SAPE  H16Y16651   3.574   6.076   8.658  2.2463 -0.0451 -1.0009
  150SAPE  C31716652   3.716   5.919   8.720 -0.2282 -0.3111  0.5817
  150SAPE  H17X16653   3.812   5.972   8.702  0.3628 -1.0311  1.5425
  150SAPE  H17Y16654   3.723   5.811   8.694  0.8158  0.0267 -0.6122
  150SAPE  C31816655   3.686   5.925   8.864 -0.9150 -0.6591 -0.2506
  150SAPE  H18X16656   3.659   5.827   8.908  2.4649 -1.1829  0.9454
  150SAPE  H18Y16657   3.620   6.010   8.890  1.3338  0.5091  2.1291
  150SAPE  H18Z16658   3.780   5.938   8.923 -1.6402  0.2741  0.7341
  151SAPE     N16659   6.404   3.647   5.893  0.2986 -0.2412  0.8218
  151SAPE   HN116660   6.383   3.745   5.919 -2.4961 -0.7988  0.9457
  151SAPE   HN216661   6.508   3.648   5.881  0.2897  0.7880  0.7510
  151SAPE   HN316662   6.359   3.628   5.802 -0.4096  2.2280  0.5999
  151SAPE   C1216663   6.364   3.552   5.998  0.3720  0.6867 -0.6348
  151SAPE  H12A16664   6.377   3.449   5.959 -0.9122  1.2449 -2.7360
  151SAPE  H12B16665   6.256   3.565   6.019  0.5385  1.1070 -0.0347
  151SAPE   C1116666   6.448   3.565   6.127 -0.5252 -0.6028 -0.4248
  151SAPE  H11A16667   6.398   3.525   6.218 -0.0067  0.0370  0.1494
  151SAPE  H11B16668   6.451   3.675   6.143 -0.8978 -0.3672 -1.7758
  151SAPE     P16669   6.631   3.369   6.086  0.1784 -0.0686  0.0161
  151SAPE   O1316670   6.573   3.302   5.966  0.5654 -0.4546  0.4639
  151SAPE   O1416671   6.779   3.367   6.097  0.2723  0.0846 -0.0622
  151SAPE   O1216672   6.583   3.520   6.102 -0.3676 -0.3038  0.1195
  151SAPE   O1116673   6.593   3.297   6.218  0.5409 -0.6836 -0.0263
  151SAPE    C116674   6.651   3.337   6.342  0.4565  0.1868 -0.1146
  151SAPE    HA16675   6.752   3.380   6.328 -0.1013  1.6299  0.0743
  151SAPE    HB16676   6.586   3.415   6.388  0.5153  2.0685 -2.9753
  151SAPE    C216677   6.681   3.211   6.426 -0.1211 -1.2613 -0.6171
  151SAPE    HS16678   6.598   3.137   6.420 -0.7518 -0.5052 -1.5415
  151SAPE   O2116679   6.713   3.259   6.558 -0.0110  0.4408  0.3420
  151SAPE   C2116680   6.605   3.292   6.633 -0.2705  0.2527 -0.0753
  151SAPE   O2216681   6.490   3.274   6.599  0.2503  0.7588 -0.1235
  151SAPE   C2216682   6.660   3.340   6.771 -0.1954  1.1945  1.0433
  151SAPE   H2R16683   6.767   3.350   6.743 -0.2369  0.3670  0.5487
  151SAPE   H2S16684   6.605   3.434   6.790  0.3140  1.9844 -1.1421
  151SAPE    C316685   6.811   3.143   6.383  0.0385 -0.3180 -0.3338
  151SAPE    HX16686   6.891   3.215   6.412 -0.3499 -0.0283  0.0235
  151SAPE    HY16687   6.807   3.126   6.274 -1.2202  0.6711 -0.4681
  151SAPE   O3116688   6.833   3.032   6.469  0.0580 -0.3103  0.5760
  151SAPE   C3116689   6.790   2.915   6.433  0.0076 -0.3702  0.3181
  151SAPE   O3216690   6.770   2.881   6.317  0.3368  0.2558  0.3966
  151SAPE   C3216691   6.771   2.834   6.555 -0.5731 -0.1895 -0.3334
  151SAPE   H2X16692   6.837   2.883   6.630 -1.8657  1.2063 -0.0634
  151SAPE   H2Y16693   6.811   2.735   6.526 -0.5103  0.1183 -1.3339
  151SAPE   C2316694   6.643   3.225   6.870  0.2451 -1.3981  0.2408
  151SAPE   H3R16695   6.662   3.123   6.831  0.8899 -1.0758 -0.3056
  151SAPE   H3S16696   6.543   3.229   6.919  1.0806  1.5670  1.9780
  151SAPE   C2416697   6.742   3.239   6.988  0.7943 -0.2055  0.4554
  151SAPE   H4R16698   6.737   3.349   7.000 -1.8870 -0.2931  0.7488
  151SAPE   H4S16699   6.836   3.205   6.939  0.1078  0.3432 -1.2969
  151SAPE   C2516700   6.716   3.153   7.105  0.3296  0.3418 -0.3630
  151SAPE   H5R16701   6.669   3.054   7.096  0.7006  0.0584  0.6147
  151SAPE   C2616702   6.754   3.191   7.227  0.1322 -0.1016  0.4768
  151SAPE   H6R16703   6.757   3.107   7.298  1.3228  0.9798  1.7541
  151SAPE   C2716704   6.824   3.310   7.282  0.2416  0.0647 -0.7519
  151SAPE   H7R16705   6.815   3.396   7.212 -0.0466  1.5329  1.0167
  151SAPE   H7S16706   6.929   3.285   7.307 -0.1545 -0.0253  0.9508
  151SAPE   C2816707   6.751   3.355   7.414  0.2238  1.2351 -0.3204
  151SAPE   H8R16708   6.648   3.392   7.403  0.2757  1.3289 -0.4924
  151SAPE   C2916709   6.796   3.344   7.543 -0.4732 -0.4392 -0.2229
  151SAPE   H9R16710   6.724   3.373   7.621  0.8286  0.1381  0.8189
  151SAPE  C21016711   6.931   3.307   7.594 -0.2468  0.1379  0.6368
  151SAPE  H10R16712   6.979   3.391   7.648 -0.0354  1.1666 -1.0622
  151SAPE  H10S16713   7.005   3.278   7.516 -0.1950  1.8243  0.0222
  151SAPE  C21116714   6.912   3.188   7.686  0.5719 -0.0519 -0.8984
  151SAPE  H11R16715   6.844   3.109   7.650 -1.6303  1.5753 -0.4993
  151SAPE  C21216716   6.966   3.183   7.815 -0.2552 -0.4056 -0.4047
  151SAPE  H12R16717   6.955   3.087   7.868  0.7066  0.7483  2.0177
  151SAPE  C21316718   7.053   3.286   7.887  0.1788 -0.4440  0.1574
  151SAPE  H13R16719   7.085   3.374   7.826 -0.9678  0.3299  0.6239
  151SAPE  H13S16720   7.153   3.248   7.917  1.1475  2.0308  0.3440
  151SAPE  C21416721   6.992   3.346   8.013  0.2717 -0.0806 -0.2142
  151SAPE  H14R16722   6.912   3.419   7.993 -0.7522 -1.0245  0.3239
  151SAPE  C21516723   7.030   3.338   8.143 -0.2510  0.0138 -0.0994
  151SAPE  H15R16724   6.964   3.389   8.215 -1.0641  0.9984 -1.4919
  151SAPE  C21616725   7.143   3.261   8.197 -0.5923 -0.2395  0.1851
  151SAPE  H16R16726   7.190   3.202   8.115 -0.5610  1.0974 -0.7790
  151SAPE  H16S16727   7.120   3.193   8.282 -0.5983  0.7803  1.0121
  151SAPE  C21716728   7.255   3.350   8.252 -0.8693  0.2002  0.1328
  151SAPE  H17R16729   7.203   3.428   8.311  0.9789  0.3593  1.6268
  151SAPE  H17S16730   7.305   3.407   8.171 -1.9715 -0.6136 -1.1760
  151SAPE  C21816731   7.351   3.286   8.356  0.1732  0.5129 -1.1890
  151SAPE  H18R16732   7.295   3.248   8.444 -0.2474 -0.3861 -1.8276
  151SAPE  H18S16733   7.413   3.366   8.401  0.4441 -0.3276 -0.0203
  151SAPE  C21916734   7.445   3.175   8.300  0.7326 -0.4409 -0.2159
  151SAPE  H19R16735   7.382   3.087   8.274 -1.5373  1.2650 -0.8374
  151SAPE  H19S16736   7.517   3.145   8.379 -0.2349  0.5293  1.0795
  151SAPE  C22016737   7.514   3.223   8.178  0.6095  0.0052 -0.4192
  151SAPE  H20R16738   7.440   3.256   8.102 -1.6072 -1.9582  0.7199
  151SAPE  H20S16739   7.573   3.313   8.203 -0.7796  0.2737  2.2105
  151SAPE  H20T16740   7.585   3.146   8.140  0.5071  0.0056 -0.6163
  151SAPE   C3316741   6.631   2.833   6.607  0.4090 -0.0176  0.4519
  151SAPE   H3X16742   6.558   2.827   6.523  2.4024  0.9108 -1.4415
  151SAPE   H3Y16743   6.613   2.921   6.672 -0.8933 -1.6200  2.4057
  151SAPE   C3416744   6.599   2.712   6.700 -0.3921  0.2209 -0.2994
  151SAPE   H4X16745   6.597   2.613   6.651 -0.6673 -1.5760  3.0223
  151SAPE   H4Y16746   6.498   2.734   6.740  0.3828  0.1668  1.8669
  151SAPE   C3516747   6.702   2.699   6.805  0.0114  0.0947  0.3770
  151SAPE   H5X16748   6.724   2.803   6.837  1.9476 -0.3809  0.7428
  151SAPE   H5Y16749   6.794   2.655   6.759 -0.6679 -0.1545 -0.7901
  151SAPE   C3616750   6.650   2.619   6.930  0.7630  0.3153 -0.2534
  151SAPE   H6X16751   6.662   2.511   6.906 -1.2460  0.0535 -0.2816
  151SAPE   H6Y16752   6.542   2.643   6.942  0.5683 -1.3103  1.7242
  151SAPE   C3716753   6.730   2.646   7.060 -0.4834  0.7742 -0.4706
  151SAPE   H7X16754   6.834   2.617   7.034 -1.1672 -1.4341 -0.9940
  151SAPE   H7Y16755   6.693   2.572   7.135  0.5158 -2.3589 -2.8604
  151SAPE   C3816756   6.722   2.784   7.117 -0.3792 -0.8210 -0.7112
  151SAPE   H8X16757   6.616   2.795   7.148  0.3998  0.3277  1.8401
  151SAPE   H8Y16758   6.738   2.862   7.040  1.2775 -2.0416 -1.6445
  151SAPE   C3916759   6.820   2.810   7.234 -0.2551 -0.4513 -0.3602
  151SAPE   H9X16760   6.865   2.911   7.245 -0.0544 -0.6660  0.8578
  151SAPE   H9Y16761   6.905   2.740   7.221 -1.5193 -1.8955 -1.1527
  151SAPE  C31016762   6.752   2.768   7.368 -0.3345 -0.3262  0.4920
  151SAPE  H10X16763   6.724   2.663   7.348  2.2783 -0.4460 -3.8064
  151SAPE  H10Y16764   6.660   2.826   7.390 -0.8412 -0.9136 -0.0343
  151SAPE  C31116765   6.845   2.798   7.476  0.1325 -0.3820  0.0932
  151SAPE  H11X16766   6.875   2.905   7.486 -1.3078 -0.1902  4.8887
  151SAPE  H11Y16767   6.933   2.731   7.474  0.5028 -0.0101 -3.6735
  151SAPE  C31216768   6.790   2.770   7.623  0.8527 -0.4285 -0.4807
  151SAPE  H12X16769   6.728   2.678   7.623 -0.2180  0.2545 -1.2005
  151SAPE  H12Y16770   6.726   2.857   7.651 -1.3637 -1.8353 -0.9127
  151SAPE  C31316771   6.903   2.764   7.725  0.4520  0.8324 -0.9900
  151SAPE  H13X16772   6.971   2.851   7.717  0.2968  0.9396 -1.1380
  151SAPE  H13Y16773   6.964   2.674   7.703  0.3881  0.5272 -0.0096
  151SAPE  C31416774   6.842   2.759   7.874 -0.1854  0.4471  0.8424
  151SAPE  H14X16775   6.779   2.672   7.902 -0.7464  0.8416  0.8306
  151SAPE  H14Y16776   6.774   2.847   7.871  0.7985  1.2319 -2.0026
  151SAPE  C31516777   6.959   2.762   7.981 -0.0050 -0.5646 -0.0725
  151SAPE  H15X16778   7.029   2.845   7.956 -0.2155  0.3005  1.9642
  151SAPE  H15Y16779   7.018   2.668   7.982  0.8759 -0.0319  0.2012
  151SAPE  C31616780   6.911   2.786   8.126  0.0382 -0.3873  0.1445
  151SAPE  H16X16781   6.974   2.749   8.209 -0.9294  0.8626  1.4779
  151SAPE  H16Y16782   6.817   2.729   8.141  0.3705 -1.2421 -0.8670
  151SAPE  C31716783   6.896   2.935   8.162  0.0616  0.3990 -0.3785
  151SAPE  H17X16784   6.826   2.976   8.086 -1.9452 -0.7868  0.7662
  151SAPE  H17Y16785   6.991   2.989   8.141  0.4775 -0.3960 -0.5819
  151SAPE  C31816786   6.863   2.954   8.308 -0.3445  0.0641 -0.2481
  151SAPE  H18X16787   6.769   2.898   8.330  0.5881 -1.4203  0.0980
  151SAPE  H18Y16788   6.835   3.058   8.332  1.4494  0.7807 -1.1304
  151SAPE  H18Z16789   6.938   2.910   8.377 -1.3003 -1.7666 -0.3130
  152SAPE     N16790   6.067   6.803   6.071 -0.6543 -0.7800  0.3180
  152SAPE   HN116791   6.073   6.855   5.981  2.3062 -0.0410  0.8114
  152SAPE   HN216792   6.119   6.858   6.143 -0.5981  2.7534 -2.1720
  152SAPE   HN316793   6.125   6.718   6.056  0.5265 -0.5053  2.7271
  152SAPE   C1216794   5.933   6.762   6.107  0.3916  0.2039 -0.8161
  152SAPE  H12A16795   5.896   6.689   6.031 -3.9267  1.8543 -0.6152
  152SAPE  H12B16796   5.867   6.852   6.099  0.2008  0.0412 -1.0825
  152SAPE   C1116797   5.921   6.699   6.251  0.1751 -0.5862 -0.1557
  152SAPE  H11A16798   5.923   6.776   6.331 -0.3396 -1.0639  0.3231
  152SAPE  H11B16799   6.021   6.656   6.275  0.8134  1.3317  0.7891
  152SAPE     P16800   5.659   6.639   6.253  0.6220  0.3347  0.1087
  152SAPE   O1316801   5.638   6.742   6.156  0.1173 -0.0428  0.5020
  152SAPE   O1416802   5.574   6.518   6.232  0.0108 -0.4207 -0.0895
  152SAPE   O1216803   5.806   6.607   6.252  0.5306  0.5775  0.0709
  152SAPE   O1116804   5.628   6.689   6.397  0.0012 -0.3262 -0.2508
  152SAPE    C116805   5.700   6.651   6.511  0.1471 -0.1180 -0.7881
  152SAPE    HA16806   5.761   6.559   6.496  1.2007  0.4334  0.0036
  152SAPE    HB16807   5.773   6.730   6.540 -0.9058  0.9105 -0.8533
  152SAPE    C216808   5.603   6.617   6.629  0.9925 -0.3995  0.8079
  152SAPE    HS16809   5.522   6.559   6.581  1.4855  0.7329 -1.5609
  152SAPE   O2116810   5.544   6.736   6.681 -0.5504 -0.2712 -0.0313
  152SAPE   C2116811   5.460   6.730   6.773 -0.0348 -0.4817 -0.4633
  152SAPE   O2216812   5.384   6.642   6.794  0.8028  0.0890  0.1352
  152SAPE   C2216813   5.454   6.866   6.841 -0.0194  0.3666  0.5995
  152SAPE   H2R16814   5.485   6.941   6.765  0.6987  0.2433  0.7671
  152SAPE   H2S16815   5.347   6.881   6.866  0.1171  0.4159  1.1550
  152SAPE    C316816   5.676   6.539   6.735 -0.3215  0.3391  0.5998
  152SAPE    HX16817   5.730   6.466   6.671  0.6758 -0.7473  2.5890
  152SAPE    HY16818   5.600   6.493   6.803  0.1846  0.3143  1.1552
  152SAPE   O3116819   5.775   6.620   6.811  0.3796  0.3289  0.0249
  152SAPE   C3116820   5.861   6.537   6.870  0.6663 -0.3143  0.0641
  152SAPE   O3216821   5.855   6.416   6.872 -0.4842  0.2335 -0.0842
  152SAPE   C3216822   5.972   6.617   6.943 -0.5437 -0.4507  0.0791
  152SAPE   H2X16823   5.929   6.696   7.009  2.3321  0.5523  0.9305
  152SAPE   H2Y16824   6.040   6.659   6.866  0.4860 -0.0065  1.1895
  152SAPE   C2316825   5.543   6.873   6.964  0.2686 -0.1330 -0.7771
  152SAPE   H3R16826   5.554   6.980   6.993 -0.1370 -0.6909  1.6533
  152SAPE   H3S16827   5.644   6.839   6.931  0.8332  0.3052  0.4450
  152SAPE   C2416828   5.505   6.783   7.087  0.1330  0.2529 -0.5912
  152SAPE   H4R16829   5.517   6.677   7.057  3.4740  0.6033 -0.9516
  152SAPE   H4S16830   5.399   6.805   7.112  0.3617  2.3000 -1.2598
  152SAPE   C2516831   5.592   6.811   7.210  0.8395  0.4340  0.2964
  152SAPE   H5R16832   5.699   6.797   7.190  0.5174 -1.9772 -0.0137
  152SAPE   C2616833   5.558   6.857   7.332 -0.2270 -0.5444 -0.4361
  152SAPE   H6R16834   5.642   6.876   7.401 -0.4615  0.1284 -0.3349
  152SAPE   C2716835   5.423   6.892   7.394 -0.8965 -0.6243  0.1085
  152SAPE   H7R16836   5.436   6.862   7.500  1.6602  0.2177  0.0793
  152SAPE   H7S16837   5.339   6.829   7.355 -1.1493  0.3735 -1.0389
  152SAPE   C2816838   5.385   7.035   7.400  0.2978 -0.5980 -0.6353
  152SAPE   H8R16839   5.421   7.101   7.319  0.9855  0.6128  0.6006
  152SAPE   C2916840   5.315   7.095   7.501 -0.0165 -1.2123 -0.3744
  152SAPE   H9R16841   5.313   7.205   7.495 -0.0344 -1.2738 -1.8852
  152SAPE  C21016842   5.261   7.029   7.628  0.8140 -0.2065 -0.1347
  152SAPE  H10R16843   5.255   6.918   7.616 -2.4458 -0.1206 -0.1198
  152SAPE  H10S16844   5.153   7.050   7.643  0.8652 -0.3414  0.4518
  152SAPE  C21116845   5.348   7.044   7.753 -1.3008  0.2860 -0.4529
  152SAPE  H11R16846   5.438   6.981   7.757 -0.7649  1.0262 -0.8202
  152SAPE  C21216847   5.315   7.125   7.853  0.8574 -0.4232  0.1974
  152SAPE  H12R16848   5.377   7.126   7.944  2.0011 -1.9906 -0.5102
  152SAPE  C21316849   5.188   7.210   7.851 -0.1880 -0.1312 -0.1070
  152SAPE  H13R16850   5.104   7.174   7.789 -0.7135 -0.7797  0.9403
  152SAPE  H13S16851   5.224   7.306   7.809  0.4932 -0.4177 -0.1895
  152SAPE  C21416852   5.128   7.229   7.987 -0.6520  0.4074 -0.9585
  152SAPE  H14R16853   5.156   7.321   8.041  1.7554 -1.1863  0.7078
  152SAPE  C21516854   5.035   7.145   8.047  0.4829 -0.6379 -0.3589
  152SAPE  H15R16855   4.997   7.166   8.148  3.9489  1.2303  0.7337
  152SAPE  C21616856   4.983   7.024   7.979 -0.4411 -0.7174 -0.4882
  152SAPE  H16R16857   4.999   6.937   8.047  1.8132 -0.7362 -0.9412
  152SAPE  H16S16858   5.048   6.998   7.893  1.1516 -0.5918  0.6080
  152SAPE  C21716859   4.836   7.022   7.953  0.5592  0.3360 -0.2423
  152SAPE  H17R16860   4.808   7.093   7.873  0.0503  1.2035  0.6775
  152SAPE  H17S16861   4.773   7.057   8.037 -0.8611  0.1371 -1.1981
  152SAPE  C21816862   4.788   6.881   7.891  0.3625 -0.6750 -0.0854
  152SAPE  H18R16863   4.806   6.805   7.970  0.8760  0.8616  1.3293
  152SAPE  H18S16864   4.854   6.858   7.804  2.5745 -0.5098  1.4556
  152SAPE  C21916865   4.645   6.882   7.845 -0.0994 -0.0980 -0.1058
  152SAPE  H19R16866   4.633   6.955   7.762 -0.2706 -1.1008 -0.9719
  152SAPE  H19S16867   4.586   6.920   7.932  3.7115  0.3668  2.5024
  152SAPE  C22016868   4.587   6.745   7.814  0.1112 -0.3684  0.2315
  152SAPE  H20R16869   4.585   6.688   7.909  4.1667 -0.4925  0.4434
  152SAPE  H20S16870   4.655   6.697   7.740 -0.4088  1.7444 -1.7442
  152SAPE  H20T16871   4.490   6.754   7.760  0.2782 -0.5434 -0.1016
  152SAPE   C3316872   6.058   6.529   7.044 -0.2205 -0.4695  0.3824
  152SAPE   H3X16873   6.143   6.595   7.073  0.7379 -1.5632  0.1815
  152SAPE   H3Y16874   6.098   6.441   6.988  1.4865  0.0470  0.7356
  152SAPE   C3416875   5.972   6.478   7.161  0.2847 -0.2956  0.4253
  152SAPE   H4X16876   5.909   6.390   7.134  0.7713 -0.0377 -1.7516
  152SAPE   H4Y16877   5.894   6.552   7.191 -1.0557 -0.8246 -1.5593
  152SAPE   C3516878   6.055   6.435   7.280 -0.1522 -0.2412 -0.2643
  152SAPE   H5X16879   6.072   6.536   7.324 -0.2599  0.4142 -1.6565
  152SAPE   H5Y16880   6.153   6.390   7.255 -0.2189  0.1837 -1.3154
  152SAPE   C3616881   5.976   6.347   7.381 -0.0591 -0.5731  0.3931
  152SAPE   H6X16882   6.035   6.253   7.380  0.7980 -0.1167 -2.5840
  152SAPE   H6Y16883   5.880   6.312   7.337 -0.7920  0.9455  0.7254
  152SAPE   C3716884   5.956   6.408   7.522 -0.3377  1.0420  0.3924
  152SAPE   H7X16885   5.872   6.480   7.531  0.7890  2.5831 -0.8826
  152SAPE   H7Y16886   6.053   6.461   7.537  1.3049 -1.6418 -0.0510
  152SAPE   C3816887   5.960   6.303   7.631  0.2186 -0.0664 -0.8163
  152SAPE   H8X16888   6.039   6.231   7.601 -0.9998 -0.7872 -2.4874
  152SAPE   H8Y16889   5.867   6.242   7.630  1.1540 -1.5383 -1.1735
  152SAPE   C3916890   5.968   6.359   7.777  0.6287  0.2736 -0.2703
  152SAPE   H9X16891   6.037   6.445   7.777  2.3611 -0.9987 -2.7207
  152SAPE   H9Y16892   6.009   6.276   7.840  0.6285 -1.4489 -2.4262
  152SAPE  C31016893   5.828   6.406   7.833 -0.1973  0.5350 -0.6856
  152SAPE  H10X16894   5.777   6.472   7.759 -0.6883  0.5658 -0.3222
  152SAPE  H10Y16895   5.845   6.469   7.923  0.2027 -0.8678  0.2495
  152SAPE  C31116896   5.743   6.286   7.861  0.1442 -0.0962 -0.7161
  152SAPE  H11X16897   5.812   6.209   7.902  2.2183  2.1163  0.1718
  152SAPE  H11Y16898   5.690   6.243   7.774 -0.1166  1.6770 -1.4817
  152SAPE  C31216899   5.624   6.315   7.944  0.2321 -0.7090 -0.0642
  152SAPE  H12X16900   5.567   6.407   7.920 -0.7810 -1.1731  0.4836
  152SAPE  H12Y16901   5.658   6.335   8.048  0.4282  1.6567 -0.5356
  152SAPE  C31316902   5.524   6.204   7.959  0.0340  0.0380  0.0411
  152SAPE  H13X16903   5.591   6.126   8.000 -0.2927  0.8113  2.2066
  152SAPE  H13Y16904   5.485   6.170   7.860  0.1915 -0.1013  0.0259
  152SAPE  C31416905   5.413   6.227   8.061 -0.0159 -0.5352  0.9713
  152SAPE  H14X16906   5.337   6.148   8.047  0.5445 -1.0903  1.0454
  152SAPE  H14Y16907   5.380   6.333   8.054 -0.4683 -0.7585 -0.6828
  152SAPE  C31516908   5.459   6.217   8.208  0.3714  0.2736  0.2062
  152SAPE  H15X16909   5.560   6.257   8.231  0.9557 -0.6302 -0.6948
  152SAPE  H15Y16910   5.470   6.106   8.216  0.5451  0.1403 -1.5854
  152SAPE  C31616911   5.356   6.249   8.319 -0.6127 -0.0321 -0.3067
  152SAPE  H16X16912   5.352   6.356   8.348  0.6840  0.0802 -0.4974
  152SAPE  H16Y16913   5.386   6.182   8.402 -0.8225 -0.9927 -0.9920
  152SAPE  C31716914   5.209   6.219   8.276 -1.4587  0.1600  0.6785
  152SAPE  H17X16915   5.208   6.115   8.236 -0.7306  0.5672 -0.4506
  152SAPE  H17Y16916   5.183   6.280   8.187  1.1392 -2.5023 -2.1496
  152SAPE  C31816917   5.102   6.234   8.380  0.2049 -0.2147 -0.0840
  152SAPE  H18X16918   5.023   6.156   8.388  1.1368 -1.0683  1.1543
  152SAPE  H18Y16919   5.059   6.336   8.375 -0.5767 -0.4806  0.9391
  152SAPE  H18Z16920   5.154   6.229   8.478 -3.3364 -1.8304  1.9042
  153SAPE     N16921   4.382   3.006   6.425  0.3606  0.0839 -0.1969
  153SAPE   HN116922   4.421   3.101   6.409  1.2458 -0.0940  0.7847
  153SAPE   HN216923   4.291   3.026   6.471 -0.4799  0.0475 -1.7792
  153SAPE   HN316924   4.443   2.953   6.491 -2.0948 -1.9666  0.5921
  153SAPE   C1216925   4.348   2.936   6.294 -0.5001  0.0796  0.1833
  153SAPE  H12A16926   4.437   2.949   6.228  1.5958  1.2103  3.0432
  153SAPE  H12B16927   4.278   3.009   6.248  0.8268  0.6706 -0.9836
  153SAPE   C1116928   4.285   2.797   6.304 -0.2326  0.4080  0.1685
  153SAPE  H11A16929   4.340   2.736   6.379 -2.2958 -1.4602  0.2457
  153SAPE  H11B16930   4.298   2.753   6.203 -2.2310 -0.9280  0.4491
  153SAPE     P16931   4.029   2.765   6.273 -0.1941  0.0504 -0.0870
  153SAPE   O1316932   3.904   2.777   6.348  0.1690 -0.1902  0.1304
  153SAPE   O1416933   4.018   2.826   6.139 -0.7682 -0.3807 -0.3658
  153SAPE   O1216934   4.150   2.819   6.354  0.8453 -0.5014 -1.0013
  153SAPE   O1116935   4.059   2.609   6.255 -0.0572 -0.5157  0.4812
  153SAPE    C116936   4.056   2.522   6.369 -0.4523 -0.0747 -0.3531
  153SAPE    HA16937   4.030   2.573   6.464  1.1341  0.9526 -0.4279
  153SAPE    HB16938   3.975   2.449   6.350 -1.7572  1.4630 -0.9034
  153SAPE    C216939   4.179   2.439   6.386  0.2832  0.2775  0.0029
  153SAPE    HS16940   4.143   2.341   6.424 -0.1151  0.8337  1.0976
  153SAPE   O2116941   4.268   2.509   6.481  0.2812  0.2071  0.3030
  153SAPE   C2116942   4.248   2.458   6.604 -0.7760 -0.4758 -0.2483
  153SAPE   O2216943   4.182   2.360   6.637 -0.1886 -0.0869 -0.0846
  153SAPE   C2216944   4.336   2.547   6.699  0.2817  0.3189 -1.1462
  153SAPE   H2R16945   4.441   2.528   6.667  0.5187 -0.3287 -0.0324
  153SAPE   H2S16946   4.298   2.647   6.669 -2.3321 -1.2569 -3.5184
  153SAPE    C316947   4.259   2.425   6.248 -0.2785  0.0647  0.2399
  153SAPE    HX16948   4.312   2.522   6.235  1.9218 -0.6996  2.6326
  153SAPE    HY16949   4.185   2.417   6.166 -2.0628 -0.7833  1.8458
  153SAPE   O3116950   4.356   2.322   6.260  0.5118  0.6927  0.0335
  153SAPE   C3116951   4.312   2.197   6.234 -0.6828  0.0464  0.0363
  153SAPE   O3216952   4.195   2.167   6.206  0.2933 -0.4272 -0.1559
  153SAPE   C3216953   4.423   2.096   6.244  0.6348 -0.0363  0.4877
  153SAPE   H2X16954   4.506   2.126   6.312  1.3709  1.6290 -1.0516
  153SAPE   H2Y16955   4.457   2.084   6.139 -1.4526  1.7050 -0.4652
  153SAPE   C2316956   4.314   2.515   6.851  0.6279  0.0710  0.0225
  153SAPE   H3R16957   4.312   2.405   6.869 -0.8148  0.2487  1.1292
  153SAPE   H3S16958   4.217   2.557   6.886  0.8477  0.9804 -0.4283
  153SAPE   C2416959   4.420   2.569   6.947  0.2927  0.5569  0.0887
  153SAPE   H4R16960   4.517   2.543   6.900  0.5102  0.3711  0.6361
  153SAPE   H4S16961   4.433   2.509   7.040 -0.6248 -1.1329 -0.8205
  153SAPE   C2516962   4.410   2.725   6.959 -0.2408  0.1532 -0.0070
  153SAPE   H5R16963   4.412   2.776   6.862  0.2815 -1.8500 -1.1038
  153SAPE   C2616964   4.395   2.791   7.074  0.5937  0.3205 -0.7288
  153SAPE   H6R16965   4.378   2.900   7.069 -0.0224  0.2843  0.3071
  153SAPE   C2716966   4.391   2.733   7.210  0.1375 -0.4796 -0.0098
  153SAPE   H7R16967   4.328   2.641   7.217  0.1150 -0.5347 -0.8509
  153SAPE   H7S16968   4.344   2.816   7.268  0.2418 -0.3868 -0.0602
  153SAPE   C2816969   4.525   2.705   7.277  0.5486  0.1548  0.7059
  153SAPE   H8R16970   4.609   2.694   7.206 -0.3460 -1.2267 -0.2129
  153SAPE   C2916971   4.544   2.695   7.407 -0.3704 -0.6815 -0.1787
  153SAPE   H9R16972   4.638   2.651   7.444 -0.3241 -0.5168 -0.0967
  153SAPE  C21016973   4.440   2.713   7.512  0.1542  0.1992 -1.0594
  153SAPE  H10R16974   4.429   2.621   7.574 -1.1651  0.9770 -0.0954
  153SAPE  H10S16975   4.338   2.715   7.470  0.4070  1.4289 -1.6414
  153SAPE  C21116976   4.467   2.835   7.611  0.1538  0.1572  1.0300
  153SAPE  H11R16977   4.529   2.917   7.571 -0.1851 -0.7368 -1.5466
  153SAPE  C21216978   4.417   2.857   7.736 -0.7009 -0.7310  0.1181
  153SAPE  H12R16979   4.442   2.947   7.795  2.1833 -0.5987 -1.1543
  153SAPE  C21316980   4.320   2.770   7.804 -0.2269 -0.0479 -0.7965
  153SAPE  H13R16981   4.357   2.762   7.908  1.9795 -0.3703 -1.5420
  153SAPE  H13S16982   4.322   2.666   7.765 -2.3385  0.6574 -3.0586
  153SAPE  C21416983   4.179   2.825   7.792 -0.6453 -0.0208 -1.1851
  153SAPE  H14R16984   4.151   2.825   7.685 -0.2962 -1.3374 -1.3003
  153SAPE  C21516985   4.100   2.850   7.898  0.2223 -0.0780  0.5839
  153SAPE  H15R16986   3.995   2.877   7.880  0.0969  0.8190  2.3802
  153SAPE  C21616987   4.125   2.843   8.047  0.7581  0.4564 -0.1428
  153SAPE  H16R16988   4.098   2.935   8.104  1.3580 -0.9366  2.5208
  153SAPE  H16S16989   4.233   2.824   8.061  0.0204 -3.4415  1.4210
  153SAPE  C21716990   4.049   2.714   8.092  0.4755 -0.7642 -0.1087
  153SAPE  H17R16991   4.079   2.618   8.046  0.2021 -0.1342 -1.6747
  153SAPE  H17S16992   3.941   2.730   8.070  0.4238 -0.1707  0.5439
  153SAPE  C21816993   4.059   2.684   8.241 -0.9094 -0.0277 -0.1609
  153SAPE  H18R16994   4.041   2.764   8.315 -2.7289 -1.3823  0.9259
  153SAPE  H18S16995   4.168   2.664   8.250 -1.2929 -1.4556  2.2374
  153SAPE  C21916996   3.990   2.565   8.305 -0.2856  0.1104  0.1236
  153SAPE  H19R16997   4.044   2.552   8.401 -1.5201 -1.2776  0.6614
  153SAPE  H19S16998   4.016   2.483   8.234  1.3183  1.1044 -0.5144
  153SAPE  C22016999   3.838   2.575   8.323  0.1524 -0.8107  0.1616
  153SAPE  H20R17000   3.814   2.672   8.370  0.7739 -0.4147 -0.3223
  153SAPE  H20S17001   3.808   2.475   8.362  1.1611 -0.5958  1.5226
  153SAPE  H20T17002   3.797   2.592   8.221  1.2942 -4.4481 -1.0837
  153SAPE   C3317003   4.360   1.965   6.302 -0.4108 -0.3043 -0.2338
  153SAPE   H3X17004   4.438   1.886   6.296  1.3543  1.2875  0.6193
  153SAPE   H3Y17005   4.275   1.931   6.240 -0.1686  1.2594 -1.4614
  153SAPE   C3417006   4.315   1.964   6.451  0.6428 -0.3105  0.3506
  153SAPE   H4X17007   4.251   1.876   6.471  0.2428 -0.1781 -0.2950
  153SAPE   H4Y17008   4.246   2.049   6.469  0.8808 -0.4244  1.9236
  153SAPE   C3517009   4.431   1.951   6.550  0.3399  0.2880  0.6832
  153SAPE   H5X17010   4.479   2.049   6.571  2.3725 -0.3236 -0.7765
  153SAPE   H5Y17011   4.504   1.881   6.503 -0.6386 -0.3639  0.1118
  153SAPE   C3617012   4.380   1.896   6.679 -0.0239  0.2800 -0.4447
  153SAPE   H6X17013   4.328   1.801   6.654  1.7512 -0.4584 -1.4807
  153SAPE   H6Y17014   4.311   1.970   6.726 -0.0492  0.9735 -1.5478
  153SAPE   C3717015   4.504   1.875   6.774 -0.2593  0.3060 -0.2734
  153SAPE   H7X17016   4.581   1.950   6.745 -0.1862  1.6516  2.9240
  153SAPE   H7Y17017   4.545   1.774   6.750  3.0182  0.9970  1.7138
  153SAPE   C3817018   4.481   1.882   6.928 -0.8850 -0.5755 -0.2894
  153SAPE   H8X17019   4.583   1.852   6.961  0.1257  0.5034 -2.2258
  153SAPE   H8Y17020   4.411   1.802   6.961 -3.2831  0.9575 -1.3566
  153SAPE   C3917021   4.440   2.019   6.981 -0.3928 -0.1820  0.1747
  153SAPE   H9X17022   4.341   2.043   6.939  0.0236  0.6344 -0.3651
  153SAPE   H9Y17023   4.499   2.094   6.923 -0.1780 -0.2516  0.3027
  153SAPE  C31017024   4.464   2.045   7.132 -0.9116  0.1753 -0.3523
  153SAPE  H10X17025   4.411   2.138   7.161  0.5741  1.3056 -1.0877
  153SAPE  H10Y17026   4.571   2.072   7.143 -1.8401  3.9888  0.6924
  153SAPE  C31117027   4.430   1.925   7.213 -0.3213  0.0929  0.3956
  153SAPE  H11X17028   4.495   1.840   7.185  0.9383  1.0552  0.2786
  153SAPE  H11Y17029   4.324   1.904   7.187  0.0034 -1.2483  0.0959
  153SAPE  C31217030   4.444   1.945   7.357 -0.1669 -0.1109  0.0868
  153SAPE  H12X17031   4.394   1.858   7.405 -1.3592  1.8477  2.6349
  153SAPE  H12Y17032   4.400   2.042   7.389  0.8319  0.5668 -0.5135
  153SAPE  C31317033   4.591   1.949   7.414  0.1457  0.1150 -0.2814
  153SAPE  H13X17034   4.622   2.052   7.386  1.5330  0.4496  2.1811
  153SAPE  H13Y17035   4.662   1.876   7.371 -0.3990 -1.7668  1.8445
  153SAPE  C31417036   4.602   1.955   7.568 -0.3360  0.3952 -0.6022
  153SAPE  H14X17037   4.560   1.859   7.604  0.4363 -0.3240 -1.5338
  153SAPE  H14Y17038   4.539   2.032   7.616  2.0478  0.6896  2.3435
  153SAPE  C31517039   4.743   1.955   7.623  0.3201  0.3504 -0.2589
  153SAPE  H15X17040   4.767   2.061   7.647  1.3574 -0.0259  0.4400
  153SAPE  H15Y17041   4.811   1.913   7.546 -3.2485 -1.1380 -2.8754
  153SAPE  C31617042   4.750   1.888   7.757  0.5173 -0.2647  0.3399
  153SAPE  H16X17043   4.702   1.788   7.752 -0.0854  0.0752 -1.3097
  153SAPE  H16Y17044   4.695   1.945   7.835 -0.4259 -0.8542  0.1229
  153SAPE  C31717045   4.885   1.858   7.818  0.0509 -0.0816  0.4496
  153SAPE  H17X17046   4.878   1.813   7.920  1.0366  0.1594  0.6325
  153SAPE  H17Y17047   4.944   1.950   7.837 -0.2991  0.7172 -2.0714
  153SAPE  C31817048   4.982   1.776   7.733  0.4470 -0.3407 -0.0403
  153SAPE  H18X17049   5.028   1.845   7.659  2.2875 -0.4989  0.8724
  153SAPE  H18Y17050   4.919   1.695   7.690  1.3374 -0.6796 -0.7412
  153SAPE  H18Z17051   5.074   1.744   7.788  0.5648  1.0934  0.6444
  154SAPE     N17052   3.892   1.579   5.909 -0.6081  0.5545  0.0538
  154SAPE   HN117053   3.972   1.645   5.910 -0.8098  0.8068 -0.2038
  154SAPE   HN217054   3.908   1.490   5.960  2.1132  0.6098 -0.5819
  154SAPE   HN317055   3.870   1.553   5.810  0.8301  0.3171 -0.2158
  154SAPE   C1217056   3.766   1.636   5.961  0.3298  0.5750 -0.4195
  154SAPE  H12A17057   3.703   1.564   6.018  2.1777 -0.0648  0.9255
  154SAPE  H12B17058   3.706   1.679   5.879 -2.6100 -1.6088  0.4195
  154SAPE   C1117059   3.794   1.754   6.062  0.0739 -0.3179  0.8206
  154SAPE  H11A17060   3.857   1.704   6.139  1.5162 -0.3105 -0.3218
  154SAPE  H11B17061   3.698   1.779   6.111 -1.3731 -0.8637 -1.5594
  154SAPE     P17062   3.795   1.975   5.928  0.2821  0.1594  0.3097
  154SAPE   O1317063   3.890   2.045   5.837 -0.2730 -0.2752  0.6433
  154SAPE   O1417064   3.664   1.947   5.867 -1.1311  0.3334  0.1220
  154SAPE   O1217065   3.866   1.853   5.996  0.5121 -0.7885 -0.2946
  154SAPE   O1117066   3.774   2.058   6.059 -0.0483 -0.2304  0.1515
  154SAPE    C117067   3.891   2.080   6.144 -0.0163 -0.1980  0.0401
  154SAPE    HA17068   3.959   1.992   6.142 -1.1538 -1.1040 -0.4618
  154SAPE    HB17069   3.926   2.185   6.132 -0.8495  0.0265 -0.5391
  154SAPE    C217070   3.854   2.052   6.288 -0.0126 -1.0397 -0.3737
  154SAPE    HS17071   3.803   1.953   6.291  1.2019 -1.7028 -0.8540
  154SAPE   O2117072   3.788   2.174   6.334  0.2696  0.0070  0.1333
  154SAPE   C2117073   3.680   2.150   6.411  0.2076 -0.7662  0.2099
  154SAPE   O2217074   3.635   2.039   6.433  0.2103 -0.5708  0.0460
  154SAPE   C2217075   3.624   2.283   6.475  0.5745 -1.2383  0.1751
  154SAPE   H2R17076   3.705   2.353   6.446  0.9879 -1.1636  1.4498
  154SAPE   H2S17077   3.527   2.316   6.433  1.8633  2.1368 -0.4646
  154SAPE    C317078   3.979   2.060   6.373  0.4063 -0.0571 -0.2463
  154SAPE    HX17079   4.015   2.164   6.384 -0.3343 -0.0152  2.1610
  154SAPE    HY17080   4.067   2.011   6.327  0.9480  0.9604 -0.3140
  154SAPE   O3117081   3.960   2.011   6.506 -0.7095  0.4451 -0.2014
  154SAPE   C3117082   3.963   1.879   6.531  0.0198 -1.3451 -0.2513
  154SAPE   O3217083   4.002   1.799   6.444  0.3083 -0.0463 -0.7019
  154SAPE   C3217084   3.889   1.868   6.666 -0.0953  0.0764 -0.8097
  154SAPE   H2X17085   3.871   1.759   6.666  1.4666 -0.2139 -2.3676
  154SAPE   H2Y17086   3.793   1.924   6.666  0.4870  1.1532  0.6223
  154SAPE   C2317087   3.618   2.276   6.632 -0.0122 -0.2144 -0.9983
  154SAPE   H3R17088   3.583   2.173   6.657  1.0509 -0.8216 -1.8977
  154SAPE   H3S17089   3.540   2.346   6.667  1.0554  0.5776 -0.1544
  154SAPE   C2417090   3.760   2.312   6.698  0.7131  0.4983  0.6903
  154SAPE   H4R17091   3.844   2.246   6.668 -0.7599 -2.1951  2.1323
  154SAPE   H4S17092   3.736   2.304   6.807  1.0599  1.7778  0.8739
  154SAPE   C2517093   3.785   2.457   6.675 -1.0884  0.2266  0.6624
  154SAPE   H5R17094   3.758   2.496   6.575  1.3264  3.0633  0.9860
  154SAPE   C2617095   3.845   2.535   6.768 -0.4043 -0.0685  0.2799
  154SAPE   H6R17096   3.885   2.634   6.739 -2.2148  0.6213  0.0361
  154SAPE   C2717097   3.890   2.498   6.908  0.0867 -0.0726 -0.5542
  154SAPE   H7R17098   3.793   2.502   6.962  0.2136 -0.2824 -0.3093
  154SAPE   H7S17099   3.952   2.584   6.941  0.3372 -0.1517 -0.8168
  154SAPE   C2817100   3.972   2.367   6.933  0.0466  0.0512 -0.1770
  154SAPE   H8R17101   3.996   2.301   6.848  0.1497 -2.0315  1.3894
  154SAPE   C2917102   4.025   2.340   7.052  0.1774  0.0125  0.0388
  154SAPE   H9R17103   4.079   2.245   7.064 -1.2356 -0.7936  0.1517
  154SAPE  C21017104   4.006   2.423   7.179 -0.0189 -0.5919 -0.3385
  154SAPE  H10R17105   3.917   2.489   7.179  0.3221 -0.1022  0.7059
  154SAPE  H10S17106   4.083   2.504   7.179 -0.4508 -0.0757  2.7558
  154SAPE  C21117107   4.011   2.345   7.304 -0.1177  0.1798 -0.4178
  154SAPE  H11R17108   3.934   2.267   7.297  0.5377 -0.4610 -0.5290
  154SAPE  C21217109   4.098   2.353   7.408 -0.0528 -0.4035 -0.1062
  154SAPE  H12R17110   4.082   2.275   7.483 -2.1061 -1.2176 -1.3141
  154SAPE  C21317111   4.213   2.448   7.431 -0.8740  0.1677 -0.3922
  154SAPE  H13R17112   4.209   2.486   7.535  0.5766 -1.3986  0.2823
  154SAPE  H13S17113   4.199   2.534   7.361  1.8360  0.2109 -0.9710
  154SAPE  C21417114   4.345   2.382   7.397  0.5136 -0.5202 -0.6856
  154SAPE  H14R17115   4.362   2.357   7.291  1.5396  2.3107 -1.2745
  154SAPE  C21517116   4.428   2.333   7.484  1.1526  0.2079  0.0785
  154SAPE  H15R17117   4.512   2.279   7.440  1.6143  0.4387  0.6545
  154SAPE  C21617118   4.413   2.325   7.638  0.3366 -0.0289 -0.8547
  154SAPE  H16R17119   4.395   2.223   7.679 -1.6873  0.7060  0.2252
  154SAPE  H16S17120   4.323   2.380   7.673 -0.7659 -0.2504 -3.1521
  154SAPE  C21717121   4.532   2.373   7.717 -0.1415 -0.8804  0.3514
  154SAPE  H17R17122   4.550   2.478   7.685 -0.8987 -0.5720  0.9047
  154SAPE  H17S17123   4.624   2.318   7.690  0.4220  0.1964 -0.0011
  154SAPE  C21817124   4.525   2.346   7.869 -0.7920  0.5590  0.4436
  154SAPE  H18R17125   4.627   2.358   7.911 -0.6832 -4.2027  2.1592
  154SAPE  H18S17126   4.493   2.240   7.881 -0.9663  0.2317 -2.3153
  154SAPE  C21917127   4.428   2.448   7.932 -0.4329 -0.2611  0.6481
  154SAPE  H19R17128   4.322   2.433   7.903 -0.4945  1.4469 -0.1348
  154SAPE  H19S17129   4.458   2.550   7.900 -0.8395 -0.5465 -0.6780
  154SAPE  C22017130   4.418   2.444   8.082 -0.5937  0.0578  0.0884
  154SAPE  H20R17131   4.377   2.346   8.114  2.5843 -1.0613  1.1046
  154SAPE  H20S17132   4.351   2.521   8.127 -1.0628 -0.4780  0.3261
  154SAPE  H20T17133   4.516   2.469   8.129 -0.9810 -1.1725  1.6493
  154SAPE   C3317134   3.979   1.906   6.781 -0.0276 -0.1563 -0.0158
  154SAPE   H3X17135   4.001   2.012   6.758 -4.0987  1.0143  0.6957
  154SAPE   H3Y17136   4.072   1.844   6.772 -1.1218 -1.6968 -1.4364
  154SAPE   C3417137   3.913   1.898   6.915 -0.3293  0.2504 -0.5814
  154SAPE   H4X17138   3.884   1.793   6.939 -2.6777  0.8653 -0.5050
  154SAPE   H4Y17139   3.821   1.960   6.917 -0.3282  0.2928  2.4580
  154SAPE   C3517140   4.018   1.950   7.025 -0.4176 -0.4590 -0.2671
  154SAPE   H5X17141   4.059   2.046   6.987 -0.1491 -0.1023  0.9093
  154SAPE   H5Y17142   4.091   1.866   7.027 -0.7871 -0.7700  0.2662
  154SAPE   C3617143   3.967   1.954   7.167 -0.7632 -0.0691 -0.2242
  154SAPE   H6X17144   3.903   1.869   7.199  1.4336 -1.1036  1.7981
  154SAPE   H6Y17145   3.893   2.036   7.173 -0.5917  0.1527 -1.0336
  154SAPE   C3717146   4.071   1.964   7.278 -0.3639 -0.1883  0.8054
  154SAPE   H7X17147   4.134   2.055   7.264 -1.7863  0.4924 -2.0794
  154SAPE   H7Y17148   4.138   1.878   7.261 -1.4519 -0.9987  0.4593
  154SAPE   C3817149   4.010   1.963   7.417 -0.1409  0.2853  0.3310
  154SAPE   H8X17150   3.942   1.875   7.413  2.1001 -1.6822  2.2009
  154SAPE   H8Y17151   3.960   2.058   7.444 -1.0485  0.1245 -0.7485
  154SAPE   C3917152   4.112   1.942   7.524  0.5149  0.4836 -0.2655
  154SAPE   H9X17153   4.192   2.018   7.514 -0.6982  1.7229 -0.8685
  154SAPE   H9Y17154   4.148   1.838   7.512  0.1327  0.2395  0.6068
  154SAPE  C31017155   4.039   1.961   7.659  0.3090 -0.4868 -1.1286
  154SAPE  H10X17156   3.935   1.923   7.655  0.0878 -0.4700  2.2517
  154SAPE  H10Y17157   4.030   2.071   7.673  1.9291 -0.4805  0.0853
  154SAPE  C31117158   4.124   1.906   7.774 -0.9450 -0.0758 -0.4656
  154SAPE  H11X17159   4.128   1.795   7.782  0.2754  0.0779  2.6828
  154SAPE  H11Y17160   4.074   1.927   7.872 -0.0985 -3.5588  0.8779
  154SAPE  C31217161   4.268   1.961   7.773  0.0517  1.1166 -0.1675
  154SAPE  H12X17162   4.270   2.069   7.747 -0.0786  1.2616  0.4012
  154SAPE  H12Y17163   4.334   1.914   7.697 -0.4839  1.3394 -0.7786
  154SAPE  C31317164   4.324   1.954   7.916  0.4721  0.4062 -0.4345
  154SAPE  H13X17165   4.255   1.992   7.995  0.5238 -1.3360  0.4806
  154SAPE  H13Y17166   4.415   2.017   7.923  0.1302  1.0717 -1.6929
  154SAPE  C31417167   4.381   1.807   7.940  1.1781  0.0218  0.3021
  154SAPE  H14X17168   4.468   1.809   7.871  1.3686  1.5875  0.5482
  154SAPE  H14Y17169   4.303   1.733   7.912  0.5190  0.5546  0.6942
  154SAPE  C31517170   4.417   1.767   8.085 -0.2004 -0.4603  0.4891
  154SAPE  H15X17171   4.447   1.660   8.087 -0.5766 -0.5596  1.1902
  154SAPE  H15Y17172   4.321   1.779   8.140 -0.0999 -1.9741  1.0537
  154SAPE  C31617173   4.520   1.858   8.152  0.4968 -0.3659 -0.2023
  154SAPE  H16X17174   4.460   1.945   8.190  1.5027 -0.3692  1.4768
  154SAPE  H16Y17175   4.596   1.894   8.079 -0.7709  1.4313 -0.7304
  154SAPE  C31717176   4.577   1.784   8.271  0.2948  0.1090 -0.3650
  154SAPE  H17X17177   4.626   1.696   8.224 -1.1163 -0.2263 -1.2562
  154SAPE  H17Y17178   4.502   1.744   8.343 -0.9133 -2.4251 -2.8299
  154SAPE  C31817179   4.681   1.873   8.349 -0.3379  0.2959  0.1070
  154SAPE  H18X17180   4.760   1.912   8.281 -1.1456  1.3583 -0.2470
  154SAPE  H18Y17181   4.720   1.821   8.439  0.8854 -0.6320 -0.9235
  154SAPE  H18Z17182   4.633   1.968   8.382 -1.0838 -0.5202  1.4423
  155SAPE     N17183   3.163   2.653   6.169 -0.2689 -0.7476  0.4046
  155SAPE   HN117184   3.140   2.589   6.090 -1.4551 -1.6616  1.4441
  155SAPE   HN217185   3.130   2.748   6.144 -0.7212 -1.2426 -1.0358
  155SAPE   HN317186   3.266   2.658   6.179 -0.2925  1.0597  0.0418
  155SAPE   C1217187   3.090   2.606   6.290 -1.2236 -0.3362  0.1869
  155SAPE  H12A17188   3.100   2.498   6.315  2.3937  0.2860  2.0856
  155SAPE  H12B17189   2.984   2.636   6.277 -1.6609 -1.4115  1.0731
  155SAPE   C1117190   3.154   2.677   6.407 -0.0047 -0.4831 -0.6324
  155SAPE  H11A17191   3.122   2.628   6.501  0.5149 -1.7513 -1.0917
  155SAPE  H11B17192   3.105   2.777   6.400 -1.1646 -1.1088 -2.0144
  155SAPE     P17193   3.390   2.614   6.505 -0.2254 -0.1904  0.0894
  155SAPE   O1317194   3.342   2.476   6.506  0.0633  0.6398 -0.0551
  155SAPE   O1417195   3.531   2.649   6.480  0.5803  0.2563  0.6752
  155SAPE   O1217196   3.296   2.695   6.400 -0.4910 -0.1626 -0.0877
  155SAPE   O1117197   3.341   2.687   6.640  0.2318  0.4609  0.2636
  155SAPE    C117198   3.391   2.820   6.671 -0.8082  0.5519  0.4904
  155SAPE    HA17199   3.502   2.816   6.678 -0.7558 -1.0105 -0.7579
  155SAPE    HB17200   3.375   2.889   6.586 -0.7007 -1.3714 -1.1419
  155SAPE    C217201   3.330   2.884   6.799 -0.0099  0.2969 -0.4520
  155SAPE    HS17202   3.342   2.994   6.793 -0.2979  0.3248 -0.5683
  155SAPE   O2117203   3.400   2.831   6.913 -0.2480  0.7257  0.7111
  155SAPE   C2117204   3.522   2.880   6.920 -0.4884 -0.8019 -0.0395
  155SAPE   O2217205   3.577   2.961   6.849 -0.0627 -0.5081 -0.3583
  155SAPE   C2217206   3.592   2.800   7.026  0.3180  0.8506 -0.0900
  155SAPE   H2R17207   3.527   2.784   7.114  1.2278 -0.5422  0.3478
  155SAPE   H2S17208   3.608   2.698   6.984 -1.3092  0.0330  1.1469
  155SAPE    C317209   3.171   2.869   6.801 -0.2199 -0.5240 -0.2530
  155SAPE    HX17210   3.136   2.766   6.777  0.4290 -1.1863  1.4938
  155SAPE    HY17211   3.128   2.936   6.723  0.2936  1.2151  0.8957
  155SAPE   O3117212   3.115   2.911   6.932  0.3768 -0.2880 -0.4517
  155SAPE   C3117213   3.119   2.822   7.026  0.2216  0.4156  0.2125
  155SAPE   O3217214   3.154   2.706   7.020  0.1254  0.0454  0.2437
  155SAPE   C3217215   3.067   2.887   7.155 -0.3115 -0.1917  0.0829
  155SAPE   H2X17216   2.958   2.868   7.144 -0.7652  1.4388  1.4027
  155SAPE   H2Y17217   3.088   2.995   7.147  1.1283 -0.5273 -1.0329
  155SAPE   C2317218   3.722   2.859   7.078 -0.0146  0.0011  1.0066
  155SAPE   H3R17219   3.698   2.956   7.126 -0.2951 -0.0168  0.9039
  155SAPE   H3S17220   3.794   2.872   6.994  0.4355  0.1036  1.4064
  155SAPE   C2417221   3.792   2.763   7.175 -0.7565  0.2632  0.3063
  155SAPE   H4R17222   3.896   2.798   7.187 -0.2840 -1.1075  0.3833
  155SAPE   H4S17223   3.808   2.663   7.129  1.1557  1.1800 -1.1173
  155SAPE   C2517224   3.714   2.754   7.304 -0.6203  0.0140  1.1644
  155SAPE   H5R17225   3.616   2.704   7.295  0.3717 -1.7082 -0.9686
  155SAPE   C2617226   3.739   2.795   7.422 -0.3816 -0.0576 -0.6121
  155SAPE   H6R17227   3.673   2.762   7.505  1.6857 -0.7163  0.8464
  155SAPE   C2717228   3.871   2.868   7.461 -0.0844  0.5124 -0.3851
  155SAPE   H7R17229   3.907   2.937   7.382  1.6401 -1.5619 -1.4900
  155SAPE   H7S17230   3.945   2.786   7.472 -0.0723  0.6724  0.9691
  155SAPE   C2817231   3.873   2.941   7.593  0.4876  0.1006 -0.1129
  155SAPE   H8R17232   3.936   2.893   7.669  2.0495  1.5881 -0.3936
  155SAPE   C2917233   3.785   3.035   7.640 -0.8181  0.4592  0.3424
  155SAPE   H9R17234   3.787   3.060   7.747  0.4132  2.5337 -0.1134
  155SAPE  C21017235   3.674   3.091   7.557 -0.1964  0.1255  0.6255
  155SAPE  H10R17236   3.592   3.016   7.564 -2.2098  2.0394 -1.0155
  155SAPE  H10S17237   3.708   3.091   7.451 -1.6321 -0.6080  0.1435
  155SAPE  C21117238   3.620   3.220   7.606  0.3509 -0.2911 -0.3584
  155SAPE  H11R17239   3.546   3.207   7.687 -1.1438 -2.0335 -1.9000
  155SAPE  C21217240   3.670   3.344   7.594  0.7381  0.4874  0.2375
  155SAPE  H12R17241   3.613   3.419   7.651  0.5179 -1.0954  2.2101
  155SAPE  C21317242   3.786   3.397   7.510  0.1254  0.0607  0.0753
  155SAPE  H13R17243   3.824   3.317   7.442 -0.2876 -1.0275  1.0805
  155SAPE  H13S17244   3.878   3.428   7.564  2.2373 -1.7716 -2.2516
  155SAPE  C21417245   3.743   3.511   7.420 -0.3722  0.1655 -0.4483
  155SAPE  H14R17246   3.774   3.611   7.453  0.2859 -0.3055  0.3862
  155SAPE  C21517247   3.660   3.502   7.315 -0.2306 -0.1820 -0.2024
  155SAPE  H15R17248   3.645   3.591   7.252 -1.5532 -0.9525 -1.0266
  155SAPE  C21617249   3.613   3.370   7.257 -0.3059 -0.1192 -0.4686
  155SAPE  H16R17250   3.611   3.287   7.331  0.8003 -1.8840 -2.3180
  155SAPE  H16S17251   3.687   3.347   7.178 -0.5752  0.6917 -0.9661
  155SAPE  C21717252   3.482   3.358   7.179 -0.2764 -0.4369 -1.0039
  155SAPE  H17R17253   3.483   3.441   7.105  1.9595  0.9039  0.3937
  155SAPE  H17S17254   3.399   3.388   7.246  0.4320 -2.1627  0.7393
  155SAPE  C21817255   3.470   3.225   7.104  0.5489 -0.0480  0.4489
  155SAPE  H18R17256   3.447   3.152   7.185 -0.8317  1.0657  1.0945
  155SAPE  H18S17257   3.569   3.198   7.061  0.4271  0.7685 -0.3605
  155SAPE  C21917258   3.362   3.222   7.006  0.1979  0.0686 -0.3980
  155SAPE  H19R17259   3.283   3.285   7.053  1.5234  1.3984  0.1395
  155SAPE  H19S17260   3.328   3.118   6.986 -0.1814  0.3432 -1.2207
  155SAPE  C22017261   3.397   3.282   6.875  0.4675  0.1819  0.3109
  155SAPE  H20R17262   3.472   3.232   6.810 -0.3371 -1.7318  0.7925
  155SAPE  H20S17263   3.431   3.388   6.880 -2.0931  1.1135 -0.1384
  155SAPE  H20T17264   3.300   3.287   6.820  0.2848 -2.5866  0.2686
  155SAPE   C3317265   3.117   2.822   7.279 -0.0419  0.1071  0.3559
  155SAPE   H3X17266   3.102   2.712   7.277 -1.4881  0.2869  0.2185
  155SAPE   H3Y17267   3.050   2.870   7.353  0.3688  0.0129  0.7938
  155SAPE   C3417268   3.261   2.848   7.316 -0.1587  0.3136 -0.2684
  155SAPE   H4X17269   3.285   2.956   7.330  0.7004 -0.0003  0.9483
  155SAPE   H4Y17270   3.316   2.805   7.230  1.9138  0.2627  0.9972
  155SAPE   C3517271   3.308   2.765   7.436 -0.2414 -0.5284  0.5654
  155SAPE   H5X17272   3.415   2.738   7.418 -0.2347 -0.1807  0.0469
  155SAPE   H5Y17273   3.251   2.670   7.447 -1.5250  0.4276  2.7779
  155SAPE   C3617274   3.304   2.848   7.562  0.1665  1.2830  0.1590
  155SAPE   H6X17275   3.204   2.896   7.569 -0.5051 -0.0070 -0.3750
  155SAPE   H6Y17276   3.379   2.931   7.559  0.0162  1.6240  3.0550
  155SAPE   C3717277   3.340   2.772   7.690  0.4154 -0.2957 -0.4767
  155SAPE   H7X17278   3.440   2.728   7.667  1.3483  1.2983  0.3897
  155SAPE   H7Y17279   3.268   2.693   7.721  1.1110 -1.2230 -1.1862
  155SAPE   C3817280   3.370   2.861   7.812 -0.3049 -0.3354 -0.7220
  155SAPE   H8X17281   3.271   2.893   7.853  1.2043  1.3302  1.9393
  155SAPE   H8Y17282   3.421   2.956   7.784  0.2717  0.0667  1.5032
  155SAPE   C3917283   3.455   2.780   7.914  0.2853 -0.4362 -0.3507
  155SAPE   H9X17284   3.422   2.674   7.909  0.1460 -0.3452 -1.8215
  155SAPE   H9Y17285   3.424   2.822   8.012  0.5883 -1.3315  0.1333
  155SAPE  C31017286   3.607   2.786   7.894 -0.5068 -0.5399  0.6020
  155SAPE  H10X17287   3.622   2.795   7.784  0.5474 -1.0273  0.6939
  155SAPE  H10Y17288   3.652   2.690   7.926  0.0772 -0.3523  0.3617
  155SAPE  C31117289   3.668   2.905   7.976 -0.3155  0.2586  0.7671
  155SAPE  H11X17290   3.624   3.004   7.952 -2.5307 -1.0443 -0.9503
  155SAPE  H11Y17291   3.775   2.903   7.944  0.5306 -0.1134  3.3906
  155SAPE  C31217292   3.667   2.891   8.127  0.0087 -0.7105 -0.6854
  155SAPE  H12X17293   3.694   2.784   8.144  0.2149 -0.6212 -0.4403
  155SAPE  H12Y17294   3.569   2.916   8.173  0.5648  0.2930 -0.0102
  155SAPE  C31317295   3.775   2.977   8.200  0.3077  0.4594  0.0265
  155SAPE  H13X17296   3.774   3.080   8.158 -3.3338  0.9174  0.9203
  155SAPE  H13Y17297   3.872   2.923   8.200  0.2279 -0.2674  5.6253
  155SAPE  C31417298   3.747   2.982   8.350 -0.0930 -0.1227 -0.3515
  155SAPE  H14X17299   3.716   2.878   8.374  0.0399 -0.8640 -3.0704
  155SAPE  H14Y17300   3.660   3.043   8.383 -1.2595 -0.3799 -2.7042
  155SAPE  C31517301   3.859   3.032   8.438  0.1066 -0.1208  0.0772
  155SAPE  H15X17302   3.850   3.142   8.451  0.6198 -0.2795  2.2256
  155SAPE  H15Y17303   3.957   3.016   8.388 -1.5213  0.2031 -3.5266
  155SAPE  C31617304   3.861   2.969   8.582  0.4511 -0.1812 -0.1673
  155SAPE  H16X17305   3.849   2.858   8.583  0.9648 -0.2490 -0.8837
  155SAPE  H16Y17306   3.773   3.010   8.638  1.7394  0.9970  1.0789
  155SAPE  C31717307   3.984   3.004   8.659  0.7405  0.1556  0.0390
  155SAPE  H17X17308   4.021   3.100   8.618  0.0061 -0.5209 -2.4421
  155SAPE  H17Y17309   4.064   2.932   8.633  0.4836  0.2372 -1.0543
  155SAPE  C31817310   3.955   3.009   8.814  0.4512 -0.7834 -0.6030
  155SAPE  H18X17311   3.864   3.071   8.830  0.6548 -1.2411  3.2601
  155SAPE  H18Y17312   4.037   3.055   8.874  0.4085 -2.2168  0.6139
  155SAPE  H18Z17313   3.940   2.912   8.865 -1.6064 -1.5030 -2.4402
  156SAPE     N17314   0.652   2.067   6.075  0.0454  0.9748  0.3468
  156SAPE   HN117315   0.745   2.026   6.095  0.0501  0.6500 -0.2900
  156SAPE   HN217316   0.644   2.092   5.974 -0.4276 -1.8757 -0.4258
  156SAPE   HN317317   0.648   2.158   6.124  0.6949  0.9647  0.4224
  156SAPE   C1217318   0.537   1.989   6.117  0.1324  1.1094 -0.2145
  156SAPE  H12A17319   0.547   1.891   6.065 -0.5759  1.1032 -0.3475
  156SAPE  H12B17320   0.447   2.043   6.082 -1.2032 -0.0712  1.1997
  156SAPE   C1117321   0.522   1.976   6.272 -0.4230  0.7349  0.5567
  156SAPE  H11A17322   0.614   1.928   6.310 -0.1945  0.4773 -0.2975
  156SAPE  H11B17323   0.450   1.896   6.300  1.5030 -0.7363  1.5682
  156SAPE     P17324   0.351   2.151   6.372 -0.2067 -0.3867  0.1447
  156SAPE   O1317325   0.362   2.277   6.443 -0.6025 -0.0102 -0.4599
  156SAPE   O1417326   0.270   2.148   6.248 -0.2358  0.1080  0.2522
  156SAPE   O1217327   0.501   2.101   6.335 -0.1207  0.3804  0.1982
  156SAPE   O1117328   0.302   2.038   6.472  0.1667  0.0124  0.5900
  156SAPE    C117329   0.310   2.055   6.618 -0.3178  0.0763 -0.0843
  156SAPE    HA17330   0.305   2.163   6.642  1.8001 -0.1627  1.7539
  156SAPE    HB17331   0.222   2.004   6.663 -0.1135  0.5040  0.8267
  156SAPE    C217332   0.449   1.996   6.664 -0.4438 -0.9255 -0.8961
  156SAPE    HS17333   0.529   2.030   6.595  1.3942 -1.5406  0.8430
  156SAPE   O2117334   0.434   1.853   6.658  0.8810  0.0313 -0.0034
  156SAPE   C2117335   0.546   1.780   6.651 -0.6046 -0.0394  0.8957
  156SAPE   O2217336   0.663   1.814   6.654  0.3175  0.1840 -0.4364
  156SAPE   C2217337   0.507   1.637   6.645  0.4409  0.0283 -0.2424
  156SAPE   H2R17338   0.401   1.626   6.675  1.6196 -2.1577  3.8509
  156SAPE   H2S17339   0.531   1.595   6.545  2.8153 -1.1248  0.7129
  156SAPE    C317340   0.469   2.037   6.816  0.6379  0.2424  0.4657
  156SAPE    HX17341   0.376   2.012   6.872  0.8644 -0.4987  0.5175
  156SAPE    HY17342   0.475   2.148   6.815 -0.2065  0.2964 -0.1151
  156SAPE   O3117343   0.589   1.978   6.877 -0.0503 -0.3641  0.2600
  156SAPE   C3117344   0.706   2.030   6.852 -1.0062  0.3275 -0.3785
  156SAPE   O3217345   0.731   2.123   6.777 -0.2457 -0.5340  0.2431
  156SAPE   C3217346   0.818   1.966   6.935 -0.3524  0.1514  0.0500
  156SAPE   H2X17347   0.898   1.934   6.865 -1.9090 -1.9597 -0.8775
  156SAPE   H2Y17348   0.783   1.875   6.988  1.9657  0.3059  2.0506
  156SAPE   C2317349   0.596   1.562   6.749  0.2850 -0.7601 -0.8012
  156SAPE   H3R17350   0.688   1.620   6.773 -1.7379  2.2651  0.1687
  156SAPE   H3S17351   0.630   1.462   6.714  0.9886 -1.5518  1.9306
  156SAPE   C2417352   0.517   1.537   6.878  0.2365  0.4983  0.8945
  156SAPE   H4R17353   0.574   1.463   6.939  0.0540 -0.2080  0.2136
  156SAPE   H4S17354   0.425   1.481   6.851  0.8807  1.0402 -2.8878
  156SAPE   C2517355   0.482   1.662   6.952 -1.0250  0.6789  0.3186
  156SAPE   H5R17356   0.434   1.741   6.891  1.8142  1.9079 -0.4707
  156SAPE   C2617357   0.525   1.710   7.071  0.1008  0.0686 -0.4265
  156SAPE   H6R17358   0.490   1.806   7.110  1.9202  0.5606  0.1191
  156SAPE   C2717359   0.615   1.631   7.148 -0.3570  0.1261 -0.7407
  156SAPE   H7R17360   0.674   1.705   7.207  0.8726 -1.0424 -0.4594
  156SAPE   H7S17361   0.693   1.586   7.083  0.5451 -0.6363  0.8158
  156SAPE   C2817362   0.555   1.524   7.236  0.4759 -0.1473 -0.5109
  156SAPE   H8R17363   0.499   1.451   7.176 -1.3165  0.6632  0.0921
  156SAPE   C2917364   0.591   1.502   7.369 -0.0273  0.0653  0.3212
  156SAPE   H9R17365   0.544   1.420   7.423 -1.6021  0.9879  0.4140
  156SAPE  C21017366   0.684   1.574   7.454  0.8603  0.0573  0.3094
  156SAPE  H10R17367   0.780   1.574   7.399  0.6520  1.5756 -0.0871
  156SAPE  H10S17368   0.705   1.512   7.544 -2.8554 -2.1172 -0.1318
  156SAPE  C21117369   0.642   1.714   7.493 -0.3611 -0.1677  0.5667
  156SAPE  H11R17370   0.596   1.780   7.417 -2.2910 -1.2487  0.7479
  156SAPE  C21217371   0.670   1.778   7.611  0.1466  0.5523  0.3031
  156SAPE  H12R17372   0.644   1.884   7.616 -1.5989  0.1688 -0.0130
  156SAPE  C21317373   0.749   1.724   7.731 -0.0045 -0.1053 -0.6186
  156SAPE  H13R17374   0.773   1.810   7.797 -0.4870 -0.5885  0.1924
  156SAPE  H13S17375   0.844   1.687   7.686 -0.3404 -1.8625  0.0283
  156SAPE  C21417376   0.693   1.605   7.805  0.1842  0.2318 -0.3927
  156SAPE  H14R17377   0.740   1.512   7.768 -2.9742 -1.8032  0.3661
  156SAPE  C21517378   0.606   1.604   7.907 -0.9640  0.4329  0.5522
  156SAPE  H15R17379   0.569   1.506   7.940 -2.3413  0.5715 -0.4809
  156SAPE  C21617380   0.548   1.723   7.973  0.8909 -0.2526 -0.3657
  156SAPE  H16R17381   0.444   1.702   8.007  1.6954 -0.8796  1.8863
  156SAPE  H16S17382   0.540   1.815   7.911 -0.4105 -0.9575 -1.2952
  156SAPE  C21717383   0.606   1.789   8.107 -0.0185 -0.1305 -0.0508
  156SAPE  H17R17384   0.537   1.874   8.126 -1.6819 -0.6284 -3.1780
  156SAPE  H17S17385   0.704   1.834   8.082 -0.4056 -0.0443 -1.4820
  156SAPE  C21817386   0.624   1.703   8.232  0.0879 -0.1630  0.0414
  156SAPE  H18R17387   0.683   1.618   8.192 -1.9446 -1.4421 -0.3560
  156SAPE  H18S17388   0.533   1.654   8.273  0.3694  1.4513  2.8707
  156SAPE  C21917389   0.691   1.764   8.359  0.3464  0.2970  0.5942
  156SAPE  H19R17390   0.774   1.824   8.314  1.3471 -1.4777 -0.0328
  156SAPE  H19S17391   0.741   1.686   8.421  0.3043 -1.1103 -1.1020
  156SAPE  C22017392   0.601   1.853   8.441  0.3613  1.0229 -0.0950
  156SAPE  H20R17393   0.529   1.802   8.509  0.5309 -0.1738 -0.7711
  156SAPE  H20S17394   0.534   1.902   8.367 -0.8929 -1.7768 -0.9585
  156SAPE  H20T17395   0.654   1.934   8.496  0.7031  0.7154  0.0318
  156SAPE   C3317396   0.888   2.061   7.031 -0.2448  0.0105 -0.5439
  156SAPE   H3X17397   0.829   2.089   7.120 -1.1053  0.0845 -1.1301
  156SAPE   H3Y17398   0.915   2.159   6.985 -1.7501  0.6291 -0.1513
  156SAPE   C3417399   1.021   1.996   7.065 -0.0664  0.0957  0.1073
  156SAPE   H4X17400   1.097   2.069   7.101 -1.1023  1.2544  0.0412
  156SAPE   H4Y17401   1.071   1.979   6.968 -1.0441  0.5654 -0.4958
  156SAPE   C3517402   1.006   1.869   7.148 -0.4114  0.2873  0.0424
  156SAPE   H5X17403   1.097   1.807   7.133 -0.7151  0.0414 -0.8257
  156SAPE   H5Y17404   0.918   1.808   7.119 -0.4239 -0.2754  1.2313
  156SAPE   C3617405   0.983   1.899   7.297 -0.0192  0.1832 -0.4049
  156SAPE   H6X17406   0.957   1.803   7.348  1.0018 -0.4010 -0.9476
  156SAPE   H6Y17407   0.903   1.971   7.323 -0.5549 -0.1409 -1.1226
  156SAPE   C3717408   1.116   1.943   7.367  0.5504  1.0859  0.5401
  156SAPE   H7X17409   1.126   2.053   7.366 -0.5096  1.1966  0.6844
  156SAPE   H7Y17410   1.201   1.883   7.328 -0.6806 -2.2689  2.5339
  156SAPE   C3817411   1.106   1.899   7.512  0.0861  0.3041 -0.0936
  156SAPE   H8X17412   1.084   1.790   7.520 -1.2047  0.6108  0.9145
  156SAPE   H8Y17413   1.022   1.961   7.550 -1.1818  0.3711 -2.7632
  156SAPE   C3917414   1.232   1.933   7.596  0.3851 -0.1147 -0.0453
  156SAPE   H9X17415   1.228   2.043   7.613 -0.7161 -0.2359  0.6385
  156SAPE   H9Y17416   1.318   1.916   7.528 -1.7216 -1.6966 -2.4445
  156SAPE  C31017417   1.252   1.856   7.734 -0.1751 -0.4988 -0.6668
  156SAPE  H10X17418   1.341   1.894   7.789 -1.1878 -0.7916  1.2953
  156SAPE  H10Y17419   1.272   1.749   7.717 -0.0506 -0.7780  1.0016
  156SAPE  C31117420   1.132   1.881   7.827  0.0238 -0.1565  0.7503
  156SAPE  H11X17421   1.045   1.830   7.780  0.1641  0.5890 -0.3563
  156SAPE  H11Y17422   1.099   1.986   7.814  0.4066 -0.1546 -0.2922
  156SAPE  C31217423   1.152   1.845   7.972 -0.3207 -0.3182  0.7723
  156SAPE  H12X17424   1.244   1.904   7.988 -0.7122  0.5254  0.0136
  156SAPE  H12Y17425   1.170   1.735   7.972  0.7355 -0.2035 -1.3695
  156SAPE  C31317426   1.035   1.894   8.068 -0.7604 -0.3558  0.0710
  156SAPE  H13X17427   0.964   1.811   8.054  1.2734 -2.0352 -0.8626
  156SAPE  H13Y17428   1.000   1.997   8.044  2.6082  1.0676  0.6516
  156SAPE  C31417429   1.089   1.893   8.215 -0.1730  0.3886  0.3837
  156SAPE  H14X17430   1.168   1.818   8.236 -0.2169 -0.3347 -1.8038
  156SAPE  H14Y17431   1.008   1.840   8.270  0.4426 -0.4218  0.5182
  156SAPE  C31517432   1.121   2.040   8.265  0.0949 -0.2402  0.4474
  156SAPE  H15X17433   1.178   2.038   8.360  2.2787  0.1588 -0.7994
  156SAPE  H15Y17434   1.023   2.092   8.269  0.4145  0.5666 -1.2874
  156SAPE  C31617435   1.211   2.119   8.167 -0.6677 -0.4721  0.2554
  156SAPE  H16X17436   1.157   2.137   8.071  1.7444  4.1221 -0.5444
  156SAPE  H16Y17437   1.302   2.056   8.164 -0.2506  0.1337 -0.1524
  156SAPE  C31717438   1.263   2.251   8.214  0.5166  0.0480  0.3295
  156SAPE  H17X17439   1.172   2.313   8.223 -0.2026 -0.4175 -2.5487
  156SAPE  H17Y17440   1.326   2.307   8.142 -0.8522  0.1772 -0.8190
  156SAPE  C31817441   1.343   2.243   8.348 -0.5327 -0.4787  0.4286
  156SAPE  H18X17442   1.402   2.336   8.362  1.7375 -2.0584  2.1205
  156SAPE  H18Y17443   1.408   2.154   8.338 -0.1061 -0.3415  1.7566
  156SAPE  H18Z17444   1.266   2.243   8.429 -0.3761  1.3578  0.6363
  157SAPE     N17445   1.600   5.535   6.498 -0.6222  0.4849  0.1294
  157SAPE   HN117446   1.536   5.616   6.501 -0.6846  0.4215  0.4757
  157SAPE   HN217447   1.601   5.480   6.586  1.1397 -0.8689 -0.6658
  157SAPE   HN317448   1.693   5.582   6.488  0.8628 -2.4864 -1.2376
  157SAPE   C1217449   1.586   5.444   6.378 -0.7587 -0.6241  0.1835
  157SAPE  H12A17450   1.582   5.520   6.297 -2.0510 -1.7197 -0.8172
  157SAPE  H12B17451   1.492   5.386   6.372  0.4347 -2.4882 -4.1577
  157SAPE   C1117452   1.699   5.348   6.356 -0.0143 -0.4351  0.4720
  157SAPE  H11A17453   1.799   5.397   6.359 -0.3436  0.3206 -0.4458
  157SAPE  H11B17454   1.697   5.312   6.251  2.8034 -1.9159  0.8076
  157SAPE     P17455   1.739   5.090   6.422  0.5631 -0.2352 -0.1027
  157SAPE   O1317456   1.672   5.035   6.305  0.1143  0.0940 -0.2945
  157SAPE   O1417457   1.881   5.091   6.429  0.2084  0.2516  0.0225
  157SAPE   O1217458   1.692   5.242   6.443 -0.1350  0.4780  0.2529
  157SAPE   O1117459   1.666   5.027   6.553 -0.2328  0.3738  0.1873
  157SAPE    C117460   1.713   5.042   6.689 -0.3118  0.2102 -0.2790
  157SAPE    HA17461   1.684   4.952   6.748  1.8492 -0.5917 -0.3470
  157SAPE    HB17462   1.824   5.050   6.694 -0.2869 -0.7280  1.4452
  157SAPE    C217463   1.657   5.169   6.751  0.2119 -0.1121  0.4512
  157SAPE    HS17464   1.701   5.257   6.699 -2.1330  1.6528  1.2833
  157SAPE   O2117465   1.699   5.175   6.884  0.1060  0.0799  0.0295
  157SAPE   C2117466   1.823   5.241   6.910 -0.6299 -0.9125 -0.0329
  157SAPE   O2217467   1.898   5.273   6.819  0.5771  0.2497 -0.4106
  157SAPE   C2217468   1.848   5.241   7.064  0.1070 -0.4315  0.8472
  157SAPE   H2R17469   1.757   5.218   7.124 -1.8888  0.9328 -1.4558
  157SAPE   H2S17470   1.918   5.156   7.077  1.2013  0.8006  3.5915
  157SAPE    C317471   1.502   5.171   6.753 -0.0701 -0.7486  0.3196
  157SAPE    HX17472   1.454   5.077   6.788  0.4417 -0.1803  2.7312
  157SAPE    HY17473   1.464   5.201   6.653 -1.9239 -1.1164  0.8790
  157SAPE   O3117474   1.451   5.259   6.860 -0.0740  0.0725  0.3438
  157SAPE   C3117475   1.468   5.389   6.838  0.3658  0.2187  0.0231
  157SAPE   O3217476   1.534   5.442   6.753 -0.2159 -0.1148 -0.4137
  157SAPE   C3217477   1.375   5.465   6.932 -0.0953  0.2817 -0.4944
  157SAPE   H2X17478   1.275   5.417   6.925  0.3428 -0.5843 -1.0007
  157SAPE   H2Y17479   1.357   5.567   6.892  0.9143  1.5366  2.0121
  157SAPE   C2317480   1.915   5.370   7.120  0.5262  0.5442  0.8250
  157SAPE   H3R17481   1.848   5.453   7.089 -0.0753  0.4827  1.9052
  157SAPE   H3S17482   2.017   5.385   7.080  1.3278 -2.5305  1.4849
  157SAPE   C2417483   1.912   5.373   7.274 -0.1744 -0.2079 -0.2489
  157SAPE   H4R17484   1.810   5.353   7.313 -1.4536  2.0479 -2.1205
  157SAPE   H4S17485   1.949   5.474   7.303  1.4693 -0.5046 -1.1493
  157SAPE   C2517486   1.997   5.259   7.328 -0.1021 -0.5071 -0.0579
  157SAPE   H5R17487   2.027   5.184   7.254 -1.5668  0.0448 -1.2496
  157SAPE   C2617488   2.027   5.247   7.459  0.2001 -0.6229 -0.5479
  157SAPE   H6R17489   2.090   5.163   7.489  2.6802  1.1828 -0.3456
  157SAPE   C2717490   1.977   5.341   7.563  0.7820 -0.1673 -0.0171
  157SAPE   H7R17491   1.889   5.397   7.525  1.4372 -0.2702 -1.8268
  157SAPE   H7S17492   2.049   5.421   7.589 -1.4937  0.8434  3.8812
  157SAPE   C2817493   1.943   5.261   7.690 -0.1216 -0.1934 -0.1444
  157SAPE   H8R17494   1.836   5.241   7.709 -0.1494  2.4752  3.6706
  157SAPE   C2917495   2.026   5.218   7.787 -1.0339  0.3780 -0.2404
  157SAPE   H9R17496   1.988   5.141   7.855 -2.0799  0.8856 -0.2436
  157SAPE  C21017497   2.172   5.230   7.792  0.6841  0.4611  0.1894
  157SAPE  H10R17498   2.198   5.309   7.719 -3.4989 -0.2683 -2.4204
  157SAPE  H10S17499   2.217   5.143   7.739  1.5706  2.2831 -2.2287
  157SAPE  C21117500   2.230   5.256   7.926  0.2372 -0.5822 -0.0509
  157SAPE  H11R17501   2.262   5.358   7.950  0.1219 -0.5389 -0.0772
  157SAPE  C21217502   2.235   5.168   8.028  0.5684 -0.6954  0.3591
  157SAPE  H12R17503   2.271   5.210   8.123  1.9461  0.4262 -0.6009
  157SAPE  C21317504   2.191   5.022   8.015  0.1420  0.3762  0.1049
  157SAPE  H13R17505   2.193   4.983   7.910  0.8867  2.7182 -0.8149
  157SAPE  H13S17506   2.085   5.014   8.046 -0.2544  0.3008 -1.2059
  157SAPE  C21417507   2.286   4.941   8.108 -0.1948 -0.9890  0.2987
  157SAPE  H14R17508   2.394   4.947   8.087 -0.6758  0.7955 -1.9771
  157SAPE  C21517509   2.254   4.859   8.210 -0.2353  0.4226 -0.0984
  157SAPE  H15R17510   2.339   4.823   8.268 -0.3456 -1.6052 -1.0913
  157SAPE  C21617511   2.111   4.832   8.263 -0.0606  0.1795 -0.2586
  157SAPE  H16R17512   2.028   4.890   8.217 -0.7427 -0.3463  0.2840
  157SAPE  H16S17513   2.114   4.852   8.372 -0.8495 -0.1030 -0.1816
  157SAPE  C21717514   2.084   4.686   8.238  0.4120  0.4047 -0.3650
  157SAPE  H17R17515   2.152   4.618   8.294  0.4051  0.9138  0.2763
  157SAPE  H17S17516   2.109   4.655   8.134 -1.8025  0.8800 -1.0927
  157SAPE  C21817517   1.935   4.652   8.276 -0.4731 -0.1848  0.3534
  157SAPE  H18R17518   1.879   4.706   8.197  0.8866  2.5849  1.1959
  157SAPE  H18S17519   1.902   4.686   8.377  1.9870  1.6878  0.6080
  157SAPE  C21917520   1.902   4.505   8.270  0.3382 -0.0691 -0.4444
  157SAPE  H19R17521   1.810   4.489   8.330  1.3993  0.7119  1.4736
  157SAPE  H19S17522   1.981   4.442   8.317 -1.4112 -3.4378 -1.6588
  157SAPE  C22017523   1.873   4.463   8.123  0.2259  0.8335 -0.5737
  157SAPE  H20R17524   1.967   4.456   8.064 -0.6225 -0.9850 -1.7840
  157SAPE  H20S17525   1.796   4.533   8.084 -0.1283  1.9686  1.9611
  157SAPE  H20T17526   1.823   4.365   8.107 -0.6986  1.3341 -0.8284
  157SAPE   C3317527   1.432   5.481   7.077  0.5410 -0.0286  0.1845
  157SAPE   H3X17528   1.375   5.557   7.134  1.0963  0.7284 -0.2474
  157SAPE   H3Y17529   1.540   5.502   7.064  0.8472 -0.6454  1.5913
  157SAPE   C3417530   1.421   5.351   7.156  0.1736 -0.1539 -0.3681
  157SAPE   H4X17531   1.488   5.285   7.096 -1.3193 -0.9423 -1.2379
  157SAPE   H4Y17532   1.322   5.303   7.143 -0.2561  1.0408 -1.8038
  157SAPE   C3517533   1.454   5.357   7.313  0.3095  0.0076 -0.4039
  157SAPE   H5X17534   1.563   5.352   7.330  0.4586 -0.4639 -1.4522
  157SAPE   H5Y17535   1.412   5.266   7.360 -1.7861  0.8507 -0.5319
  157SAPE   C3617536   1.399   5.479   7.394 -0.7492  0.3418  0.2527
  157SAPE   H6X17537   1.288   5.478   7.393 -0.7656 -1.2258  0.1235
  157SAPE   H6Y17538   1.440   5.572   7.349  1.4300 -1.1476 -1.0497
  157SAPE   C3717539   1.446   5.478   7.543  0.2125 -0.5843  0.5384
  157SAPE   H7X17540   1.470   5.583   7.572 -1.8331 -0.2674  1.2779
  157SAPE   H7Y17541   1.543   5.424   7.546  0.5675 -0.0511 -0.8398
  157SAPE   C3817542   1.345   5.418   7.641  0.2524  0.0178  0.4877
  157SAPE   H8X17543   1.343   5.311   7.610 -1.4044  0.6026 -1.7043
  157SAPE   H8Y17544   1.242   5.459   7.631  0.2413 -0.4228 -2.1496
  157SAPE   C3917545   1.385   5.426   7.792 -0.2813  0.9313  0.5527
  157SAPE   H9X17546   1.394   5.534   7.815 -0.9073  1.5126 -1.7181
  157SAPE   H9Y17547   1.490   5.393   7.808 -0.3602  0.7323  0.6647
  157SAPE  C31017548   1.280   5.360   7.889 -0.1704  0.1190  0.3168
  157SAPE  H10X17549   1.250   5.264   7.842 -0.7638 -0.2860  1.4888
  157SAPE  H10Y17550   1.190   5.424   7.900  1.6452  2.9369 -0.0993
  157SAPE  C31117551   1.339   5.337   8.020  0.3041 -0.2942  0.5100
  157SAPE  H11X17552   1.364   5.433   8.069  3.3397 -0.4930 -0.4355
  157SAPE  H11Y17553   1.437   5.285   8.018 -0.2224 -1.3351  0.8738
  157SAPE  C31217554   1.247   5.245   8.109  0.1768 -0.0032 -0.0560
  157SAPE  H12X17555   1.322   5.187   8.168  1.0996 -0.3522 -1.5001
  157SAPE  H12Y17556   1.195   5.169   8.046 -0.6903  0.0321  0.6038
  157SAPE  C31317557   1.137   5.324   8.180 -0.4909 -0.6555  0.7823
  157SAPE  H13X17558   1.076   5.381   8.107  0.6585  0.9887  1.0553
  157SAPE  H13Y17559   1.185   5.398   8.248  1.7592  1.0670 -2.4517
  157SAPE  C31417560   1.051   5.241   8.267  0.0639 -0.3105  0.2522
  157SAPE  H14X17561   1.109   5.182   8.341  1.0656  0.9813  0.5348
  157SAPE  H14Y17562   1.006   5.169   8.195 -0.7975 -0.0360  0.5034
  157SAPE  C31517563   0.942   5.327   8.334  0.1628 -0.1464  0.0194
  157SAPE  H15X17564   0.898   5.390   8.254 -1.1961 -0.2799  0.6381
  157SAPE  H15Y17565   0.999   5.394   8.402  2.9046 -1.5776 -0.7262
  157SAPE  C31617566   0.851   5.248   8.417  1.4860  1.1360 -0.0551
  157SAPE  H16X17567   0.907   5.176   8.480 -0.8205 -0.9495 -0.2623
  157SAPE  H16Y17568   0.788   5.201   8.338  1.5839  0.8154  0.0588
  157SAPE  C31717569   0.758   5.335   8.500 -0.0960  0.0899 -0.1506
  157SAPE  H17X17570   0.787   5.414   8.572 -1.0262 -0.0055  0.3532
  157SAPE  H17Y17571   0.707   5.266   8.571 -0.1362 -0.3006 -0.5492
  157SAPE  C31817572   0.642   5.397   8.412 -0.2810  0.7086 -0.0478
  157SAPE  H18X17573   0.570   5.319   8.379 -0.1411 -0.2765  1.8470
  157SAPE  H18Y17574   0.681   5.453   8.324  0.7974  0.0544 -0.0131
  157SAPE  H18Z17575   0.595   5.473   8.477 -0.6378 -1.0581  1.8789
  158SAPE     N17576   1.091   2.420   6.652 -0.4054 -0.1800 -0.0864
  158SAPE   HN117577   1.012   2.484   6.674  0.6463  1.2127 -0.3204
  158SAPE   HN217578   1.051   2.327   6.626  1.1139 -0.3316 -2.0748
  158SAPE   HN317579   1.160   2.409   6.729  0.1756  0.1250 -0.5634
  158SAPE   C1217580   1.178   2.474   6.546  0.0414 -0.3503 -0.0119
  158SAPE  H12A17581   1.240   2.398   6.495  0.4563  0.5642 -0.9211
  158SAPE  H12B17582   1.244   2.551   6.593  1.6576 -1.1201 -0.9418
  158SAPE   C1117583   1.100   2.553   6.452 -0.3990 -0.4887  0.1082
  158SAPE  H11A17584   1.037   2.482   6.395  2.2536 -1.6765 -1.5660
  158SAPE  H11B17585   1.165   2.589   6.368 -2.2435 -1.0001 -1.6270
  158SAPE     P17586   0.923   2.737   6.423 -0.2263 -0.1275 -0.2007
  158SAPE   O1317587   0.981   2.810   6.312  0.3919  0.2813  0.1042
  158SAPE   O1417588   0.822   2.633   6.387  0.5981 -0.2253  0.2335
  158SAPE   O1217589   1.028   2.661   6.508  0.2562 -0.6474 -0.1052
  158SAPE   O1117590   0.859   2.833   6.518 -0.5496 -0.5652 -0.9247
  158SAPE    C117591   0.932   2.925   6.597 -0.5488  0.6167 -0.8270
  158SAPE    HA17592   1.034   2.956   6.566 -0.4097 -0.0605 -1.0627
  158SAPE    HB17593   0.875   3.020   6.608 -0.2307  0.6067  1.4664
  158SAPE    C217594   0.962   2.860   6.737  0.2287  0.1063  0.1705
  158SAPE    HS17595   1.039   2.782   6.718 -2.7914 -3.8211  2.3214
  158SAPE   O2117596   0.843   2.800   6.794  0.8541  0.6024 -0.3367
  158SAPE   C2117597   0.849   2.662   6.809  0.0777 -0.9108  0.1131
  158SAPE   O2217598   0.950   2.594   6.800 -0.0484 -0.0978 -0.0342
  158SAPE   C2217599   0.708   2.608   6.847  0.7362  0.6182  0.2072
  158SAPE   H2R17600   0.690   2.656   6.945 -0.5166  1.0712 -0.2309
  158SAPE   H2S17601   0.624   2.634   6.780 -0.9208  0.0206  1.9740
  158SAPE    C317602   1.007   2.978   6.831 -0.5252  0.4281 -0.2803
  158SAPE    HX17603   0.947   3.071   6.822 -0.3051  0.7254  1.1181
  158SAPE    HY17604   1.105   3.024   6.805 -0.8722  1.1504 -0.3413
  158SAPE   O3117605   0.995   2.950   6.969 -0.2375 -1.0772 -0.0251
  158SAPE   C3117606   1.100   2.902   7.026  0.4618  0.6878  0.0611
  158SAPE   O3217607   1.208   2.873   6.971  0.1282 -0.2210 -0.2325
  158SAPE   C3217608   1.063   2.875   7.172  0.0083  0.2495 -0.4675
  158SAPE   H2X17609   0.960   2.834   7.181  0.0676  0.4665  1.6741
  158SAPE   H2Y17610   1.065   2.974   7.222  0.1670  0.3444 -0.6591
  158SAPE   C2317611   0.691   2.454   6.875  0.6551  0.3260  0.1409
  158SAPE   H3R17612   0.744   2.400   6.793 -1.2512 -0.8193 -0.3987
  158SAPE   H3S17613   0.590   2.417   6.848  0.9762  0.7625 -1.7720
  158SAPE   C2417614   0.728   2.410   7.019 -0.3429 -0.0633  0.5155
  158SAPE   H4R17615   0.704   2.303   7.031 -1.4250  0.1965  0.7700
  158SAPE   H4S17616   0.645   2.462   7.071 -0.9137  0.4515 -0.8634
  158SAPE   C2517617   0.864   2.445   7.069  0.5210  0.0568  0.1821
  158SAPE   H5R17618   0.947   2.442   6.997  0.4950 -0.5200  0.1734
  158SAPE   C2617619   0.878   2.481   7.201  0.0922  0.1306 -0.0158
  158SAPE   H6R17620   0.979   2.497   7.242 -0.0161  0.1091  0.2580
  158SAPE   C2717621   0.763   2.479   7.301  0.9888  0.0712  0.3719
  158SAPE   H7R17622   0.803   2.445   7.399 -1.6349  0.9812  1.8530
  158SAPE   H7S17623   0.685   2.407   7.269 -0.1674  1.7307 -0.7099
  158SAPE   C2817624   0.684   2.607   7.326  0.5970  0.4648 -0.5222
  158SAPE   H8R17625   0.636   2.642   7.233  0.5922  1.4391 -0.1549
  158SAPE   C2917626   0.682   2.685   7.435 -0.2689 -0.0106  0.1667
  158SAPE   H9R17627   0.610   2.767   7.437 -0.8048 -0.4647 -0.3529
  158SAPE  C21017628   0.764   2.660   7.562  0.2327 -0.2612 -0.2720
  158SAPE  H10R17629   0.808   2.758   7.590 -1.9125  0.5026  0.6671
  158SAPE  H10S17630   0.847   2.587   7.551  0.5752 -0.0220  0.6489
  158SAPE  C21117631   0.670   2.610   7.669  0.3660  0.5511 -0.3823
  158SAPE  H11R17632   0.620   2.518   7.636 -0.0608  0.8496 -0.5769
  158SAPE  C21217633   0.648   2.661   7.792 -0.2613 -0.3703  0.0384
  158SAPE  H12R17634   0.575   2.611   7.858 -0.6158 -1.5024 -1.1699
  158SAPE  C21317635   0.716   2.779   7.851  0.7688  0.3715  0.0128
  158SAPE  H13R17636   0.777   2.832   7.775 -0.1065 -0.2808 -1.1849
  158SAPE  H13S17637   0.793   2.737   7.919  0.4806  0.2615  0.2718
  158SAPE  C21417638   0.617   2.871   7.911  0.1990 -0.0206 -0.3973
  158SAPE  H14R17639   0.561   2.916   7.828 -0.6847 -3.6414 -1.9625
  158SAPE  C21517640   0.594   2.896   8.042 -0.7224 -0.1527  0.8527
  158SAPE  H15R17641   0.538   2.987   8.065  0.7224  0.7842  0.7964
  158SAPE  C21617642   0.671   2.832   8.153  0.3589 -0.5143 -0.5979
  158SAPE  H16R17643   0.723   2.905   8.220 -2.2026 -0.1832  1.1676
  158SAPE  H16S17644   0.737   2.749   8.121 -0.4682 -1.6389  0.5308
  158SAPE  C21717645   0.564   2.768   8.249 -0.0064  0.3474  0.1498
  158SAPE  H17R17646   0.487   2.838   8.288  0.1408 -0.7504  2.6057
  158SAPE  H17S17647   0.610   2.724   8.341  2.9847  1.1400 -0.8448
  158SAPE  C21817648   0.476   2.662   8.186  1.3234 -0.4302 -0.2887
  158SAPE  H18R17649   0.537   2.580   8.144 -0.6886 -3.6500  2.5356
  158SAPE  H18S17650   0.410   2.697   8.104  2.7276  1.5769 -0.6291
  158SAPE  C21917651   0.383   2.592   8.292  0.1112  0.4776 -0.0348
  158SAPE  H19R17652   0.340   2.675   8.351 -1.2906  0.0031 -0.3669
  158SAPE  H19S17653   0.450   2.533   8.358  1.0530  0.1330 -1.2423
  158SAPE  C22017654   0.274   2.505   8.228  0.2231 -0.2422 -0.5891
  158SAPE  H20R17655   0.304   2.464   8.129  0.9322 -0.0163 -0.4724
  158SAPE  H20S17656   0.174   2.551   8.216 -0.5722 -2.2476 -2.4654
  158SAPE  H20T17657   0.262   2.413   8.289 -0.2877 -0.5760 -1.1785
  158SAPE   C3317658   1.167   2.791   7.245 -0.6175  0.4099  0.6488
  158SAPE   H3X17659   1.269   2.833   7.232 -0.7697  0.6207  0.0908
  158SAPE   H3Y17660   1.187   2.698   7.187 -2.8258 -0.3383  0.9869
  158SAPE   C3417661   1.130   2.773   7.395  0.1728 -0.5919  0.4324
  158SAPE   H4X17662   1.024   2.739   7.398 -0.7379  1.9854 -0.1586
  158SAPE   H4Y17663   1.126   2.873   7.442 -1.1027  0.0752 -0.9867
  158SAPE   C3517664   1.239   2.673   7.453 -0.7969 -0.5351  0.2353
  158SAPE   H5X17665   1.336   2.698   7.407 -1.1254 -1.1617 -0.8497
  158SAPE   H5Y17666   1.209   2.567   7.436 -2.6968 -0.4226  2.4380
  158SAPE   C3617667   1.276   2.685   7.601 -0.4123  0.0660  0.3273
  158SAPE   H6X17668   1.294   2.793   7.624 -0.1173  0.0279  0.2789
  158SAPE   H6Y17669   1.364   2.624   7.630  1.2063  2.8795  1.7820
  158SAPE   C3717670   1.165   2.651   7.695  0.3637 -0.0115 -0.8227
  158SAPE   H7X17671   1.091   2.731   7.674  1.3894  1.2286  0.0640
  158SAPE   H7Y17672   1.122   2.552   7.669 -0.8361 -0.2263  1.6604
  158SAPE   C3817673   1.205   2.657   7.846 -0.1199 -0.0295  0.1204
  158SAPE   H8X17674   1.245   2.758   7.867 -2.2625  0.6242  1.4714
  158SAPE   H8Y17675   1.291   2.591   7.869  0.1555  0.7272  1.3254
  158SAPE   C3917676   1.081   2.634   7.935 -0.0578 -0.5960 -0.7302
  158SAPE   H9X17677   1.012   2.721   7.922  1.0213  0.4759  0.4471
  158SAPE   H9Y17678   1.122   2.622   8.037 -2.1159 -0.1363  0.2117
  158SAPE  C31017679   0.995   2.505   7.898  0.2593  0.2699  1.0556
  158SAPE  H10X17680   0.979   2.512   7.788  3.0352  3.5258  0.6585
  158SAPE  H10Y17681   0.903   2.509   7.960  0.6973 -0.4592  1.7714
  158SAPE  C31117682   1.074   2.373   7.909  0.5956  0.3888  0.2408
  158SAPE  H11X17683   1.108   2.348   8.011  1.7180  0.7529 -0.0363
  158SAPE  H11Y17684   1.169   2.380   7.852  1.5508  1.2557  1.8717
  158SAPE  C31217685   0.982   2.258   7.865 -0.3838 -0.3219  0.3253
  158SAPE  H12X17686   0.885   2.263   7.919 -1.5411  1.2528 -1.7640
  158SAPE  H12Y17687   1.035   2.166   7.895 -0.8463  0.2348  3.1488
  158SAPE  C31317688   0.959   2.247   7.716 -0.6615  0.0235 -0.4715
  158SAPE  H13X17689   1.047   2.205   7.664  1.3537 -0.3832  3.0126
  158SAPE  H13Y17690   0.950   2.350   7.675  0.8128  0.5954  0.5737
  158SAPE  C31417691   0.831   2.163   7.670 -0.0008 -0.6584 -0.2357
  158SAPE  H14X17692   0.752   2.170   7.747 -2.5797  2.1883 -2.8743
  158SAPE  H14Y17693   0.872   2.060   7.674  1.8630  0.0896  1.1001
  158SAPE  C31517694   0.772   2.216   7.538  0.5699 -0.0723 -0.6962
  158SAPE  H15X17695   0.856   2.226   7.465  0.4867  0.0486 -0.7757
  158SAPE  H15Y17696   0.731   2.318   7.553  0.9468  0.0201 -0.2704
  158SAPE  C31617697   0.667   2.116   7.485  0.0342  0.3102  0.4646
  158SAPE  H16X17698   0.594   2.104   7.567 -1.8324  1.3232 -0.9784
  158SAPE  H16Y17699   0.721   2.019   7.474  0.6149  0.6264  0.4933
  158SAPE  C31717700   0.611   2.159   7.350 -0.1319  0.6531  0.3753
  158SAPE  H17X17701   0.698   2.172   7.282 -2.0017  1.2878 -1.9918
  158SAPE  H17Y17702   0.573   2.260   7.375 -0.6127  0.1231  1.9502
  158SAPE  C31817703   0.504   2.067   7.287 -0.0672 -0.3959 -0.8103
  158SAPE  H18X17704   0.408   2.081   7.342  0.3067  0.7955 -0.4276
  158SAPE  H18Y17705   0.520   1.958   7.296  0.7323 -0.2954 -0.9602
  158SAPE  H18Z17706   0.481   2.096   7.183 -1.1274  0.7564 -0.2823
  159SAPE     N17707   0.650   4.454   6.284  0.1107  0.0784  0.3108
  159SAPE   HN117708   0.718   4.375   6.275 -0.1333 -0.2954  1.6475
  159SAPE   HN217709   0.615   4.483   6.190 -0.0843  2.5880  1.0911
  159SAPE   HN317710   0.708   4.529   6.328 -0.2166  0.2251  0.4944
  159SAPE   C1217711   0.536   4.415   6.376 -0.0396  0.6355 -0.0974
  159SAPE  H12A17712   0.578   4.418   6.479  2.2732  0.0410 -0.9445
  159SAPE  H12B17713   0.510   4.313   6.341  0.9952  0.6995 -1.0959
  159SAPE   C1117714   0.422   4.521   6.381 -0.6362  0.0852  0.3166
  159SAPE  H11A17715   0.475   4.615   6.404  0.6537  0.0032 -2.0285
  159SAPE  H11B17716   0.354   4.498   6.466  1.1186 -1.6278  1.3653
  159SAPE     P17717   0.227   4.463   6.212 -0.2905 -0.0103 -0.0097
  159SAPE   O1317718   0.194   4.490   6.073  0.0716 -0.3095  0.0369
  159SAPE   O1417719   0.231   4.322   6.258 -0.7167 -0.5943  0.0417
  159SAPE   O1217720   0.364   4.532   6.247  0.6139 -0.0848 -0.4318
  159SAPE   O1117721   0.118   4.548   6.303 -0.1129  0.5994  0.4193
  159SAPE    C117722   0.096   4.684   6.283 -0.4268  0.5256  0.5976
  159SAPE    HA17723   0.140   4.720   6.188 -1.2367 -0.5744 -0.2249
  159SAPE    HB17724  -0.012   4.711   6.291  0.0824  2.6615  0.8330
  159SAPE    C217725   0.152   4.772   6.402 -0.9039  0.4228 -0.0639
  159SAPE    HS17726   0.260   4.749   6.403 -0.7208  1.1244 -1.4228
  159SAPE   O2117727   0.081   4.722   6.517  0.1081 -0.1381 -0.1879
  159SAPE   C2117728   0.156   4.730   6.627 -0.5226  0.6238  0.7385
  159SAPE   O2217729   0.263   4.785   6.634 -0.2334  0.3339  0.4484
  159SAPE   C2217730   0.083   4.661   6.743 -0.2037 -0.6741 -0.0078
  159SAPE   H2R17731   0.083   4.741   6.820 -0.2495  0.5723 -1.2657
  159SAPE   H2S17732  -0.019   4.627   6.715 -0.9588  0.3833  1.3486
  159SAPE    C317733   0.122   4.927   6.384 -0.2600 -0.3066 -0.2854
  159SAPE    HX17734   0.013   4.948   6.379 -0.2606  0.2260  1.3382
  159SAPE    HY17735   0.161   4.955   6.284  0.1689  1.0952  0.2458
  159SAPE   O3117736   0.197   5.012   6.481  0.0998 -0.0741  0.2756
  159SAPE   C3117737   0.119   5.090   6.552  0.6161 -0.2517  0.7418
  159SAPE   O3217738  -0.004   5.081   6.555  0.2989  0.4792 -0.7989
  159SAPE   C3217739   0.197   5.192   6.624  0.0719  0.8181 -1.0207
  159SAPE   H2X17740   0.119   5.266   6.654  0.7270  0.8704  0.6280
  159SAPE   H2Y17741   0.282   5.234   6.566  0.6210  0.9570 -0.1336
  159SAPE   C2317742   0.151   4.549   6.809 -0.4140 -0.4449 -0.0037
  159SAPE   H3R17743   0.249   4.592   6.840  0.2506 -1.0552 -1.1974
  159SAPE   H3S17744   0.162   4.462   6.742  1.3245 -0.8266  0.6933
  159SAPE   C2417745   0.083   4.505   6.939 -0.3533 -0.1408 -0.1132
  159SAPE   H4R17746  -0.017   4.463   6.917  1.0017 -2.3531 -2.5909
  159SAPE   H4S17747   0.073   4.593   7.007  0.7085  1.7164 -2.2272
  159SAPE   C2517748   0.159   4.395   7.007 -0.2550  0.5492 -0.2015
  159SAPE   H5R17749   0.174   4.306   6.945 -0.9417 -0.1788  0.6604
  159SAPE   C2617750   0.213   4.400   7.131  0.4337  0.0971 -0.5894
  159SAPE   H6R17751   0.259   4.305   7.163 -1.2185 -0.6318 -0.3072
  159SAPE   C2717752   0.205   4.514   7.224  0.2713 -0.0207  0.2546
  159SAPE   H7R17753   0.107   4.511   7.277  0.7325 -0.9320  1.0805
  159SAPE   H7S17754   0.198   4.607   7.163  2.7994  0.0041 -0.0733
  159SAPE   C2817755   0.314   4.533   7.328 -0.2122  1.0028 -0.4623
  159SAPE   H8R17756   0.413   4.561   7.290  0.3863 -0.2074  0.1441
  159SAPE   C2917757   0.290   4.513   7.460  0.2215  0.0369 -0.1893
  159SAPE   H9R17758   0.369   4.536   7.532  0.8750 -1.0536 -0.5293
  159SAPE  C21017759   0.162   4.472   7.534 -0.1970  0.4266 -0.0269
  159SAPE  H10R17760   0.187   4.381   7.593  0.5630 -0.2192 -1.2929
  159SAPE  H10S17761   0.070   4.445   7.479 -1.5272  2.4998  1.0579
  159SAPE  C21117762   0.121   4.589   7.621  0.9143  0.5050  0.3947
  159SAPE  H11R17763   0.053   4.658   7.569  1.1714 -0.7391 -1.6756
  159SAPE  C21217764   0.157   4.611   7.752 -0.2598 -0.5982  0.0621
  159SAPE  H12R17765   0.136   4.712   7.791 -0.7588 -0.2328 -1.0970
  159SAPE  C21317766   0.254   4.523   7.832  0.1859 -0.0886  0.4324
  159SAPE  H13R17767   0.329   4.471   7.768  0.2571 -0.0327  0.4695
  159SAPE  H13S17768   0.195   4.434   7.863 -1.9381  0.7359 -1.0738
  159SAPE  C21417769   0.319   4.594   7.952  0.4931 -0.2397 -0.0151
  159SAPE  H14R17770   0.255   4.666   8.004  0.5799  0.4332 -0.8227
  159SAPE  C21517771   0.425   4.547   8.021 -0.3324 -0.6869 -0.1579
  159SAPE  H15R17772   0.450   4.595   8.117 -3.6667  2.3456 -0.6038
  159SAPE  C21617773   0.519   4.437   7.988 -0.0246 -0.2679  0.9277
  159SAPE  H16R17774   0.471   4.371   7.912 -0.5448  2.2653 -1.0940
  159SAPE  H16S17775   0.535   4.363   8.069  0.4502 -0.5181  0.6086
  159SAPE  C21717776   0.655   4.490   7.937  0.1381 -0.0138  0.3318
  159SAPE  H17R17777   0.703   4.528   8.030 -0.4103  1.6350 -0.0216
  159SAPE  H17S17778   0.637   4.577   7.870 -0.1073  0.5009  1.0579
  159SAPE  C21817779   0.752   4.387   7.869  0.3811 -0.2469  0.2703
  159SAPE  H18R17780   0.705   4.356   7.773  1.8178  0.5598 -0.7141
  159SAPE  H18S17781   0.773   4.303   7.939 -0.9265 -0.4474  0.4508
  159SAPE  C21917782   0.886   4.456   7.829  0.0955  0.1330 -0.0809
  159SAPE  H19R17783   0.940   4.504   7.913  1.8731  0.9666 -1.6366
  159SAPE  H19S17784   0.860   4.544   7.767 -0.8268  0.3564  0.5964
  159SAPE  C22017785   0.985   4.345   7.767 -0.3864 -0.5170  0.9544
  159SAPE  H20R17786   1.012   4.270   7.844  0.6358 -2.2505 -1.0116
  159SAPE  H20S17787   1.070   4.404   7.727  0.9830 -3.3442 -0.5748
  159SAPE  H20T17788   0.931   4.285   7.691 -1.1103 -1.4680  2.1802
  159SAPE   C3317789   0.258   5.119   6.748 -0.4010  0.8240 -0.5668
  159SAPE   H3X17790   0.334   5.181   6.801 -0.3972  0.7314 -0.4635
  159SAPE   H3Y17791   0.313   5.027   6.718 -0.0190  0.2911  1.5409
  159SAPE   C3417792   0.155   5.069   6.855  0.3120 -0.0115 -0.0510
  159SAPE   H4X17793   0.081   4.998   6.813  1.0904  0.4912 -2.4495
  159SAPE   H4Y17794   0.110   5.160   6.900  3.8978  2.2188 -0.5644
  159SAPE   C3517795   0.229   5.002   6.969  0.7414 -0.3867 -0.4930
  159SAPE   H5X17796   0.287   5.079   7.025 -1.7073  0.3896  1.1605
  159SAPE   H5Y17797   0.298   4.923   6.932  0.6019  0.0392 -1.7250
  159SAPE   C3617798   0.134   4.929   7.064 -1.1424  0.0934 -0.4154
  159SAPE   H6X17799   0.197   4.857   7.121 -1.3667  0.0507 -0.2203
  159SAPE   H6Y17800   0.062   4.867   7.005 -1.6159 -0.2259  0.4790
  159SAPE   C3717801   0.055   5.023   7.151 -0.2308  0.2529 -0.4883
  159SAPE   H7X17802  -0.008   4.955   7.212 -0.8541  0.3407 -1.0329
  159SAPE   H7Y17803  -0.014   5.083   7.088  0.3643  1.3752 -0.0997
  159SAPE   C3817804   0.123   5.115   7.249  0.1507  0.0864  0.4984
  159SAPE   H8X17805   0.055   5.145   7.332  1.4814  2.3587  0.8332
  159SAPE   H8Y17806   0.141   5.212   7.197 -1.8550  0.5535  0.5791
  159SAPE   C3917807   0.247   5.065   7.310 -1.0197 -1.0700  0.4742
  159SAPE   H9X17808   0.295   5.148   7.367  0.4054 -1.7158  0.2565
  159SAPE   H9Y17809   0.323   5.015   7.246 -0.2494 -2.6367  2.5192
  159SAPE  C31017810   0.228   4.937   7.406  0.7554  0.2593 -0.2694
  159SAPE  H10X17811   0.313   4.869   7.385  0.0827 -0.8470  0.4981
  159SAPE  H10Y17812   0.137   4.876   7.389  0.4658  0.8017 -0.7307
  159SAPE  C31117813   0.239   4.952   7.559  0.3907 -0.2270 -0.2963
  159SAPE  H11X17814   0.337   4.997   7.584  0.5062 -0.8815  0.4866
  159SAPE  H11Y17815   0.240   4.853   7.608  0.0879 -0.9089 -1.6195
  159SAPE  C31217816   0.134   5.048   7.611 -0.6316  0.2575  0.3372
  159SAPE  H12X17817   0.035   5.000   7.594 -1.0676  0.6831  1.5892
  159SAPE  H12Y17818   0.150   5.137   7.546  1.6826  1.0888  1.9323
  159SAPE  C31317819   0.160   5.089   7.761  0.3762 -0.1750 -0.1821
  159SAPE  H13X17820   0.249   5.155   7.760  0.7103 -0.6342 -0.6916
  159SAPE  H13Y17821   0.177   4.995   7.818 -0.8418 -1.0251 -1.1610
  159SAPE  C31417822   0.032   5.162   7.820 -0.1456  0.3417  0.1214
  159SAPE  H14X17823  -0.062   5.102   7.823 -0.1009  0.2589 -0.1765
  159SAPE  H14Y17824   0.027   5.240   7.741 -2.5964 -0.4270 -0.5718
  159SAPE  C31517825   0.049   5.227   7.963  0.1863  0.0803  1.0847
  159SAPE  H15X17826   0.151   5.269   7.972 -0.5671  1.7332  2.8515
  159SAPE  H15Y17827   0.024   5.150   8.039 -1.5003  0.3814  0.8759
  159SAPE  C31617828  -0.054   5.343   7.980 -0.4967 -0.0479  0.0190
  159SAPE  H16X17829  -0.049   5.417   7.898  0.0608 -0.3921 -0.2700
  159SAPE  H16Y17830  -0.027   5.386   8.079 -0.4249 -1.8361  0.8266
  159SAPE  C31717831  -0.200   5.297   7.973  0.7903  0.1849 -0.0043
  159SAPE  H17X17832  -0.222   5.240   7.881 -1.0523 -1.5334  1.4033
  159SAPE  H17Y17833  -0.274   5.380   7.973 -0.3417 -0.7060 -2.8516
  159SAPE  C31817834  -0.253   5.206   8.093 -0.8378  0.1349  0.0375
  159SAPE  H18X17835  -0.360   5.187   8.068 -0.2169 -0.8638 -2.1822
  159SAPE  H18Y17836  -0.233   5.253   8.191  0.0368  0.4242 -0.2746
  159SAPE  H18Z17837  -0.210   5.103   8.085  1.7945  1.2587 -1.9015
  160SAPE     N17838   1.250   3.671   6.096 -0.2543 -0.1574 -0.0125
  160SAPE   HN117839   1.299   3.729   6.025 -2.1623  3.3012  1.2618
  160SAPE   HN217840   1.189   3.739   6.145 -1.6097 -2.3893  1.5609
  160SAPE   HN317841   1.329   3.636   6.154  0.0476 -0.5488 -0.6516
  160SAPE   C1217842   1.178   3.559   6.037 -0.2545  0.7827  0.2935
  160SAPE  H12A17843   1.254   3.486   6.002  1.0409  1.6068  1.3233
  160SAPE  H12B17844   1.120   3.606   5.954 -0.7400 -0.3077  0.0025
  160SAPE   C1117845   1.098   3.499   6.149  0.5383 -0.4028 -0.9324
  160SAPE  H11A17846   1.027   3.425   6.105 -2.0667 -0.4915  2.9471
  160SAPE  H11B17847   1.028   3.565   6.203  1.4493 -1.0677  1.1386
  160SAPE     P17848   1.233   3.293   6.226 -0.4384 -0.4727  0.5063
  160SAPE   O1317849   1.202   3.247   6.084  0.4885 -0.2724  0.0161
  160SAPE   O1417850   1.376   3.287   6.263  0.0743 -0.1373 -0.0123
  160SAPE   O1217851   1.177   3.439   6.246 -0.5203 -0.5873  0.1984
  160SAPE   O1117852   1.153   3.205   6.326 -0.2886 -0.0988  0.2359
  160SAPE    C117853   1.073   3.260   6.426 -0.1539  0.4290  0.6150
  160SAPE    HA17854   1.019   3.351   6.391  0.1624  0.3335 -0.1167
  160SAPE    HB17855   1.000   3.181   6.454 -0.2857  0.1793 -0.4108
  160SAPE    C217856   1.155   3.287   6.552 -0.4216  0.4269 -0.2299
  160SAPE    HS17857   1.224   3.368   6.519  1.4011 -0.5064  1.1346
  160SAPE   O2117858   1.222   3.166   6.588  0.5716 -0.0326 -0.0944
  160SAPE   C2117859   1.344   3.185   6.629  0.2085  0.6661 -0.5062
  160SAPE   O2217860   1.392   3.294   6.660 -0.0177 -0.4170 -0.1071
  160SAPE   C2217861   1.425   3.055   6.624  0.1488  0.2083 -0.5424
  160SAPE   H2R17862   1.379   2.980   6.692  0.6978  0.1521 -0.2306
  160SAPE   H2S17863   1.423   3.013   6.521  1.1888 -1.8182  0.1987
  160SAPE    C317864   1.058   3.332   6.660  0.1139 -0.1806 -0.0505
  160SAPE    HX17865   0.989   3.248   6.682  0.9785 -0.9040 -0.0627
  160SAPE    HY17866   0.990   3.416   6.635 -0.9381 -1.1635 -0.5830
  160SAPE   O3117867   1.123   3.365   6.787 -0.2665  0.3051 -0.2272
  160SAPE   C3117868   1.191   3.479   6.779 -0.9892  0.9775  0.2089
  160SAPE   O3217869   1.174   3.554   6.686  0.2940 -0.7214 -0.0448
  160SAPE   C3217870   1.278   3.491   6.901  0.7827 -0.1448  0.2903
  160SAPE   H2X17871   1.374   3.441   6.876  0.3211 -1.3862  0.9004
  160SAPE   H2Y17872   1.240   3.435   6.989  1.4316 -1.3759 -0.1914
  160SAPE   C2317873   1.579   3.072   6.654 -0.0904  0.0708 -0.2428
  160SAPE   H3R17874   1.622   3.142   6.580 -0.3465  0.1790 -0.2891
  160SAPE   H3S17875   1.637   2.981   6.628 -2.1628 -1.6940  0.8777
  160SAPE   C2417876   1.611   3.111   6.798 -0.4034 -0.2282  0.2185
  160SAPE   H4R17877   1.575   3.208   6.839  0.2917 -0.1318  0.6069
  160SAPE   H4S17878   1.722   3.117   6.806 -0.2449  1.1534 -2.0763
  160SAPE   C2517879   1.559   2.994   6.877 -0.8190  0.2458  0.0041
  160SAPE   H5R17880   1.575   2.894   6.833  0.2042  1.4268 -2.5139
  160SAPE   C2617881   1.501   3.010   6.995 -0.0080  0.6306  0.3052
  160SAPE   H6R17882   1.470   2.925   7.057  0.9238  1.5044  2.0538
  160SAPE   C2717883   1.479   3.138   7.077 -0.1837 -0.1720  0.3957
  160SAPE   H7R17884   1.430   3.216   7.015  1.5422 -0.0784 -0.9035
  160SAPE   H7S17885   1.578   3.183   7.097 -1.1503  2.1552  0.3126
  160SAPE   C2817886   1.409   3.140   7.207  0.1768  0.3415  0.0680
  160SAPE   H8R17887   1.310   3.188   7.206 -0.4909 -0.9956 -1.1196
  160SAPE   C2917888   1.454   3.070   7.315  0.3131 -0.3350 -0.0515
  160SAPE   H9R17889   1.385   3.065   7.401 -2.4105  0.5336 -2.0485
  160SAPE  C21017890   1.585   3.006   7.322  0.4053 -0.4365 -0.0906
  160SAPE  H10R17891   1.655   3.023   7.237  2.3770 -3.1132  0.8503
  160SAPE  H10S17892   1.581   2.895   7.324  1.5925 -0.5210 -0.9261
  160SAPE  C21117893   1.654   3.052   7.450  0.2191 -0.4164  0.1352
  160SAPE  H11R17894   1.704   3.149   7.437 -1.6565  0.9663  2.6050
  160SAPE  C21217895   1.645   2.986   7.563 -0.2081 -0.0475 -0.6232
  160SAPE  H12R17896   1.695   3.022   7.654  1.1081 -0.9053 -0.9909
  160SAPE  C21317897   1.583   2.855   7.601 -0.3623  0.2017 -0.1198
  160SAPE  H13R17898   1.521   2.830   7.513  0.2556  0.2317 -0.5682
  160SAPE  H13S17899   1.520   2.856   7.693  0.9540 -2.4807  0.9178
  160SAPE  C21417900   1.691   2.746   7.615 -0.5389  0.0281  0.0826
  160SAPE  H14R17901   1.721   2.693   7.524  0.6862  1.0045 -0.1127
  160SAPE  C21517902   1.749   2.718   7.730 -0.3302 -0.2498 -0.2182
  160SAPE  H15R17903   1.816   2.631   7.722  2.3238  1.6477  0.0368
  160SAPE  C21617904   1.721   2.771   7.868 -1.0939 -0.1529  0.5961
  160SAPE  H16R17905   1.720   2.882   7.864  0.1396 -0.1493 -0.2092
  160SAPE  H16S17906   1.809   2.732   7.922 -0.4219 -2.5774 -1.9665
  160SAPE  C21717907   1.602   2.719   7.943 -0.3261  0.2841 -0.4576
  160SAPE  H17R17908   1.578   2.611   7.930 -1.9327  0.6933 -1.2490
  160SAPE  H17S17909   1.513   2.773   7.904 -0.5817  1.2268  1.3064
  160SAPE  C21817910   1.600   2.767   8.092 -0.5888  0.3434  0.8990
  160SAPE  H18R17911   1.617   2.876   8.083 -0.4012  0.2459 -0.0075
  160SAPE  H18S17912   1.687   2.724   8.146  1.5927  1.7667 -1.3080
  160SAPE  C21917913   1.465   2.758   8.160 -0.2970 -0.3956  0.4709
  160SAPE  H19R17914   1.384   2.737   8.087 -0.8886 -1.5515  1.4130
  160SAPE  H19S17915   1.442   2.855   8.207 -0.5120 -1.0488  1.7628
  160SAPE  C22017916   1.458   2.640   8.254  0.4613 -0.0088 -0.3043
  160SAPE  H20R17917   1.354   2.630   8.293  0.1568  0.9470 -0.8283
  160SAPE  H20S17918   1.526   2.646   8.341 -2.6284 -0.3467  2.3227
  160SAPE  H20T17919   1.482   2.541   8.210 -0.9781 -0.7167  0.4141
  160SAPE   C3317920   1.306   3.636   6.937 -0.1676 -0.2386 -0.2637
  160SAPE   H3X17921   1.214   3.697   6.953  1.1451  1.1872  2.6519
  160SAPE   H3Y17922   1.357   3.689   6.854  0.1616  0.0975  0.1463
  160SAPE   C3417923   1.389   3.642   7.066 -0.9300  0.7224 -0.1096
  160SAPE   H4X17924   1.321   3.616   7.150 -0.6143 -1.2419 -0.4135
  160SAPE   H4Y17925   1.422   3.743   7.097 -0.3704  0.4055  0.3533
  160SAPE   C3517926   1.518   3.552   7.081 -0.8453 -0.0974  0.1786
  160SAPE   H5X17927   1.579   3.579   6.991  0.6391  1.1627  1.4839
  160SAPE   H5Y17928   1.494   3.446   7.062  0.9879 -0.2654 -1.5999
  160SAPE   C3617929   1.596   3.566   7.209 -0.3174  0.5286 -0.2315
  160SAPE   H6X17930   1.628   3.672   7.214 -1.2179  0.7802  0.4977
  160SAPE   H6Y17931   1.697   3.520   7.203 -0.6994 -0.5139  0.8978
  160SAPE   C3717932   1.522   3.511   7.343  0.0530  0.0803  0.1683
  160SAPE   H7X17933   1.528   3.400   7.344  0.6533  0.0968 -0.5218
  160SAPE   H7Y17934   1.417   3.545   7.332 -0.4294 -1.8875 -2.3024
  160SAPE   C3817935   1.590   3.565   7.471 -0.3175 -0.2768  0.1718
  160SAPE   H8X17936   1.605   3.675   7.472  1.1125 -0.4367 -0.5767
  160SAPE   H8Y17937   1.687   3.510   7.480 -0.7961 -0.8050  2.9453
  160SAPE   C3917938   1.503   3.532   7.589 -0.0576  0.5177  0.1338
  160SAPE   H9X17939   1.477   3.424   7.601 -1.2461  1.0891  4.3400
  160SAPE   H9Y17940   1.403   3.579   7.583 -0.8403 -0.9466  0.9339
  160SAPE  C31017941   1.571   3.574   7.724  0.6953 -0.0443 -0.0813
  160SAPE  H10X17942   1.613   3.676   7.710  0.8994 -0.2277 -0.9035
  160SAPE  H10Y17943   1.653   3.500   7.732  1.3177  0.4891 -1.2294
  160SAPE  C31117944   1.465   3.574   7.839  0.4305 -0.3428  0.1447
  160SAPE  H11X17945   1.399   3.485   7.839  0.1617 -0.1681  1.1809
  160SAPE  H11Y17946   1.399   3.663   7.834  0.0947 -0.5265  1.0119
  160SAPE  C31217947   1.525   3.598   7.982 -0.4345  0.1357  0.8526
  160SAPE  H12X17948   1.551   3.706   7.988  2.1934 -0.4789  2.2503
  160SAPE  H12Y17949   1.619   3.538   7.984  1.1236  2.2763 -1.8283
  160SAPE  C31317950   1.438   3.559   8.107 -0.4462  0.4404 -0.5510
  160SAPE  H13X17951   1.417   3.450   8.102 -1.3839  0.4498  2.0545
  160SAPE  H13Y17952   1.337   3.605   8.103 -0.8688 -0.3092  0.8726
  160SAPE  C31417953   1.499   3.590   8.246 -0.3670 -1.0254 -0.4389
  160SAPE  H14X17954   1.605   3.556   8.252 -0.6893 -1.9240  0.1808
  160SAPE  H14Y17955   1.440   3.538   8.324  0.6568 -1.2085  0.2364
  160SAPE  C31517956   1.491   3.743   8.279 -0.3122 -0.0294  0.1539
  160SAPE  H15X17957   1.388   3.779   8.303  0.2391  2.6539 -1.1377
  160SAPE  H15Y17958   1.538   3.789   8.189 -2.2496 -0.3330 -1.0812
  160SAPE  C31617959   1.592   3.785   8.394 -0.3132  0.2983 -0.6943
  160SAPE  H16X17960   1.618   3.893   8.392 -0.4062  0.3118 -1.2974
  160SAPE  H16Y17961   1.688   3.732   8.381 -0.1903 -0.3650  2.1045
  160SAPE  C31717962   1.545   3.755   8.531  0.2106 -0.6833 -0.1409
  160SAPE  H17X17963   1.529   3.645   8.525 -3.9029 -0.3172  1.1056
  160SAPE  H17Y17964   1.443   3.796   8.549  0.6274  0.6998 -0.8054
  160SAPE  C31817965   1.628   3.806   8.648  0.0111  0.4867  0.6228
  160SAPE  H18X17966   1.733   3.773   8.635 -0.1357  0.5664 -0.9480
  160SAPE  H18Y17967   1.578   3.755   8.733  0.2436 -1.2144 -0.2290
  160SAPE  H18Z17968   1.629   3.917   8.648  1.1798  0.4924  0.3395
  161SOPE     N17969   2.669   0.530  10.561  0.1419 -0.6655  0.2523
  161SOPE   HN117970   2.639   0.629  10.551  2.0079 -0.0806  0.1350
  161SOPE   HN217971   2.752   0.521  10.499 -0.5681  1.4127 -1.1336
  161SOPE   HN317972   2.583   0.478  10.534 -0.1752 -0.9259  1.7089
  161SOPE   C1217973   2.695   0.502  10.703  0.6441  0.7333  0.3432
  161SOPE  H12A17974   2.776   0.564  10.748  1.9508 -1.2832  0.9425
  161SOPE  H12B17975   2.739   0.400  10.703 -0.1356  0.3907  0.2680
  161SOPE   C1117976   2.563   0.486  10.783 -0.3514  0.1917 -0.4310
  161SOPE  H11A17977   2.510   0.584  10.786  0.4314  0.6099  2.0380
  161SOPE  H11B17978   2.599   0.466  10.886  0.9672  3.0352 -0.2160
  161SOPE     P17979   2.343   0.358  10.759  0.3033  0.4923 -0.1712
  161SOPE   O1317980   2.292   0.464  10.847 -0.5331  0.0591 -0.2801
  161SOPE   O1417981   2.332   0.220  10.809  0.3169  0.4188 -0.5606
  161SOPE   O1217982   2.492   0.376  10.725 -0.0385  0.1011  0.0662
  161SOPE   O1117983   2.275   0.365  10.619 -0.1379  0.0505 -0.3780
  161SOPE    C117984   2.148   0.427  10.593 -0.0917  0.3730 -0.0738
  161SOPE    HA17985   2.095   0.465  10.683  0.7671 -0.5007  0.8225
  161SOPE    HB17986   2.089   0.349  10.540 -2.9940  0.8789  2.1977
  161SOPE    C217987   2.148   0.548  10.499 -0.1357  0.1256 -0.4053
  161SOPE    HS17988   2.048   0.595  10.493 -0.0456  0.1553 -2.2746
  161SOPE   O2117989   2.191   0.503  10.371  0.4661  0.2803 -0.0098
  161SOPE   C2117990   2.102   0.504  10.274 -0.5983 -0.8221 -0.1993
  161SOPE   O2217991   1.989   0.551  10.277  0.0994 -0.1064 -0.6036
  161SOPE   C2217992   2.177   0.461  10.153 -0.0268 -1.0450 -0.1306
  161SOPE   H2R17993   2.250   0.387  10.191  0.0215  0.7299  3.6264
  161SOPE   H2S17994   2.227   0.549  10.106 -1.1202 -0.9157 -1.0915
  161SOPE    C317995   2.248   0.659  10.550  0.4854 -0.0707  0.3182
  161SOPE    HX17996   2.331   0.590  10.578  0.5670 -0.4787 -0.8692
  161SOPE    HY17997   2.203   0.708  10.639  2.5832  2.8930 -0.0979
  161SOPE   O3117998   2.281   0.761  10.450 -0.1843  0.4176  0.9275
  161SOPE   C3117999   2.409   0.796  10.442  0.8605  0.5248 -0.1446
  161SOPE   O3218000   2.492   0.751  10.521 -0.5108  0.5525  0.8587
  161SOPE   C3218001   2.432   0.890  10.323 -0.2930 -0.1299 -0.2843
  161SOPE   H2X18002   2.487   0.978  10.364  1.1783 -1.8221  1.5796
  161SOPE   H2Y18003   2.339   0.940  10.290  0.7654  1.2903 -1.2326
  161SOPE   C2318004   2.105   0.397  10.033 -0.1777  0.1760  0.1109
  161SOPE   H3R18005   1.999   0.429  10.022 -0.8995 -2.5166 -1.8556
  161SOPE   H3S18006   2.101   0.286  10.044  0.6405  0.1086 -0.1944
  161SOPE   C2418007   2.189   0.410   9.901 -0.6429 -0.8347  0.7656
  161SOPE   H4R18008   2.189   0.518   9.872  1.0990 -1.1969 -0.7892
  161SOPE   H4S18009   2.297   0.391   9.918 -0.8157 -1.4386  1.2218
  161SOPE   C2518010   2.139   0.330   9.786 -0.3801 -0.2143  0.3783
  161SOPE   H5R18011   2.162   0.224   9.810  1.7662  0.4659  1.5746
  161SOPE   H5S18012   2.030   0.340   9.768 -0.9508 -2.3606  2.2531
  161SOPE   C2618013   2.194   0.386   9.648  0.3325 -0.2153  0.5208
  161SOPE   H6R18014   2.181   0.496   9.649 -0.5479 -0.3104  1.9183
  161SOPE   H6S18015   2.304   0.368   9.651  0.6881  1.5910 -0.4289
  161SOPE   C2718016   2.118   0.334   9.527 -0.6769  0.5921 -0.0341
  161SOPE   H7R18017   2.153   0.229   9.520 -3.4139 -0.4423  0.4404
  161SOPE   H7S18018   2.015   0.338   9.568  0.6517 -2.3689  4.2824
  161SOPE   C2818019   2.143   0.414   9.398  0.0199  0.4587  0.1285
  161SOPE   H8R18020   2.089   0.511   9.404  1.9593  1.6951 -1.1362
  161SOPE   H8S18021   2.251   0.440   9.397  0.3415 -0.7372  1.1621
  161SOPE   C2918022   2.095   0.324   9.284  0.3444 -1.0416  0.8781
  161SOPE   H9118023   2.114   0.216   9.292 -1.7085 -1.6546 -1.2354
  161SOPE  C21018024   2.030   0.371   9.176 -0.2122  0.0210  0.3426
  161SOPE  H10118025   2.013   0.300   9.094  0.6677 -0.5325  0.6255
  161SOPE  C21118026   1.992   0.515   9.141 -0.3044  0.0238  0.7361
  161SOPE  H11R18027   2.058   0.581   9.201  0.2471 -0.1255  0.2980
  161SOPE  H11S18028   1.885   0.533   9.167 -0.3087 -1.7562  2.1696
  161SOPE  C21218029   2.007   0.544   8.986 -0.4076  0.8103  0.2762
  161SOPE  H12R18030   1.928   0.484   8.936 -0.3041 -0.0563  1.1251
  161SOPE  H12S18031   2.108   0.510   8.953 -0.1024  1.7405  0.1895
  161SOPE  C21318032   1.979   0.682   8.943 -0.0945 -0.1279  0.9420
  161SOPE  H13R18033   2.072   0.742   8.942  0.6949 -1.3183  0.0623
  161SOPE  H13S18034   1.908   0.723   9.018  0.9376 -0.4855  2.1458
  161SOPE  C21418035   1.915   0.681   8.800  0.1323  0.4364  0.5727
  161SOPE  H14R18036   1.862   0.779   8.791  0.9214  1.3593  4.3080
  161SOPE  H14S18037   1.860   0.585   8.792  1.2449 -0.1549 -0.1755
  161SOPE  C21518038   2.017   0.663   8.683 -0.5000 -0.3654 -0.0041
  161SOPE  H15R18039   2.073   0.569   8.701 -0.6526 -0.5423 -0.4544
  161SOPE  H15S18040   2.096   0.742   8.688 -0.0068 -0.9005  0.9283
  161SOPE  C21618041   1.955   0.649   8.541  0.4024  0.5281 -0.4323
  161SOPE  H16R18042   1.883   0.565   8.558  0.6087  0.7715  1.8974
  161SOPE  H16S18043   2.032   0.631   8.463  1.5879  3.2334  0.0121
  161SOPE  C21718044   1.865   0.760   8.494 -0.0300 -0.3802 -0.8382
  161SOPE  H17R18045   1.907   0.863   8.497  0.1413 -0.4649  0.7469
  161SOPE  H17S18046   1.779   0.762   8.565 -0.3846  3.5082 -1.1500
  161SOPE  C21818047   1.819   0.746   8.348 -0.7068 -0.8012 -0.1271
  161SOPE  H18R18048   1.788   0.843   8.305  0.8707 -0.1397  0.1910
  161SOPE  H18S18049   1.735   0.676   8.325 -1.9289  0.9467 -1.1970
  161SOPE  H18T18050   1.902   0.726   8.277  0.7851  0.9368  1.0349
  161SOPE   C3318051   2.536   0.825  10.222 -0.0239 -0.3712  0.2412
  161SOPE   H3X18052   2.631   0.810  10.278  0.2213  0.4319  0.0513
  161SOPE   H3Y18053   2.559   0.895  10.140  2.0829 -2.0519 -0.7099
  161SOPE   C3418054   2.484   0.690  10.170 -0.7587  0.0527 -0.3148
  161SOPE   H4X18055   2.376   0.698  10.145 -0.5683  0.6628 -0.9949
  161SOPE   H4Y18056   2.486   0.610  10.247  1.5844  0.3298 -0.0116
  161SOPE   C3518057   2.570   0.655  10.049 -0.1726 -0.0507  0.1014
  161SOPE   H5X18058   2.669   0.626  10.090 -0.9681 -1.3030  1.1973
  161SOPE   H5Y18059   2.569   0.744   9.982 -1.0475 -2.8459 -3.9958
  161SOPE   C3618060   2.519   0.526   9.979  0.0126 -0.0867  0.4797
  161SOPE   H6X18061   2.419   0.556   9.940  0.8016  2.3519  0.1234
  161SOPE   H6Y18062   2.516   0.439  10.049  2.5461 -0.0578  0.7314
  161SOPE   C3718063   2.602   0.500   9.852 -0.3928  0.1341 -0.0344
  161SOPE   H7X18064   2.553   0.413   9.802  3.3354 -0.4566 -3.1780
  161SOPE   H7Y18065   2.707   0.471   9.877 -0.0513  2.3188  1.2853
  161SOPE   C3818066   2.589   0.610   9.746 -1.0854 -0.5281  0.0737
  161SOPE   H8X18067   2.642   0.704   9.768 -1.8540 -0.3246  1.1262
  161SOPE   H8Y18068   2.481   0.630   9.730 -1.3396 -2.3502 -0.8453
  161SOPE   C3918069   2.653   0.565   9.609  0.0907 -0.2353 -0.3027
  161SOPE   H9X18070   2.599   0.473   9.578  0.5357 -0.4174 -0.5579
  161SOPE   H9Y18071   2.762   0.545   9.617 -0.1436 -0.9162  1.7283
  161SOPE  C31018072   2.626   0.660   9.489  0.1302  0.1157  0.0262
  161SOPE  H10X18073   2.686   0.753   9.499  1.1847 -0.6063  0.5566
  161SOPE  H10Y18074   2.518   0.687   9.499  0.1578 -0.0378  0.8242
  161SOPE  C31118075   2.646   0.592   9.356 -0.6306  0.1665 -0.1825
  161SOPE  H11X18076   2.600   0.491   9.358  1.5561 -0.8904 -0.7714
  161SOPE  H11Y18077   2.752   0.562   9.358 -1.2068 -2.1925 -1.2512
  161SOPE  C31218078   2.607   0.679   9.235  0.2789  0.1684 -0.2436
  161SOPE  H12X18079   2.667   0.772   9.234 -2.2041  1.8481 -1.0257
  161SOPE  H12Y18080   2.503   0.709   9.259  0.0535  1.3005 -2.3881
  161SOPE  C31318081   2.602   0.596   9.100  0.3023 -0.6150  0.2613
  161SOPE  H13X18082   2.515   0.528   9.089  0.3011 -1.1012  2.6263
  161SOPE  H13Y18083   2.689   0.528   9.110  3.0391  2.5995 -0.2174
  161SOPE  C31418084   2.619   0.686   8.970  1.0838 -0.0375 -0.4686
  161SOPE  H14X18085   2.719   0.733   8.973  0.8435  0.4032  1.1607
  161SOPE  H14Y18086   2.547   0.771   8.972  1.6436  0.4369 -0.2153
  161SOPE  C31518087   2.611   0.604   8.836  0.3787  0.6795  0.1719
  161SOPE  H15X18088   2.671   0.511   8.833  0.5217  0.6849  1.8085
  161SOPE  H15Y18089   2.655   0.661   8.752  0.7286 -1.3711 -1.0893
  161SOPE  C31618090   2.462   0.570   8.810 -0.1813 -0.3360 -0.0524
  161SOPE  H16X18091   2.414   0.670   8.821 -1.2169 -0.5497 -2.1266
  161SOPE  H16Y18092   2.427   0.504   8.892  1.7288  0.6286  1.6250
  161SOPE  C31718093   2.432   0.505   8.678 -0.4526 -0.1073  0.3938
  161SOPE  H17X18094   2.327   0.468   8.683 -1.2731  1.7820 -1.2132
  161SOPE  H17Y18095   2.499   0.417   8.669  1.1034  0.9684  1.0196
  161SOPE  C31818096   2.456   0.598   8.559 -0.0558 -0.0801  0.9809
  161SOPE  H18X18097   2.543   0.665   8.574  1.3393 -1.2582 -1.2121
  161SOPE  H18Y18098   2.370   0.666   8.542 -0.7708 -0.8456  1.4655
  161SOPE  H18Z18099   2.465   0.540   8.464 -0.5820  0.7683  0.4057
  162SOPE     N18100   6.345   6.801  10.383 -0.1147 -0.0563 -0.8612
  162SOPE   HN118101   6.391   6.787  10.291  1.1623 -1.8962 -0.0173
  162SOPE   HN218102   6.314   6.708  10.418 -0.4253  0.0275 -0.9149
  162SOPE   HN318103   6.267   6.864  10.357 -2.0991 -1.6737  0.8123
  162SOPE   C1218104   6.434   6.866  10.483  0.2276 -0.4460  0.0700
  162SOPE  H12A18105   6.437   6.975  10.461 -0.3192 -0.4314  0.0712
  162SOPE  H12B18106   6.537   6.825  10.490  0.2506 -0.8711 -2.1151
  162SOPE   C1118107   6.373   6.847  10.623  0.8857 -0.6317  0.0139
  162SOPE  H11A18108   6.408   6.934  10.682  0.8150  0.9945 -2.2260
  162SOPE  H11B18109   6.417   6.752  10.662 -0.1312 -0.5861  1.3404
  162SOPE     P18110   6.131   6.954  10.655 -0.5794 -0.0424  0.4039
  162SOPE   O1318111   6.179   7.050  10.752 -0.1926  1.1163 -0.2881
  162SOPE   O1418112   5.993   6.903  10.661 -0.1671 -0.2342  0.0407
  162SOPE   O1218113   6.233   6.827  10.639  0.8857 -0.3082 -0.0810
  162SOPE   O1118114   6.160   7.020  10.514  0.2395  0.5898 -0.8355
  162SOPE    C118115   6.116   7.153  10.487 -0.5203  0.0498 -0.8031
  162SOPE    HA18116   6.209   7.215  10.484  1.7508 -3.0920 -0.3892
  162SOPE    HB18117   6.055   7.199  10.568 -1.5100  1.0320 -2.0578
  162SOPE    C218118   6.035   7.147  10.354 -0.8260 -0.3220  0.6618
  162SOPE    HS18119   5.990   7.046  10.345 -1.1697 -0.0870 -0.3710
  162SOPE   O2118120   6.126   7.175  10.245  0.4014  0.1701 -0.3605
  162SOPE   C2118121   6.190   7.074  10.194  1.2307  0.7735 -0.0992
  162SOPE   O2218122   6.199   6.964  10.245 -0.3747  0.9388  0.2574
  162SOPE   C2218123   6.279   7.126  10.079 -0.0628  0.2543 -0.8453
  162SOPE   H2R18124   6.384   7.122  10.115  0.2398  1.9738 -1.4880
  162SOPE   H2S18125   6.247   7.229  10.056 -3.7111 -0.9487 -1.7903
  162SOPE    C318126   5.924   7.254  10.359 -0.1445 -0.1708  0.2231
  162SOPE    HX18127   5.962   7.356  10.382  1.6684 -0.7503 -0.0063
  162SOPE    HY18128   5.856   7.220  10.439 -0.3275 -0.9592 -0.2598
  162SOPE   O3118129   5.849   7.253  10.239 -0.1031  0.6032 -0.4760
  162SOPE   C3118130   5.893   7.327  10.143  0.0591 -0.4154  0.3799
  162SOPE   O3218131   5.987   7.409  10.155  0.2101  0.7463 -0.7682
  162SOPE   C3218132   5.810   7.304  10.024 -0.0497  1.2883 -0.2597
  162SOPE   H2X18133   5.706   7.336  10.048  0.5233  2.7887  0.3932
  162SOPE   H2Y18134   5.802   7.195  10.004  1.6193  1.2534 -0.9495
  162SOPE   C2318135   6.275   7.045   9.950 -0.1293 -0.6909 -0.5991
  162SOPE   H3R18136   6.261   6.936   9.966  1.2452 -1.0027 -1.3573
  162SOPE   H3S18137   6.375   7.059   9.904  0.6671 -1.1049  0.9395
  162SOPE   C2418138   6.157   7.095   9.868 -0.1902 -0.1296  1.2387
  162SOPE   H4R18139   6.057   7.061   9.902 -0.5137 -1.7002 -1.0609
  162SOPE   H4S18140   6.143   7.205   9.865 -0.6711 -0.1434 -3.3654
  162SOPE   C2518141   6.157   7.045   9.719 -0.5147  0.8382 -0.3400
  162SOPE   H5R18142   6.258   7.075   9.683  1.1223 -0.6694  2.6026
  162SOPE   H5S18143   6.159   6.934   9.716 -0.7814  0.8409 -2.5896
  162SOPE   C2618144   6.041   7.086   9.628 -0.2242  0.0898  0.1143
  162SOPE   H6R18145   5.959   7.085   9.703  0.8947  1.5091  1.4221
  162SOPE   H6S18146   6.066   7.188   9.591  0.3465 -0.7999 -2.1000
  162SOPE   C2718147   6.001   6.986   9.514 -0.2815 -0.0778 -0.0479
  162SOPE   H7R18148   5.988   6.884   9.556 -2.3597  0.3468  0.4463
  162SOPE   H7S18149   5.905   7.021   9.469 -0.7014 -0.0220  0.8674
  162SOPE   C2818150   6.108   6.996   9.401  0.3573 -0.3621 -0.0780
  162SOPE   H8R18151   6.209   7.000   9.446 -0.7007 -0.7406  2.5415
  162SOPE   H8S18152   6.104   6.903   9.340 -0.5455  0.0945 -0.7362
  162SOPE   C2918153   6.082   7.120   9.315 -0.1765 -0.1062  1.2607
  162SOPE   H9118154   6.134   7.209   9.354  1.2268  0.3362 -1.4195
  162SOPE  C21018155   6.020   7.139   9.196 -0.3526 -0.3965  0.3232
  162SOPE  H10118156   6.014   7.244   9.163 -1.8320 -0.5565  0.0533
  162SOPE  C21118157   5.948   7.026   9.126 -0.1579  0.2512 -0.7719
  162SOPE  H11R18158   5.881   7.066   9.046  0.1750  0.1613 -1.1022
  162SOPE  H11S18159   5.874   6.975   9.191 -0.4844  0.0804 -1.2720
  162SOPE  C21218160   6.031   6.922   9.057 -0.1752 -0.4796 -0.1112
  162SOPE  H12R18161   6.081   6.853   9.128  0.9801 -0.4925 -0.9176
  162SOPE  H12S18162   6.118   6.961   9.000 -0.3471 -0.2633 -0.2259
  162SOPE  C21318163   5.950   6.846   8.951 -0.2054 -0.2257 -0.4189
  162SOPE  H13R18164   5.881   6.910   8.891 -0.4897 -1.1469 -1.0887
  162SOPE  H13S18165   5.888   6.776   9.010  0.5741  1.0071  2.0093
  162SOPE  C21418166   6.027   6.761   8.854 -0.2415 -0.2927  0.4188
  162SOPE  H14R18167   6.067   6.670   8.903 -0.0486  0.1274  1.0582
  162SOPE  H14S18168   6.129   6.799   8.834 -0.0308 -1.3718 -0.6633
  162SOPE  C21518169   5.954   6.716   8.731  0.0790 -0.7305  0.2498
  162SOPE  H15R18170   5.923   6.802   8.669 -0.1991 -2.6088 -2.4111
  162SOPE  H15S18171   5.858   6.667   8.760 -0.8459  1.0696  0.3374
  162SOPE  C21618172   6.048   6.629   8.638 -0.0778  0.8963 -0.2297
  162SOPE  H16R18173   5.989   6.580   8.558  0.0781  0.6443 -0.1913
  162SOPE  H16S18174   6.089   6.546   8.699  1.2417 -0.5272 -2.8782
  162SOPE  C21718175   6.153   6.716   8.563  0.1505  0.1051 -0.5879
  162SOPE  H17R18176   6.216   6.777   8.632  2.6135 -1.8599 -0.9431
  162SOPE  H17S18177   6.107   6.796   8.501 -0.9370 -0.0657 -0.0300
  162SOPE  C21818178   6.254   6.646   8.473 -0.5005 -0.2775 -1.2564
  162SOPE  H18R18179   6.301   6.727   8.414 -3.1890  1.9271 -0.5984
  162SOPE  H18S18180   6.191   6.586   8.403 -3.7023  0.7601  0.4918
  162SOPE  H18T18181   6.326   6.589   8.535  0.5500  1.7845 -0.5200
  162SOPE   C3318182   5.865   7.369   9.896 -0.0981  0.5865  0.2288
  162SOPE   H3X18183   5.954   7.313   9.858  0.2859  1.1926  0.2131
  162SOPE   H3Y18184   5.892   7.476   9.905 -1.3656  1.2231 -2.4546
  162SOPE   C3418185   5.767   7.367   9.777  0.1380 -0.2649 -1.0290
  162SOPE   H4X18186   5.692   7.447   9.795  0.7051 -0.0498  0.5939
  162SOPE   H4Y18187   5.711   7.271   9.768  0.2590 -0.3948 -0.4602
  162SOPE   C3518188   5.844   7.388   9.645  0.2369 -0.0468  0.2824
  162SOPE   H5X18189   5.939   7.331   9.643  0.0350 -0.5556  2.2759
  162SOPE   H5Y18190   5.857   7.498   9.657 -1.4076  0.1319  0.6894
  162SOPE   C3618191   5.772   7.359   9.517  0.4436  0.0065 -0.3671
  162SOPE   H6X18192   5.665   7.388   9.526  0.3380 -0.6312  0.6023
  162SOPE   H6Y18193   5.797   7.256   9.484 -1.4968 -0.1031 -1.6577
  162SOPE   C3718194   5.818   7.446   9.406 -0.5057  0.4469  0.2052
  162SOPE   H7X18195   5.928   7.432   9.395 -0.6847  0.2109 -1.5361
  162SOPE   H7Y18196   5.809   7.550   9.445  0.8014  0.3889  0.7333
  162SOPE   C3818197   5.748   7.424   9.274  0.7913  0.1017 -0.6466
  162SOPE   H8X18198   5.637   7.416   9.280  0.9175 -1.9710 -0.3283
  162SOPE   H8Y18199   5.781   7.321   9.248  2.4908  0.7098 -1.0019
  162SOPE   C3918200   5.783   7.522   9.163 -0.4321  0.4490 -0.3234
  162SOPE   H9X18201   5.894   7.524   9.161 -0.3990  1.6612  0.8706
  162SOPE   H9Y18202   5.736   7.621   9.182 -0.8162  0.3882 -0.9327
  162SOPE  C31018203   5.723   7.482   9.029  0.0836  0.1577  0.2561
  162SOPE  H10X18204   5.616   7.463   9.051  0.1827  0.0066  0.6238
  162SOPE  H10Y18205   5.772   7.388   8.995  0.8007  0.3098  0.8379
  162SOPE  C31118206   5.721   7.588   8.916 -0.2438 -0.0802  0.2528
  162SOPE  H11X18207   5.826   7.625   8.909 -0.9856  2.2826  0.5490
  162SOPE  H11Y18208   5.658   7.678   8.935 -0.7293 -0.2874 -0.3396
  162SOPE  C31218209   5.667   7.524   8.784 -0.4923 -0.5386  0.5410
  162SOPE  H12X18210   5.557   7.510   8.786 -0.6065 -0.2659 -1.4948
  162SOPE  H12Y18211   5.714   7.424   8.773  0.9030  0.3116 -2.1779
  162SOPE  C31318212   5.687   7.590   8.647  0.4347  0.5220 -0.2915
  162SOPE  H13X18213   5.795   7.614   8.637  0.6786  1.2420  2.9374
  162SOPE  H13Y18214   5.632   7.685   8.636 -1.2309 -0.0597  2.2014
  162SOPE  C31418215   5.655   7.500   8.526 -0.0399  0.6408 -0.3086
  162SOPE  H14X18216   5.643   7.397   8.565  1.5729  0.6199  0.2158
  162SOPE  H14Y18217   5.744   7.495   8.459  0.7456  1.3357  0.6456
  162SOPE  C31518218   5.527   7.541   8.449 -0.3834 -0.2271 -0.5926
  162SOPE  H15X18219   5.546   7.641   8.405  0.0915 -0.0371  0.0248
  162SOPE  H15Y18220   5.452   7.546   8.530  0.1409 -0.2438 -0.0989
  162SOPE  C31618221   5.487   7.437   8.344 -0.0573  0.1123  0.5324
  162SOPE  H16X18222   5.440   7.502   8.267  1.0365  1.7023  1.1570
  162SOPE  H16Y18223   5.425   7.356   8.390 -0.4905 -0.7423 -1.4396
  162SOPE  C31718224   5.597   7.359   8.262 -0.5723  0.0187 -0.4619
  162SOPE  H17X18225   5.669   7.308   8.329 -1.5157 -1.0209 -0.2053
  162SOPE  H17Y18226   5.661   7.428   8.204  1.0601  0.1388  1.3973
  162SOPE  C31818227   5.532   7.257   8.166 -0.2721  0.7138 -0.2418
  162SOPE  H18X18228   5.598   7.171   8.142 -1.4288 -0.9784  2.2045
  162SOPE  H18Y18229   5.510   7.309   8.070 -1.0201 -0.3554 -0.6723
  162SOPE  H18Z18230   5.445   7.214   8.220 -0.9985  1.0561 -1.1028
  163SOPE     N18231   0.873   1.141  10.623 -0.1609  0.1215 -0.1396
  163SOPE   HN118232   0.897   1.242  10.625  2.6680 -0.4549 -0.1549
  163SOPE   HN218233   0.953   1.098  10.674 -0.3629  0.7577  0.7354
  163SOPE   HN318234   0.880   1.121  10.521 -1.1159 -2.3570  0.2064
  163SOPE   C1218235   0.733   1.099  10.676 -0.4883 -0.5129 -0.5674
  163SOPE  H12A18236   0.651   1.150  10.620  0.3427  1.1548 -0.3354
  163SOPE  H12B18237   0.740   1.138  10.780 -0.2399  0.8501 -1.0701
  163SOPE   C1118238   0.703   0.947  10.675  0.1248 -0.1199 -0.0400
  163SOPE  H11A18239   0.703   0.916  10.568 -1.0542  0.5728 -0.2581
  163SOPE  H11B18240   0.604   0.922  10.719  1.5124 -1.6157  2.4798
  163SOPE     P18241   0.794   0.725  10.786 -0.1466 -0.1260  0.0124
  163SOPE   O1318242   0.661   0.686  10.838  0.8252  0.8428  0.0382
  163SOPE   O1418243   0.913   0.689  10.861 -0.0142 -0.3338  0.2441
  163SOPE   O1218244   0.803   0.879  10.756 -0.1298 -0.2351  0.1391
  163SOPE   O1118245   0.804   0.669  10.636 -0.0301  0.5341  0.1819
  163SOPE    C118246   0.930   0.683  10.563  0.4799 -0.0839 -0.3832
  163SOPE    HA18247   0.990   0.592  10.588 -1.8885 -1.7762 -0.5113
  163SOPE    HB18248   0.980   0.780  10.585 -0.3396  0.1186  0.6853
  163SOPE    C218249   0.904   0.677  10.408 -0.1857  0.0370 -0.7967
  163SOPE    HS18250   0.813   0.735  10.381  1.6304  1.9560 -3.1937
  163SOPE   O2118251   0.877   0.534  10.392 -0.2265 -0.1484 -0.6398
  163SOPE   C2118252   0.805   0.499  10.284  0.2525 -0.0052  0.0200
  163SOPE   O2218253   0.760   0.576  10.199 -0.6632  0.6365  0.0127
  163SOPE   C2218254   0.783   0.341  10.290 -0.6621  0.2607 -0.0672
  163SOPE   H2R18255   0.687   0.313  10.240 -0.3699  1.0338 -1.0884
  163SOPE   H2S18256   0.767   0.317  10.397  0.7777 -1.0438 -0.1138
  163SOPE    C318257   1.033   0.708  10.337  0.2003 -0.2010 -0.1983
  163SOPE    HX18258   1.104   0.635  10.382 -0.2847  0.8147  2.4042
  163SOPE    HY18259   1.069   0.811  10.357 -1.3744  0.5520 -1.0303
  163SOPE   O3118260   1.033   0.684  10.194 -0.1447 -0.5217 -0.5305
  163SOPE   C3118261   0.978   0.776  10.128 -0.5230 -0.6291  0.1252
  163SOPE   O3218262   0.947   0.886  10.173  0.8321  0.2173 -0.1292
  163SOPE   C3218263   0.955   0.726   9.988  0.1329 -1.2749 -0.2612
  163SOPE   H2X18264   0.846   0.718   9.970 -0.1965  0.4574  0.7442
  163SOPE   H2Y18265   1.004   0.627   9.978  1.3294 -0.6260 -1.2346
  163SOPE   C2318266   0.900   0.263  10.237  0.6182 -0.2521  0.8722
  163SOPE   H3R18267   0.899   0.155  10.263  2.8247 -0.4252  0.4263
  163SOPE   H3S18268   0.994   0.295  10.287 -0.1580  0.2553  2.0603
  163SOPE   C2418269   0.916   0.278  10.081 -0.5117  0.2429 -0.0273
  163SOPE   H4R18270   0.813   0.277  10.039 -0.8402 -1.8890  0.7081
  163SOPE   H4S18271   0.958   0.379  10.061  0.4651  0.0474  0.9742
  163SOPE   C2518272   0.998   0.165  10.018  0.0774 -0.1171  0.1097
  163SOPE   H5R18273   1.108   0.173  10.036  0.6079 -0.6137 -2.4010
  163SOPE   H5S18274   0.956   0.069  10.053 -1.3698 -1.0637 -3.7373
  163SOPE   C2618275   0.981   0.172   9.860  0.8323  0.9632  0.1225
  163SOPE   H6R18276   0.874   0.162   9.833  0.7487 -1.1250  1.0989
  163SOPE   H6S18277   1.017   0.270   9.820 -2.6591  2.8496  1.2075
  163SOPE   C2718278   1.048   0.061   9.776  0.0791 -0.4454  0.5700
  163SOPE   H7R18279   1.159   0.066   9.788  0.1465  3.2295 -0.2887
  163SOPE   H7S18280   1.016  -0.041   9.805 -0.5452 -0.2487  0.5746
  163SOPE   C2818281   1.029   0.088   9.623  0.2457  0.8931 -0.2106
  163SOPE   H8R18282   1.066   0.187   9.591  0.3342  0.3743 -1.7713
  163SOPE   H8S18283   1.107   0.021   9.581 -1.6052 -1.2445 -0.4329
  163SOPE   C2918284   0.890   0.064   9.577  0.5253 -0.1763  0.3561
  163SOPE   H9118285   0.814   0.125   9.627  0.7923 -1.4829  2.4416
  163SOPE  C21018286   0.844  -0.038   9.505 -0.1520 -0.0862 -0.2894
  163SOPE  H10118287   0.739  -0.038   9.473 -0.2646  1.8615 -0.0851
  163SOPE  C21118288   0.922  -0.159   9.453  0.3978  0.5832  0.1923
  163SOPE  H11R18289   0.927  -0.241   9.527 -0.6311  0.6351  0.3252
  163SOPE  H11S18290   1.026  -0.123   9.437  1.2902 -1.9641 -0.2073
  163SOPE  C21218291   0.874  -0.207   9.317 -0.1269 -0.1082  0.2575
  163SOPE  H12R18292   0.887  -0.121   9.247 -1.4260 -1.6297 -1.9392
  163SOPE  H12S18293   0.766  -0.231   9.326 -0.5196  1.4051 -0.1356
  163SOPE  C21318294   0.944  -0.340   9.273 -0.2306  0.7013  0.9140
  163SOPE  H13R18295   0.910  -0.426   9.335  1.3689  0.6229  1.7160
  163SOPE  H13S18296   1.051  -0.331   9.300  0.1695 -1.3320  0.1529
  163SOPE  C21418297   0.929  -0.371   9.121  0.5952  0.3845 -0.3244
  163SOPE  H14R18298   0.957  -0.478   9.110  0.4939  0.1592  1.2619
  163SOPE  H14S18299   1.011  -0.317   9.068  1.1188  0.7660  0.8213
  163SOPE  C21518300   0.796  -0.355   9.055  0.2788  1.0638 -0.6128
  163SOPE  H15R18301   0.746  -0.273   9.111  2.8966  0.6155  2.6508
  163SOPE  H15S18302   0.728  -0.442   9.057  1.4193  0.1584 -0.4788
  163SOPE  C21618303   0.815  -0.310   8.908  0.2099  0.2521  0.4722
  163SOPE  H16R18304   0.733  -0.357   8.849  1.4186 -0.3080 -0.8144
  163SOPE  H16S18305   0.907  -0.357   8.866  0.9982  1.8925  0.2983
  163SOPE  C21718306   0.831  -0.162   8.887  0.5142 -0.8853  0.7107
  163SOPE  H17R18307   0.840  -0.101   8.979 -0.8124  0.6876 -0.1402
  163SOPE  H17S18308   0.755  -0.119   8.818  0.9169 -2.7828 -0.9890
  163SOPE  C21818309   0.967  -0.130   8.802  0.2585 -0.4352 -0.2544
  163SOPE  H18R18310   0.989  -0.021   8.797 -0.3497 -0.1865  1.6535
  163SOPE  H18S18311   0.969  -0.181   8.704 -1.7251 -1.1282  0.0208
  163SOPE  H18T18312   1.046  -0.176   8.866  1.5995 -0.9933 -2.2208
  163SOPE   C3318313   1.024   0.824   9.897  0.5899 -0.1381  1.2085
  163SOPE   H3X18314   1.126   0.849   9.934  0.1622 -1.8106  3.7049
  163SOPE   H3Y18315   0.966   0.919   9.887  1.3188  0.0919 -2.9949
  163SOPE   C3418316   1.037   0.766   9.750  0.1199  0.6195  0.7537
  163SOPE   H4X18317   1.027   0.861   9.693 -1.3743  0.1511  0.1815
  163SOPE   H4Y18318   0.954   0.694   9.731  1.3020 -0.1868 -1.6057
  163SOPE   C3518319   1.173   0.693   9.723 -0.3620  0.2900 -0.3924
  163SOPE   H5X18320   1.166   0.611   9.798  1.5669 -0.1498 -0.6568
  163SOPE   H5Y18321   1.263   0.749   9.756  0.6779 -1.7356  0.3563
  163SOPE   C3618322   1.190   0.642   9.575  0.4923 -0.2487 -0.2845
  163SOPE   H6X18323   1.293   0.601   9.572  0.3529 -0.6465  0.1271
  163SOPE   H6Y18324   1.171   0.730   9.510 -0.4941 -0.5759 -0.4638
  163SOPE   C3718325   1.103   0.529   9.524  0.6346  0.1065 -0.0317
  163SOPE   H7X18326   1.001   0.574   9.513  0.7386  0.2861 -0.2676
  163SOPE   H7Y18327   1.092   0.442   9.592 -2.0985  2.8859  3.4579
  163SOPE   C3818328   1.155   0.484   9.385  0.6545  0.1348 -0.1585
  163SOPE   H8X18329   1.262   0.507   9.368  0.1765  1.1438 -2.1977
  163SOPE   H8Y18330   1.107   0.553   9.311  1.6025 -1.7352 -2.6612
  163SOPE   C3918331   1.141   0.337   9.364  0.2744 -0.3540 -0.2068
  163SOPE   H9X18332   1.032   0.317   9.360  0.1171  0.6377 -2.8069
  163SOPE   H9Y18333   1.182   0.284   9.452  1.5143  1.4568  0.3748
  163SOPE  C31018334   1.201   0.280   9.232  0.7452  0.2103  0.1110
  163SOPE  H10X18335   1.306   0.270   9.264 -0.0369  0.2687  2.9790
  163SOPE  H10Y18336   1.187   0.351   9.147  2.2918 -1.3513 -1.5316
  163SOPE  C31118337   1.141   0.149   9.194  0.3575  0.2798  0.2147
  163SOPE  H11X18338   1.040   0.171   9.152  1.5631 -0.4018 -3.4290
  163SOPE  H11Y18339   1.128   0.097   9.291  0.1838 -0.6902 -0.3186
  163SOPE  C31218340   1.219   0.068   9.095 -0.8320  0.1784 -0.2979
  163SOPE  H12X18341   1.157  -0.023   9.082 -1.4103  0.3730  0.9785
  163SOPE  H12Y18342   1.315   0.032   9.139  0.6136  1.8392 -1.9286
  163SOPE  C31318343   1.252   0.144   8.965  0.1443  0.5345  0.0683
  163SOPE  H13X18344   1.311   0.233   8.996  1.0793 -0.1744  0.3986
  163SOPE  H13Y18345   1.160   0.196   8.931 -0.6153 -0.1769  0.9612
  163SOPE  C31418346   1.304   0.050   8.853  0.1919 -0.2196  0.4077
  163SOPE  H14X18347   1.217  -0.015   8.829 -1.4808  1.4967  1.4837
  163SOPE  H14Y18348   1.401   0.004   8.884  0.5068 -0.3052 -0.6790
  163SOPE  C31518349   1.347   0.123   8.726  0.5579 -0.1438 -0.0308
  163SOPE  H15X18350   1.436   0.185   8.750  1.7815 -2.1099  0.7373
  163SOPE  H15Y18351   1.267   0.188   8.686  1.2874  0.9268  0.2059
  163SOPE  C31618352   1.384   0.024   8.613 -0.3543  0.0757  0.6679
  163SOPE  H16X18353   1.310  -0.060   8.616  1.2198 -1.4175 -0.2669
  163SOPE  H16Y18354   1.481  -0.023   8.641  0.8044  1.7983 -0.3242
  163SOPE  C31718355   1.372   0.086   8.478 -0.3900  0.7976  0.7404
  163SOPE  H17X18356   1.454   0.160   8.460  0.4916 -0.5230 -1.0259
  163SOPE  H17Y18357   1.279   0.147   8.480 -3.3559 -3.2597 -0.7151
  163SOPE  C31818358   1.374  -0.012   8.362  0.3412 -0.3800  0.1447
  163SOPE  H18X18359   1.369   0.029   8.259  2.3273  0.2041  0.2401
  163SOPE  H18Y18360   1.288  -0.081   8.369  0.2085 -0.6755 -2.8909
  163SOPE  H18Z18361   1.477  -0.054   8.355  1.1725  1.4279  0.8701
  164SOPE     N18362   6.196   3.764  10.626 -0.2608 -0.3391 -0.1003
  164SOPE   HN118363   6.114   3.766  10.563 -2.4915 -0.5853  2.5993
  164SOPE   HN218364   6.146   3.740  10.714  0.8734 -0.4099  0.5443
  164SOPE   HN318365   6.238   3.859  10.635 -2.8686  0.9018 -0.2662
  164SOPE   C1218366   6.300   3.661  10.588  0.2471 -0.0230  0.1055
  164SOPE  H12A18367   6.391   3.675  10.651  1.1866  2.5990 -1.6467
  164SOPE  H12B18368   6.329   3.697  10.487 -2.2231  0.5912 -0.4454
  164SOPE   C1118369   6.249   3.510  10.577  0.1250 -0.0107  0.0183
  164SOPE  H11A18370   6.149   3.505  10.529 -0.1171 -2.2942  0.6312
  164SOPE  H11B18371   6.234   3.478  10.683 -1.3842 -0.7946 -0.4093
  164SOPE     P18372   6.334   3.295  10.448 -0.0699  0.3514 -0.2699
  164SOPE   O1318373   6.214   3.229  10.505 -0.6405 -0.1466  0.3948
  164SOPE   O1418374   6.459   3.222  10.476 -0.2625  0.6306 -0.5845
  164SOPE   O1218375   6.358   3.440  10.502  0.0593  0.2865 -0.1871
  164SOPE   O1118376   6.302   3.305  10.297  0.0859 -0.2588  0.2547
  164SOPE    C118377   6.371   3.403  10.222  0.0854 -0.4424  0.1711
  164SOPE    HA18378   6.482   3.395  10.229  0.2133  0.9217 -0.0790
  164SOPE    HB18379   6.347   3.505  10.258  1.4977  1.0168 -2.7322
  164SOPE    C218380   6.325   3.409  10.072  0.5252  0.2890  0.2384
  164SOPE    HS18381   6.374   3.491  10.015 -0.4116 -0.0385 -1.0839
  164SOPE   O2118382   6.182   3.405  10.056 -0.2725 -0.2947  0.7846
  164SOPE   C2118383   6.131   3.530  10.067  1.0431 -0.2407  0.5747
  164SOPE   O2218384   6.188   3.634  10.087 -0.7354  0.5072  0.8959
  164SOPE   C2218385   5.979   3.516  10.047 -0.1718  0.5021 -0.3746
  164SOPE   H2R18386   5.934   3.546  10.144  0.7857 -0.2411  0.3139
  164SOPE   H2S18387   5.953   3.409  10.032  2.0811 -0.8414  3.7933
  164SOPE    C318388   6.385   3.284   9.989  1.0003  0.5637  0.2445
  164SOPE    HX18389   6.348   3.185  10.024  0.1856  0.9058  0.3747
  164SOPE    HY18390   6.493   3.275  10.010  0.4958 -1.4779  2.3985
  164SOPE   O3118391   6.372   3.308   9.851 -0.1213  0.2592 -0.4191
  164SOPE   C3118392   6.282   3.236   9.786 -0.0557  0.8998 -0.0277
  164SOPE   O3218393   6.210   3.148   9.832  0.0816  0.2623 -0.2181
  164SOPE   C3218394   6.276   3.274   9.643  0.3971 -0.0387  0.8370
  164SOPE   H2X18395   6.356   3.349   9.623  0.7458 -0.5327  0.3623
  164SOPE   H2Y18396   6.181   3.332   9.644 -0.1704 -0.9347  2.9779
  164SOPE   C2318397   5.927   3.613   9.943 -0.7463 -0.3950 -0.3229
  164SOPE   H3R18398   5.963   3.717   9.961 -0.9226 -0.4906  0.6088
  164SOPE   H3S18399   5.817   3.621   9.958 -0.4350 -1.1020  3.0478
  164SOPE   C2418400   5.965   3.572   9.799  0.1118  0.1350 -0.1332
  164SOPE   H4R18401   5.975   3.463   9.786 -0.8998 -0.0177  0.2551
  164SOPE   H4S18402   5.884   3.606   9.730  1.5754  1.9791 -1.0222
  164SOPE   C2518403   6.085   3.636   9.738  0.0446  0.8247 -0.5508
  164SOPE   H5R18404   6.094   3.742   9.770  0.8228  0.2783  1.1671
  164SOPE   H5S18405   6.171   3.578   9.778 -1.9132 -1.0968  1.1557
  164SOPE   C2618406   6.075   3.634   9.584 -0.0862 -0.2961 -0.0113
  164SOPE   H6R18407   6.055   3.532   9.546 -0.8035 -0.1347 -0.0707
  164SOPE   H6S18408   5.993   3.706   9.562 -0.1825 -0.2907  0.3590
  164SOPE   C2718409   6.205   3.698   9.530  0.2957  1.0660  0.8436
  164SOPE   H7R18410   6.227   3.804   9.555  0.6108  1.3698 -0.6509
  164SOPE   H7S18411   6.295   3.647   9.570 -0.1546 -1.2826 -0.9316
  164SOPE   C2818412   6.204   3.697   9.368  0.4417  0.5943  0.1193
  164SOPE   H8R18413   6.158   3.605   9.326  1.7170  0.2832 -0.6534
  164SOPE   H8S18414   6.138   3.782   9.338  1.8312  1.4052 -0.7743
  164SOPE   C2918415   6.334   3.697   9.297 -0.1587 -0.0324 -0.0651
  164SOPE   H9118416   6.401   3.610   9.306  1.7599  1.3719 -0.2082
  164SOPE  C21018417   6.389   3.801   9.225 -0.3581 -0.7343 -0.1025
  164SOPE  H10118418   6.494   3.785   9.197 -0.0074 -0.1414  0.8368
  164SOPE  C21118419   6.338   3.940   9.202 -0.4738  0.0953  0.8700
  164SOPE  H11R18420   6.419   4.014   9.224 -0.5965  0.1461  1.1547
  164SOPE  H11S18421   6.263   3.966   9.280 -0.4982 -1.8115  1.5131
  164SOPE  C21218422   6.303   3.966   9.054  0.3179 -0.2830  0.3629
  164SOPE  H12R18423   6.253   4.065   9.057  0.1539 -0.3712  0.5150
  164SOPE  H12S18424   6.228   3.891   9.021  0.5149 -0.2713 -0.1281
  164SOPE  C21318425   6.426   3.968   8.967  0.1005  0.1491  0.2246
  164SOPE  H13R18426   6.483   3.873   8.971 -1.2561 -0.6266  2.5491
  164SOPE  H13S18427   6.488   4.053   9.003 -2.2331  1.8404  0.4462
  164SOPE  C21418428   6.384   4.004   8.823 -1.0495 -0.4362 -0.0963
  164SOPE  H14R18429   6.332   4.102   8.819  1.1161  0.7436 -0.9905
  164SOPE  H14S18430   6.325   3.927   8.770  0.2356 -1.7891  0.3777
  164SOPE  C21518431   6.514   4.025   8.736 -0.0757 -0.3069  0.8930
  164SOPE  H15R18432   6.598   3.963   8.776 -1.1445 -0.6371  2.7443
  164SOPE  H15S18433   6.530   4.134   8.735 -3.8300  0.3911  1.7764
  164SOPE  C21618434   6.499   3.974   8.591  0.5467 -0.8182 -0.0303
  164SOPE  H16R18435   6.447   4.055   8.535  2.0578  1.2608  1.4233
  164SOPE  H16S18436   6.446   3.876   8.591 -1.5972  0.2513 -1.7753
  164SOPE  C21718437   6.635   3.968   8.517 -0.3347 -0.0963  0.4694
  164SOPE  H17R18438   6.698   3.902   8.580  1.5460  0.9112 -0.2462
  164SOPE  H17S18439   6.686   4.067   8.514  0.5690 -0.5073  1.5327
  164SOPE  C21818440   6.643   3.904   8.375 -0.3611 -0.4836 -0.3404
  164SOPE  H18R18441   6.748   3.906   8.339  0.0129  2.8750  0.6133
  164SOPE  H18S18442   6.590   3.973   8.307 -2.1871 -1.3878  0.0987
  164SOPE  H18T18443   6.593   3.806   8.363  1.2179 -1.2731 -0.7616
  164SOPE   C3318444   6.279   3.147   9.556  0.1606 -0.0070 -0.5533
  164SOPE   H3X18445   6.182   3.096   9.569  0.4383 -0.3928  0.0445
  164SOPE   H3Y18446   6.365   3.087   9.594 -0.4103  1.3479  3.2770
  164SOPE   C3418447   6.299   3.176   9.407  0.1674 -0.4723 -0.5194
  164SOPE   H4X18448   6.242   3.269   9.388 -0.4927 -0.6778  0.3741
  164SOPE   H4Y18449   6.263   3.088   9.350  1.5500 -2.1095  1.0093
  164SOPE   C3518450   6.435   3.213   9.367 -0.6547 -0.0129 -0.1018
  164SOPE   H5X18451   6.509   3.134   9.392  0.0702  0.5243 -0.4824
  164SOPE   H5Y18452   6.469   3.304   9.421 -0.0677 -1.0050  1.2500
  164SOPE   C3618453   6.460   3.229   9.217  0.9602 -0.1761 -0.1667
  164SOPE   H6X18454   6.448   3.131   9.166  0.9969  0.5557 -1.6561
  164SOPE   H6Y18455   6.567   3.259   9.211  1.3586 -1.6623 -0.7350
  164SOPE   C3718456   6.365   3.335   9.155 -0.0096  0.2977 -0.4289
  164SOPE   H7X18457   6.377   3.425   9.220  1.1569  1.0647 -1.6350
  164SOPE   H7Y18458   6.261   3.299   9.164  0.3792 -1.1517 -1.4448
  164SOPE   C3818459   6.408   3.382   9.016 -0.4496 -0.7974  0.0491
  164SOPE   H8X18460   6.409   3.302   8.938  1.0360  0.1503 -0.9502
  164SOPE   H8Y18461   6.514   3.414   9.021 -0.5455 -0.3672 -0.6164
  164SOPE   C3918462   6.312   3.489   8.970 -0.3463 -0.4522 -0.0780
  164SOPE   H9X18463   6.369   3.562   8.907 -3.7690  3.1358  0.6025
  164SOPE   H9Y18464   6.294   3.552   9.059 -0.6903  0.1803 -0.5891
  164SOPE  C31018465   6.179   3.436   8.919  0.1763 -0.1202 -0.1776
  164SOPE  H10X18466   6.117   3.410   9.007 -1.9873  0.4011 -1.4615
  164SOPE  H10Y18467   6.196   3.351   8.849  0.5997  0.8142 -1.2483
  164SOPE  C31118468   6.103   3.555   8.840  0.1653  0.6020  0.2280
  164SOPE  H11X18469   6.098   3.647   8.902  0.9368  0.0465  1.1394
  164SOPE  H11Y18470   6.003   3.514   8.816  0.6078 -0.5173  0.2305
  164SOPE  C31218471   6.161   3.580   8.700 -0.4146  0.6706 -0.2245
  164SOPE  H12X18472   6.152   3.494   8.630  2.1255 -0.8831  1.1842
  164SOPE  H12Y18473   6.272   3.580   8.710 -0.4771  1.3196  0.5708
  164SOPE  C31318474   6.112   3.706   8.639  0.9628  0.2769  0.0034
  164SOPE  H13X18475   6.154   3.732   8.540  0.5882 -0.0892 -0.2546
  164SOPE  H13Y18476   6.151   3.784   8.709 -0.3117  0.0055  1.0666
  164SOPE  C31418477   5.955   3.721   8.628 -0.9478 -0.0469 -0.1559
  164SOPE  H14X18478   5.922   3.744   8.731  0.0420  0.0633  0.1493
  164SOPE  H14Y18479   5.918   3.623   8.590 -0.7284  0.1412 -0.8748
  164SOPE  C31518480   5.922   3.818   8.520  0.2223 -0.0405  0.3321
  164SOPE  H15X18481   5.815   3.837   8.498  1.0042  1.7953 -2.4383
  164SOPE  H15Y18482   5.965   3.777   8.426  2.1407  1.0715  0.6776
  164SOPE  C31618483   5.976   3.963   8.530  0.8497  0.0298 -0.2720
  164SOPE  H16X18484   5.963   4.018   8.435 -0.9064  1.2605  0.6142
  164SOPE  H16Y18485   6.084   3.952   8.552  1.4870  1.7746 -2.2282
  164SOPE  C31718486   5.903   4.033   8.650  0.4096  0.2294  0.0768
  164SOPE  H17X18487   5.960   4.125   8.674 -0.1100  0.8764 -1.0853
  164SOPE  H17Y18488   5.892   3.970   8.741 -0.2654 -0.0850 -0.2099
  164SOPE  C31818489   5.756   4.075   8.619 -0.0832  0.8317 -0.3815
  164SOPE  H18X18490   5.730   4.131   8.711  0.6702 -1.3991  1.2850
  164SOPE  H18Y18491   5.684   3.992   8.606  1.5138 -0.2821 -2.9716
  164SOPE  H18Z18492   5.752   4.146   8.534 -1.2402  1.4223  0.1523
  165SOPE     N18493   1.768   3.798  10.855  0.0742 -0.2351 -0.2069
  165SOPE   HN118494   1.671   3.788  10.819  0.0863 -0.4849 -0.1735
  165SOPE   HN218495   1.765   3.877  10.923 -1.6735  0.3091 -0.8622
  165SOPE   HN318496   1.833   3.830  10.782 -0.8076  1.1584 -0.4079
  165SOPE   C1218497   1.810   3.679  10.929  0.6178  0.3159 -0.4877
  165SOPE  H12A18498   1.714   3.644  10.973  1.3300 -0.7744  0.2486
  165SOPE  H12B18499   1.870   3.713  11.016 -1.3873 -1.0368  1.5199
  165SOPE   C1118500   1.865   3.567  10.841  0.3951 -0.1861  0.6105
  165SOPE  H11A18501   1.877   3.478  10.905  0.1778 -1.3058 -0.8597
  165SOPE  H11B18502   1.962   3.595  10.795  0.5901 -0.7593  0.6680
  165SOPE     P18503   1.758   3.405  10.672 -0.1308 -0.0824 -0.3716
  165SOPE   O1318504   1.616   3.388  10.638  0.2566  0.1101  0.1616
  165SOPE   O1418505   1.812   3.298  10.764  0.3449 -0.2084 -0.4501
  165SOPE   O1218506   1.764   3.541  10.739 -0.0236  0.3392 -0.0034
  165SOPE   O1118507   1.843   3.410  10.536  0.9060 -0.5734  0.0870
  165SOPE    C118508   1.859   3.534  10.469  0.0115 -0.2313  0.3551
  165SOPE    HA18509   1.920   3.607  10.527  3.5723 -1.6164 -1.3656
  165SOPE    HB18510   1.757   3.574  10.449  0.0547  0.5240  1.5183
  165SOPE    C218511   1.934   3.513  10.331  0.0065 -0.0209 -0.0510
  165SOPE    HS18512   1.972   3.613  10.299  0.2254 -0.5642 -1.5901
  165SOPE   O2118513   1.836   3.453  10.248 -0.1932 -0.4317  0.3341
  165SOPE   C2118514   1.814   3.520  10.134  0.5702  0.1662  0.3011
  165SOPE   O2218515   1.856   3.629  10.109 -0.0824  0.5525 -0.3534
  165SOPE   C2218516   1.736   3.427  10.037  0.2843  0.0507 -0.1301
  165SOPE   H2R18517   1.646   3.384  10.086  1.4842 -0.4100  1.7895
  165SOPE   H2S18518   1.795   3.333  10.023  0.5427 -0.0466  1.4865
  165SOPE    C318519   2.067   3.424  10.336  0.1876  0.0533 -0.3079
  165SOPE    HX18520   2.033   3.325  10.371 -2.8464  1.6249  1.6153
  165SOPE    HY18521   2.141   3.456  10.412 -0.0071  0.2744 -0.2096
  165SOPE   O3118522   2.123   3.396  10.204 -0.3061 -0.2989  0.2031
  165SOPE   C3118523   2.223   3.313  10.207  0.3446 -0.6793  0.5049
  165SOPE   O3218524   2.271   3.266  10.306 -0.0375  0.2411 -0.4559
  165SOPE   C3218525   2.268   3.289  10.062 -0.4113 -0.2817  0.8187
  165SOPE   H2X18526   2.339   3.204  10.050 -0.3022 -0.0858 -0.0460
  165SOPE   H2Y18527   2.326   3.379  10.032 -0.1291 -0.4493  0.8609
  165SOPE   C2318528   1.710   3.490   9.897 -0.2809 -0.6076  0.1556
  165SOPE   H3R18529   1.675   3.594   9.914 -2.4643 -1.4254  0.9530
  165SOPE   H3S18530   1.631   3.421   9.860  0.5082 -2.4420  1.6955
  165SOPE   C2418531   1.837   3.496   9.807 -0.4721 -0.0596 -0.3222
  165SOPE   H4R18532   1.917   3.556   9.854  0.7026 -0.5472 -1.6598
  165SOPE   H4S18533   1.878   3.393   9.803 -0.5170 -0.0730 -0.4266
  165SOPE   C2518534   1.821   3.565   9.668  0.1786  0.1313 -0.4606
  165SOPE   H5R18535   1.743   3.519   9.605  1.4388 -0.2834 -1.7692
  165SOPE   H5S18536   1.786   3.670   9.685  2.6066  0.6761  2.0261
  165SOPE   C2618537   1.949   3.556   9.594 -0.2962  0.7672  0.2995
  165SOPE   H6R18538   2.033   3.567   9.666  1.0978  1.0226 -1.2988
  165SOPE   H6S18539   1.961   3.459   9.540 -0.0504  0.1758  1.3866
  165SOPE   C2718540   1.972   3.650   9.474  0.5036  0.0787 -0.0625
  165SOPE   H7R18541   1.986   3.746   9.529  2.5987 -1.6762  2.7090
  165SOPE   H7S18542   2.068   3.620   9.428  0.5851  0.3387 -0.0642
  165SOPE   C2818543   1.861   3.674   9.374  0.6992 -0.0971 -0.0777
  165SOPE   H8R18544   1.836   3.582   9.317  0.3494 -0.2279  0.2871
  165SOPE   H8S18545   1.764   3.704   9.419  1.6630  2.1831  0.6270
  165SOPE   C2918546   1.918   3.781   9.286  0.4506  0.6452  0.0328
  165SOPE   H9118547   1.964   3.868   9.334  0.1877  1.1179 -0.5675
  165SOPE  C21018548   1.914   3.789   9.154 -0.5301  0.4000 -0.1974
  165SOPE  H10118549   1.953   3.879   9.105 -1.1136 -0.1486 -1.7441
  165SOPE  C21118550   1.845   3.682   9.069 -0.1468  0.5770  0.4890
  165SOPE  H11R18551   1.774   3.738   9.004 -0.4308  0.2156  0.4831
  165SOPE  H11S18552   1.780   3.607   9.119  0.7641 -0.1945  0.5503
  165SOPE  C21218553   1.945   3.608   8.976 -0.5729 -0.2340 -0.5406
  165SOPE  H12R18554   1.884   3.526   8.934 -3.0642  1.6103 -0.7810
  165SOPE  H12S18555   2.022   3.569   9.044 -2.5759  0.6439  2.4255
  165SOPE  C21318556   2.011   3.682   8.856  0.1372 -0.1683 -0.3864
  165SOPE  H13R18557   2.063   3.768   8.903  0.3109 -2.6409  4.6420
  165SOPE  H13S18558   1.929   3.719   8.791 -0.2592 -1.7373 -0.8191
  165SOPE  C21418559   2.104   3.586   8.791 -0.0089 -0.0339 -0.1605
  165SOPE  H14R18560   2.192   3.580   8.858 -0.0513  0.8405 -0.0230
  165SOPE  H14S18561   2.132   3.634   8.695  0.6758 -1.3537 -0.6518
  165SOPE  C21518562   2.071   3.434   8.765  0.1452  0.0662  0.3509
  165SOPE  H15R18563   2.065   3.392   8.867  1.0052 -0.7914  0.0652
  165SOPE  H15S18564   2.153   3.385   8.708 -0.3906 -0.4967  0.0554
  165SOPE  C21618565   1.943   3.422   8.675  0.5768  0.9112  0.9851
  165SOPE  H16R18566   1.874   3.495   8.722  1.9710  2.7505  0.3091
  165SOPE  H16S18567   1.897   3.321   8.668  1.7950  0.3840 -5.3904
  165SOPE  C21718568   1.968   3.461   8.528  0.1993  0.0184 -0.2922
  165SOPE  H17R18569   2.034   3.550   8.530 -0.0074  0.1623  0.5101
  165SOPE  H17S18570   1.878   3.475   8.463 -0.7119 -1.1199  0.6736
  165SOPE  C21818571   2.040   3.347   8.455 -0.0810  0.2910  0.0991
  165SOPE  H18R18572   2.055   3.376   8.349  1.3962  0.5481  0.3694
  165SOPE  H18S18573   1.969   3.261   8.451 -2.5908  2.1433  1.5080
  165SOPE  H18T18574   2.136   3.326   8.505  1.1914  2.0979 -1.4682
  165SOPE   C3318575   2.148   3.255   9.960 -0.5409  0.4001 -0.6432
  165SOPE   H3X18576   2.074   3.336   9.951  0.6274  1.6841  0.7437
  165SOPE   H3Y18577   2.108   3.156   9.990 -1.9333  0.8774 -0.8464
  165SOPE   C3418578   2.198   3.213   9.820  0.2044 -0.2030  0.6998
  165SOPE   H4X18579   2.103   3.188   9.770 -0.0366  1.0396  0.4908
  165SOPE   H4Y18580   2.273   3.132   9.829  1.2337  0.6100 -0.2384
  165SOPE   C3518581   2.273   3.325   9.744 -0.0600 -0.6589  0.4540
  165SOPE   H5X18582   2.346   3.374   9.812  2.7017 -2.5753 -0.9724
  165SOPE   H5Y18583   2.195   3.400   9.718 -0.0592 -0.5811  0.6694
  165SOPE   C3618584   2.328   3.279   9.603  0.3719 -0.9156  0.3321
  165SOPE   H6X18585   2.246   3.223   9.554 -0.5433  0.2931  0.4443
  165SOPE   H6Y18586   2.422   3.220   9.611  0.5711 -0.6273  0.1630
  165SOPE   C3718587   2.369   3.407   9.522 -0.4832 -0.1952  0.7339
  165SOPE   H7X18588   2.437   3.469   9.584 -0.0406 -0.1164  0.1801
  165SOPE   H7Y18589   2.277   3.466   9.500  0.2767  0.2484 -1.6475
  165SOPE   C3818590   2.419   3.364   9.387  0.7179 -0.4230  0.5771
  165SOPE   H8X18591   2.347   3.289   9.348  0.6805  0.0244 -0.2471
  165SOPE   H8Y18592   2.520   3.320   9.404  0.5648 -0.7989  0.5347
  165SOPE   C3918593   2.453   3.468   9.281 -0.2426 -0.8182  0.7720
  165SOPE   H9X18594   2.534   3.535   9.318 -0.6771 -0.8121  1.7335
  165SOPE   H9Y18595   2.363   3.524   9.250  1.7658  2.4169  0.3491
  165SOPE  C31018596   2.506   3.406   9.148 -0.0206 -0.1040  0.0113
  165SOPE  H10X18597   2.429   3.337   9.109 -0.4915 -0.4058  1.4199
  165SOPE  H10Y18598   2.610   3.368   9.162 -0.1098 -0.4467 -0.2582
  165SOPE  C31118599   2.516   3.512   9.035 -0.2814 -1.4783 -0.1135
  165SOPE  H11X18600   2.597   3.588   9.035  0.2665 -2.0328 -1.5236
  165SOPE  H11Y18601   2.420   3.568   9.040 -0.6858 -1.7528 -2.9998
  165SOPE  C31218602   2.518   3.453   8.899  0.0621 -0.2159  0.7670
  165SOPE  H12X18603   2.443   3.371   8.904  0.7979 -0.9151  0.5226
  165SOPE  H12Y18604   2.620   3.414   8.882  0.7557  1.5528  0.7449
  165SOPE  C31318605   2.495   3.546   8.774 -0.1083  0.2113 -0.4040
  165SOPE  H13X18606   2.582   3.613   8.762  0.8707 -0.6096  1.7250
  165SOPE  H13Y18607   2.405   3.602   8.807 -1.3680 -2.5871  1.2954
  165SOPE  C31418608   2.470   3.455   8.654  0.5646 -0.9104  0.9077
  165SOPE  H14X18609   2.415   3.362   8.682 -0.0314 -0.9657 -0.3664
  165SOPE  H14Y18610   2.568   3.414   8.620 -0.2272 -1.4291 -0.8970
  165SOPE  C31518611   2.391   3.526   8.546 -0.0315 -0.6019 -0.3094
  165SOPE  H15X18612   2.438   3.627   8.538 -1.1578  0.0101  0.5514
  165SOPE  H15Y18613   2.287   3.549   8.577  0.3816 -0.0076  0.6669
  165SOPE  C31618614   2.389   3.456   8.420  0.5437  0.5800 -0.4085
  165SOPE  H16X18615   2.317   3.511   8.356 -1.7565 -0.3326  1.2237
  165SOPE  H16Y18616   2.341   3.356   8.426  2.1346 -0.2837 -1.4485
  165SOPE  C31718617   2.527   3.456   8.360  0.7743 -0.3160 -0.1632
  165SOPE  H17X18618   2.603   3.406   8.424 -0.8229  0.1368  2.2320
  165SOPE  H17Y18619   2.551   3.564   8.365  1.0968 -0.4321  1.7404
  165SOPE  C31818620   2.533   3.423   8.210 -0.2703  0.3093  0.5317
  165SOPE  H18X18621   2.625   3.457   8.156  0.1362 -0.2801  0.8397
  165SOPE  H18Y18622   2.440   3.456   8.158 -0.0388 -0.9951 -0.7914
  165SOPE  H18Z18623   2.521   3.312   8.201  0.0651  0.1618  1.7137
  166SOPE     N18624   4.877   5.253  10.953 -0.9661  0.3299  0.0456
  166SOPE   HN118625   4.978   5.272  10.966 -1.2941  0.6881  2.4431
  166SOPE   HN218626   4.874   5.161  10.904  0.4622 -0.0035  0.5367
  166SOPE   HN318627   4.830   5.321  10.890  0.0579  1.0410  0.0282
  166SOPE   C1218628   4.797   5.265  11.083  0.4264 -0.1032 -0.0493
  166SOPE  H12A18629   4.845   5.350  11.137  0.6665  0.5515 -1.2624
  166SOPE  H12B18630   4.801   5.172  11.144 -0.7459  0.0000  0.2136
  166SOPE   C1118631   4.655   5.303  11.048  0.6249  0.5344 -0.8896
  166SOPE  H11A18632   4.646   5.397  10.989  0.7620  2.4016  1.8527
  166SOPE  H11B18633   4.608   5.326  11.146 -0.0572 -1.1815 -0.7712
  166SOPE     P18634   4.450   5.188  10.942  0.3216 -0.0317 -0.1051
  166SOPE   O1318635   4.361   5.239  11.046 -0.4337 -0.1307 -0.0251
  166SOPE   O1418636   4.412   5.050  10.907  0.0069 -0.8698 -0.2415
  166SOPE   O1218637   4.598   5.182  10.988  0.5603 -1.0839  0.5783
  166SOPE   O1118638   4.438   5.286  10.820  0.0725  0.4680  0.6370
  166SOPE    C118639   4.544   5.296  10.725  0.1185  0.2332 -0.4487
  166SOPE    HA18640   4.635   5.242  10.757 -1.5575 -0.5816  3.5249
  166SOPE    HB18641   4.577   5.401  10.714  1.7988  0.0264  1.9165
  166SOPE    C218642   4.500   5.241  10.583 -0.1853  0.7331  0.0910
  166SOPE    HS18643   4.570   5.291  10.513  0.4079 -0.9248 -0.5629
  166SOPE   O2118644   4.364   5.263  10.548 -0.2383  0.3834  0.1291
  166SOPE   C2118645   4.339   5.388  10.516  0.0859  0.2205 -0.4058
  166SOPE   O2218646   4.413   5.484  10.518  0.2093 -0.5522 -0.0693
  166SOPE   C2218647   4.188   5.397  10.465  0.5480 -0.5825  0.6140
  166SOPE   H2R18648   4.179   5.503  10.433  0.0742 -0.0527  2.3869
  166SOPE   H2S18649   4.124   5.373  10.553  0.1051  1.9169  1.0686
  166SOPE    C318650   4.529   5.094  10.582  0.0520  0.9320 -0.0584
  166SOPE    HX18651   4.445   5.049  10.638  2.5006 -1.9708  1.6458
  166SOPE    HY18652   4.612   5.066  10.650  0.3249 -1.2074 -1.1465
  166SOPE   O3118653   4.538   5.036  10.448  0.0840 -0.1926  0.3250
  166SOPE   C3118654   4.657   5.043  10.386 -0.1815  0.8090 -0.1265
  166SOPE   O3218655   4.760   5.082  10.448  0.2866  0.0332  0.7262
  166SOPE   C3218656   4.639   4.986  10.244  0.7319  0.1058  0.0286
  166SOPE   H2X18657   4.536   4.945  10.245  0.7924 -0.0257  0.9124
  166SOPE   H2Y18658   4.716   4.906  10.233  1.2833  0.6118  0.1023
  166SOPE   C2318659   4.157   5.296  10.351  0.3257 -0.1723  0.6288
  166SOPE   H3R18660   4.108   5.209  10.399 -0.6772  2.3735  4.6506
  166SOPE   H3S18661   4.251   5.262  10.302  0.9259  1.5624  0.5000
  166SOPE   C2418662   4.074   5.357  10.237  0.4259  0.2640 -0.2315
  166SOPE   H4R18663   3.967   5.366  10.263  0.0616  1.9553 -2.0537
  166SOPE   H4S18664   4.128   5.453  10.219  0.6180  0.5232  1.5236
  166SOPE   C2518665   4.063   5.264  10.119 -0.2162 -0.3600 -0.4359
  166SOPE   H5R18666   4.151   5.201  10.093 -1.4818 -3.6464  2.4128
  166SOPE   H5S18667   3.988   5.188  10.149 -0.6720 -0.2323 -1.2075
  166SOPE   C2618668   4.017   5.340   9.996 -0.1066 -0.3531  0.1710
  166SOPE   H6R18669   3.995   5.269   9.913 -3.3274  0.6788  0.0170
  166SOPE   H6S18670   3.926   5.401  10.012  0.5210  0.0405  2.5535
  166SOPE   C2718671   4.131   5.437   9.948 -0.0731 -0.2908  0.4342
  166SOPE   H7R18672   4.147   5.506  10.035  1.5561  2.0340 -1.5527
  166SOPE   H7S18673   4.223   5.375   9.941 -0.7794 -1.2790 -0.3990
  166SOPE   C2818674   4.093   5.510   9.815 -0.0654  0.2714  0.2424
  166SOPE   H8R18675   4.169   5.590   9.801  0.3307 -0.1534 -0.0558
  166SOPE   H8S18676   4.094   5.436   9.732 -1.3190  0.2491  0.2318
  166SOPE   C2918677   3.958   5.569   9.820 -0.1731  0.4515  0.8383
  166SOPE   H9118678   3.924   5.597   9.921 -0.8214  2.0246  0.2189
  166SOPE  C21018679   3.873   5.585   9.715  0.0993 -0.2581  0.5275
  166SOPE  H10118680   3.773   5.625   9.734  0.0025 -0.7646  1.1034
  166SOPE  C21118681   3.916   5.536   9.576 -0.3075 -0.0215  0.4098
  166SOPE  H11R18682   4.025   5.517   9.573  0.3122  3.1165 -0.8893
  166SOPE  H11S18683   3.893   5.608   9.495 -0.5196  0.0209  0.5066
  166SOPE  C21218684   3.853   5.403   9.525  0.2494 -0.0551 -0.1106
  166SOPE  H12R18685   3.883   5.381   9.420  2.1406  0.7859  0.2088
  166SOPE  H12S18686   3.742   5.405   9.516  0.3386  0.2359 -1.2306
  166SOPE  C21318687   3.900   5.283   9.606 -0.0550 -0.0990  0.1109
  166SOPE  H13R18688   3.869   5.298   9.712 -2.7100 -2.6709 -0.1784
  166SOPE  H13S18689   4.010   5.264   9.603 -0.5065 -3.0740 -0.6213
  166SOPE  C21418690   3.822   5.152   9.577 -0.4517  0.0075  0.1593
  166SOPE  H14R18691   3.864   5.124   9.477 -0.8745  0.3530 -0.1179
  166SOPE  H14S18692   3.712   5.162   9.565 -0.6832 -1.4165  0.8077
  166SOPE  C21518693   3.851   5.044   9.685 -0.0646 -0.3549  0.1757
  166SOPE  H15R18694   3.960   5.058   9.700 -0.2511  0.6814  0.6869
  166SOPE  H15S18695   3.827   4.947   9.637 -0.8831  0.1231 -0.4075
  166SOPE  C21618696   3.790   5.064   9.826 -0.4194 -0.4027 -0.8193
  166SOPE  H16R18697   3.681   5.067   9.802 -1.3437  1.7194  2.8796
  166SOPE  H16S18698   3.808   5.166   9.868 -0.4228 -0.0330 -1.6866
  166SOPE  C21718699   3.809   4.974   9.942 -0.2968 -0.2647 -0.3978
  166SOPE  H17R18700   3.917   4.956   9.962  0.1000  1.6645 -0.6787
  166SOPE  H17S18701   3.775   4.868   9.932 -0.1250 -0.4668  0.9686
  166SOPE  C21818702   3.731   5.010  10.074 -0.3051 -0.0820 -0.2596
  166SOPE  H18R18703   3.741   5.115  10.110 -0.2777 -0.2355  0.1784
  166SOPE  H18S18704   3.754   4.947  10.162  0.7574 -1.1015 -1.2304
  166SOPE  H18T18705   3.622   5.002  10.056 -0.2449  1.5036 -1.6110
  166SOPE   C3318706   4.660   5.086  10.124 -0.1222  0.1929  0.8710
  166SOPE   H3X18707   4.645   5.047  10.021  2.5224  3.0247 -0.7770
  166SOPE   H3Y18708   4.757   5.138  10.140  1.8640 -2.4717 -1.5807
  166SOPE   C3418709   4.563   5.207  10.134 -0.0932 -0.5052  0.7191
  166SOPE   H4X18710   4.568   5.252  10.236  0.4263 -1.7887  1.2859
  166SOPE   H4Y18711   4.458   5.176  10.117 -0.6178  0.7030  1.5715
  166SOPE   C3518712   4.606   5.314  10.029  0.8924  0.1913 -0.7178
  166SOPE   H5X18713   4.598   5.269   9.928 -0.2794 -0.1618 -0.4894
  166SOPE   H5Y18714   4.714   5.334  10.044  0.3998  2.4163  0.2341
  166SOPE   C3618715   4.539   5.438  10.069  0.4468 -0.2144  0.1337
  166SOPE   H6X18716   4.538   5.466  10.177  0.8174 -1.9404  0.6239
  166SOPE   H6Y18717   4.429   5.424  10.059  0.4667 -0.2645 -0.0098
  166SOPE   C3718718   4.586   5.555   9.977 -0.4750  0.1205 -0.6782
  166SOPE   H7X18719   4.686   5.582  10.017 -0.7776 -1.8580  1.6343
  166SOPE   H7Y18720   4.527   5.649   9.987  0.3538  0.4106  2.4049
  166SOPE   C3818721   4.598   5.518   9.828  0.4207  0.5166  0.5592
  166SOPE   H8X18722   4.667   5.433   9.809  0.1585  0.6729 -1.2740
  166SOPE   H8Y18723   4.645   5.604   9.776  1.6182  0.6323  1.7627
  166SOPE   C3918724   4.460   5.497   9.763 -0.4346 -0.2117  0.1793
  166SOPE   H9X18725   4.395   5.587   9.763  1.1328  0.9586  0.2487
  166SOPE   H9Y18726   4.413   5.416   9.823 -0.8461 -0.9101 -1.0490
  166SOPE  C31018727   4.473   5.446   9.626 -0.4453 -0.0838  1.0204
  166SOPE  H10X18728   4.537   5.356   9.628  1.5150  1.2506  3.2056
  166SOPE  H10Y18729   4.535   5.512   9.563  0.1906 -0.6928  1.0053
  166SOPE  C31118730   4.350   5.404   9.546 -0.1024 -0.0080 -0.0402
  166SOPE  H11X18731   4.279   5.490   9.550 -0.1438 -0.0980  2.2668
  166SOPE  H11Y18732   4.304   5.321   9.604  0.0385  1.1282  1.7598
  166SOPE  C31218733   4.387   5.356   9.406 -0.6052  0.0555 -0.2570
  166SOPE  H12X18734   4.457   5.271   9.421 -0.7725 -0.1942 -0.8461
  166SOPE  H12Y18735   4.445   5.431   9.348  0.2836 -0.0292  0.5045
  166SOPE  C31318736   4.267   5.313   9.324 -0.0240 -0.0468  0.9052
  166SOPE  H13X18737   4.202   5.403   9.313 -1.0964 -0.9631 -0.5703
  166SOPE  H13Y18738   4.211   5.239   9.384  0.8370  0.7088  2.7201
  166SOPE  C31418739   4.299   5.261   9.189 -0.5532  0.0340 -0.4230
  166SOPE  H14X18740   4.329   5.334   9.112  0.4954 -1.0689 -1.0973
  166SOPE  H14Y18741   4.203   5.214   9.157 -1.0852 -0.1476  1.3166
  166SOPE  C31518742   4.403   5.143   9.181  0.2162 -0.3098  0.2861
  166SOPE  H15X18743   4.376   5.058   9.247  0.1291 -1.7229 -1.5018
  166SOPE  H15Y18744   4.505   5.181   9.204  0.3379  0.1417 -0.9538
  166SOPE  C31618745   4.408   5.088   9.039 -0.3941 -0.3131  0.2322
  166SOPE  H16X18746   4.412   5.159   8.953 -2.6660 -0.4031  0.0012
  166SOPE  H16Y18747   4.325   5.019   9.016 -1.1300  0.0989  1.6069
  166SOPE  C31718748   4.519   4.990   9.018 -0.7887  0.6628  0.2979
  166SOPE  H17X18749   4.534   4.931   9.111  0.3978 -0.9182 -0.8604
  166SOPE  H17Y18750   4.605   5.060   9.023 -0.8250  0.6444  1.4066
  166SOPE  C31818751   4.520   4.906   8.891 -0.7130  0.7062 -0.0514
  166SOPE  H18X18752   4.522   4.971   8.801 -2.5778  1.6835  0.5439
  166SOPE  H18Y18753   4.434   4.836   8.886  3.2437 -4.6999 -3.3669
  166SOPE  H18Z18754   4.605   4.835   8.885 -2.0020 -0.7889 -1.4579
  167SOPE     N18755   0.458   1.593   6.108  0.3615 -0.1001 -0.1170
  167SOPE   HN118756   0.451   1.648   6.020 -1.2656  0.9665  0.6184
  167SOPE   HN218757   0.397   1.510   6.103 -1.7052  1.2479  0.9588
  167SOPE   HN318758   0.408   1.645   6.184 -2.4015  0.3169 -2.1028
  167SOPE   C1218759   0.589   1.529   6.132 -0.5518 -0.2299 -0.5065
  167SOPE  H12A18760   0.626   1.494   6.034  0.5761 -2.2841  0.5683
  167SOPE  H12B18761   0.573   1.435   6.190 -1.0366 -0.5512 -1.1431
  167SOPE   C1118762   0.699   1.614   6.201 -0.4087  0.3266 -0.1939
  167SOPE  H11A18763   0.783   1.546   6.227 -2.1153 -1.2808  1.3521
  167SOPE  H11B18764   0.657   1.644   6.299 -2.2468  0.7124 -1.0559
  167SOPE     P18765   0.893   1.784   6.145  0.1814  0.4493 -0.3766
  167SOPE   O1318766   0.885   1.928   6.152  0.5294 -0.2315  0.3813
  167SOPE   O1418767   0.975   1.722   6.043  0.1784  0.3410  1.1139
  167SOPE   O1218768   0.744   1.734   6.126 -0.5025 -0.1778 -0.4238
  167SOPE   O1118769   0.954   1.743   6.289  0.1984  0.0145 -0.0929
  167SOPE    C118770   0.921   1.801   6.420 -0.5993 -0.1123  0.2183
  167SOPE    HA18771   0.814   1.830   6.426 -0.4518  0.8170 -1.3493
  167SOPE    HB18772   0.968   1.902   6.424 -0.0369 -0.3877  0.8640
  167SOPE    C218773   0.951   1.714   6.536 -0.3272 -0.3017  0.2717
  167SOPE    HS18774   0.913   1.761   6.630  1.1391 -0.7814  1.1377
  167SOPE   O2118775   1.094   1.689   6.544 -0.2297 -0.0700 -0.1222
  167SOPE   C2118776   1.162   1.791   6.601  0.7120  1.0691  0.1891
  167SOPE   O2218777   1.112   1.897   6.637 -0.0386  0.3987  0.1707
  167SOPE   C2218778   1.311   1.757   6.613 -0.2615  0.3036 -0.5470
  167SOPE   H2R18779   1.366   1.839   6.562  2.6086  0.0902  1.9393
  167SOPE   H2S18780   1.328   1.661   6.561 -0.1440  1.1736 -2.1739
  167SOPE    C318781   0.862   1.585   6.536  0.6516  0.5481  0.2217
  167SOPE    HX18782   0.895   1.510   6.460  0.1673 -0.6631  1.1698
  167SOPE    HY18783   0.756   1.611   6.518  0.3271 -1.5030 -1.1566
  167SOPE   O3118784   0.865   1.530   6.672  0.1050  0.2613 -0.0902
  167SOPE   C3118785   0.945   1.428   6.707 -0.1042  0.0878 -0.3649
  167SOPE   O3218786   1.024   1.375   6.637  0.0150  0.2513  0.1930
  167SOPE   C3218787   0.924   1.392   6.855  0.2766 -1.1642  0.0443
  167SOPE   H2X18788   0.820   1.355   6.869  0.0846 -1.4972 -1.9520
  167SOPE   H2Y18789   0.938   1.487   6.911 -0.1890  1.0254 -3.2495
  167SOPE   C2318790   1.359   1.755   6.758  0.6405  0.1596  0.5661
  167SOPE   H3R18791   1.339   1.856   6.800  2.3318  0.7906 -0.0460
  167SOPE   H3S18792   1.470   1.754   6.761  0.6142 -0.6051  1.6571
  167SOPE   C2418793   1.293   1.639   6.828  0.4453  0.3685  0.2859
  167SOPE   H4R18794   1.184   1.653   6.839  0.4788  1.8053 -0.8354
  167SOPE   H4S18795   1.300   1.550   6.762  3.0350  1.3369 -0.9025
  167SOPE   C2518796   1.362   1.612   6.962  0.0241 -0.4034  0.8908
  167SOPE   H5R18797   1.468   1.584   6.943 -0.5328 -1.2042 -1.4097
  167SOPE   H5S18798   1.374   1.706   7.020  0.4317 -0.2721  0.6058
  167SOPE   C2618799   1.306   1.495   7.046  0.4646  0.5138 -0.1218
  167SOPE   H6R18800   1.196   1.488   7.030  0.2816 -0.7429  1.4678
  167SOPE   H6S18801   1.347   1.405   6.996  1.7199  1.9877 -1.8720
  167SOPE   C2718802   1.354   1.494   7.193 -0.3548  0.5174  0.4745
  167SOPE   H7R18803   1.343   1.390   7.230 -0.6917  0.3676 -0.0279
  167SOPE   H7S18804   1.462   1.520   7.194 -0.1750 -0.1376 -0.3219
  167SOPE   C2818805   1.287   1.588   7.282  0.2496 -0.3245 -0.3231
  167SOPE   H8R18806   1.332   1.594   7.384 -0.9913 -3.4333  0.5319
  167SOPE   H8S18807   1.302   1.692   7.245  0.6244 -0.6077 -0.9737
  167SOPE   C2918808   1.139   1.554   7.310 -0.1013 -0.1419  0.0267
  167SOPE   H9118809   1.072   1.602   7.237 -0.2900 -2.7034 -1.6019
  167SOPE  C21018810   1.089   1.474   7.408 -0.1349 -0.2666  0.6139
  167SOPE  H10118811   0.979   1.467   7.412 -0.1383 -0.4803  0.1860
  167SOPE  C21118812   1.162   1.391   7.513  0.3541 -0.0276  0.0727
  167SOPE  H11R18813   1.271   1.398   7.496  0.3827  0.0519  0.2911
  167SOPE  H11S18814   1.133   1.286   7.494  0.8751  0.1633 -2.0022
  167SOPE  C21218815   1.135   1.427   7.657  0.3262 -0.6285 -0.2852
  167SOPE  H12R18816   1.149   1.532   7.689  0.4746 -0.8381  0.3479
  167SOPE  H12S18817   1.210   1.374   7.719 -1.6403 -0.2673  2.5828
  167SOPE  C21318818   1.000   1.385   7.723  0.3693  0.4201  0.3223
  167SOPE  H13R18819   0.984   1.284   7.680  0.4410 -0.0462  1.3753
  167SOPE  H13S18820   0.916   1.447   7.685 -0.9718 -0.8619  1.1190
  167SOPE  C21418821   1.004   1.371   7.875 -0.0013  0.7185  0.0650
  167SOPE  H14R18822   1.084   1.296   7.896 -1.2450 -1.2081 -1.5867
  167SOPE  H14S18823   0.908   1.321   7.902 -2.3924  3.4387 -2.5697
  167SOPE  C21518824   1.018   1.499   7.950 -0.4649 -0.7207 -1.3544
  167SOPE  H15R18825   0.924   1.558   7.947  0.0292  0.0548 -3.6777
  167SOPE  H15S18826   1.100   1.550   7.894  1.1860 -1.3859  0.3427
  167SOPE  C21618827   1.052   1.475   8.102 -0.4919 -0.2712  0.2053
  167SOPE  H16R18828   1.037   1.573   8.152 -1.2827  1.5741 -3.2890
  167SOPE  H16S18829   1.156   1.437   8.114  0.3465  1.9042  0.3093
  167SOPE  C21718830   0.951   1.378   8.171 -0.2018 -0.5317  0.2742
  167SOPE  H17R18831   0.951   1.277   8.125  1.7475 -0.8809  0.9397
  167SOPE  H17S18832   0.847   1.414   8.152  0.0571 -0.7489 -1.7169
  167SOPE  C21818833   0.973   1.350   8.320 -0.6606  0.0108  0.4607
  167SOPE  H18R18834   0.881   1.299   8.355 -2.4135  2.7473  0.2023
  167SOPE  H18S18835   0.989   1.451   8.365 -2.5176  0.3440  0.4420
  167SOPE  H18T18836   1.063   1.288   8.341 -0.4293  0.7402  1.7320
  167SOPE   C3318837   1.021   1.281   6.900  0.0302 -0.6138 -0.1182
  167SOPE   H3X18838   1.122   1.322   6.882  0.0447 -0.2903  0.6695
  167SOPE   H3Y18839   1.017   1.187   6.841  1.6933 -0.1309 -1.0750
  167SOPE   C3418840   1.004   1.250   7.047 -0.2127  0.4468  0.4527
  167SOPE   H4X18841   0.992   1.336   7.116 -0.3129 -0.6855  1.9015
  167SOPE   H4Y18842   1.079   1.178   7.084 -1.8374 -1.3097  0.4747
  167SOPE   C3518843   0.879   1.165   7.063  0.4581 -0.7040  0.1738
  167SOPE   H5X18844   0.882   1.082   6.989  1.5638 -0.1223 -0.4636
  167SOPE   H5Y18845   0.794   1.231   7.038  2.1727  1.1323 -1.1819
  167SOPE   C3618846   0.871   1.121   7.205 -0.1918  1.3324 -0.3145
  167SOPE   H6X18847   0.904   1.203   7.272  2.3008 -0.4906  0.8776
  167SOPE   H6Y18848   0.948   1.043   7.227  0.1110  1.0802 -2.1217
  167SOPE   C3718849   0.730   1.071   7.228  0.4887  0.3100  0.6350
  167SOPE   H7X18850   0.716   0.976   7.173 -1.7229  2.0799 -2.1545
  167SOPE   H7Y18851   0.650   1.128   7.176 -0.2833 -0.6172  0.7683
  167SOPE   C3818852   0.687   1.054   7.379 -0.4603  0.1973  0.0890
  167SOPE   H8X18853   0.718   1.136   7.448  3.0764 -0.8009 -0.1179
  167SOPE   H8Y18854   0.727   0.962   7.426  0.3903  0.4219 -0.1853
  167SOPE   C3918855   0.538   1.045   7.390  0.5832 -0.2069 -0.3533
  167SOPE   H9X18856   0.511   0.946   7.347 -0.1207 -0.3374  0.3410
  167SOPE   H9Y18857   0.490   1.121   7.325  0.9886 -0.4637 -0.9577
  167SOPE  C31018858   0.489   1.068   7.538 -0.2505 -0.1120 -0.4498
  167SOPE  H10X18859   0.564   1.029   7.609 -0.0284  2.1288  0.6337
  167SOPE  H10Y18860   0.393   1.014   7.551  0.7119 -2.3115 -1.8132
  167SOPE  C31118861   0.477   1.217   7.586  0.0030 -0.1818 -0.1764
  167SOPE  H11X18862   0.399   1.266   7.524 -0.8993 -1.7384 -0.3266
  167SOPE  H11Y18863   0.580   1.253   7.566 -0.5538  1.0144 -0.9715
  167SOPE  C31218864   0.445   1.229   7.732 -0.1066  0.1595 -0.2063
  167SOPE  H12X18865   0.351   1.173   7.754  0.9900 -1.1050  1.4702
  167SOPE  H12Y18866   0.412   1.333   7.754 -0.9729 -0.7127  3.1950
  167SOPE  C31318867   0.547   1.193   7.841 -0.1485 -0.2212  0.6565
  167SOPE  H13X18868   0.627   1.269   7.837  2.0117 -2.3148  1.3131
  167SOPE  H13Y18869   0.588   1.090   7.832 -0.6136 -0.3814  0.3034
  167SOPE  C31418870   0.489   1.206   7.979  0.0203 -0.4360  0.3129
  167SOPE  H14X18871   0.399   1.141   7.988  0.9888 -1.7541  0.8725
  167SOPE  H14Y18872   0.468   1.313   7.998 -1.6276 -0.4591 -1.1227
  167SOPE  C31518873   0.588   1.156   8.093 -0.3205 -0.1462  0.0364
  167SOPE  H15X18874   0.685   1.210   8.092 -0.6033  0.3671 -0.3685
  167SOPE  H15Y18875   0.610   1.051   8.062  0.0097  1.0781 -4.7087
  167SOPE  C31618876   0.516   1.171   8.227 -0.5685 -0.3157 -0.6637
  167SOPE  H16X18877   0.418   1.118   8.225  0.4393 -2.3859  1.0101
  167SOPE  H16Y18878   0.507   1.279   8.253  1.0032 -0.7144  1.8922
  167SOPE  C31718879   0.593   1.093   8.338 -0.6515  0.3379 -0.3237
  167SOPE  H17X18880   0.560   1.120   8.440 -1.2485 -0.2533 -0.3519
  167SOPE  H17Y18881   0.700   1.122   8.328 -0.2895 -1.6907 -4.7581
  167SOPE  C31818882   0.596   0.937   8.323 -0.4540  0.2508 -1.2865
  167SOPE  H18X18883   0.665   0.891   8.397  0.4804  1.0755 -1.6096
  167SOPE  H18Y18884   0.637   0.894   8.229  0.2114 -2.3161  0.0734
  167SOPE  H18Z18885   0.493   0.899   8.340 -1.5306  2.3906 -2.6241
  168SOPE     N18886   4.942   2.011   5.820  0.9019 -0.5084 -0.0004
  168SOPE   HN118887   5.023   2.070   5.846  0.0763  0.5243  0.3138
  168SOPE   HN218888   4.972   1.911   5.818  3.7270  0.2648 -0.3368
  168SOPE   HN318889   4.917   2.031   5.721  0.0068 -1.8730 -0.0838
  168SOPE   C1218890   4.820   2.035   5.912  0.2484 -0.4280 -0.7351
  168SOPE  H12A18891   4.730   2.013   5.850 -1.0864 -2.4718  1.7615
  168SOPE  H12B18892   4.811   2.143   5.934 -0.5952 -0.1047 -2.4483
  168SOPE   C1118893   4.829   1.958   6.044  0.1225  0.1085 -0.4321
  168SOPE  H11A18894   4.727   1.963   6.089  1.5514  2.3258  3.0548
  168SOPE  H11B18895   4.894   2.009   6.118 -1.5747  2.6754 -0.5942
  168SOPE     P18896   4.886   1.729   6.151  0.0936 -0.0208 -0.3700
  168SOPE   O1318897   5.020   1.752   6.212  0.6438  0.2118  0.3201
  168SOPE   O1418898   4.848   1.586   6.110 -0.5801  0.1364  0.4279
  168SOPE   O1218899   4.877   1.824   6.022 -0.4605  0.1547  0.0983
  168SOPE   O1118900   4.781   1.780   6.253 -0.5280 -0.4763 -0.2081
  168SOPE    C118901   4.814   1.884   6.341 -0.9729  0.8036 -0.2386
  168SOPE    HA18902   4.726   1.952   6.349  0.1786  2.2376  0.9755
  168SOPE    HB18903   4.896   1.948   6.303 -0.0835 -1.2018 -1.8964
  168SOPE    C218904   4.847   1.839   6.483 -0.0709 -0.8624  0.4224
  168SOPE    HS18905   4.951   1.803   6.468  0.3429  0.6924 -0.6525
  168SOPE   O2118906   4.765   1.732   6.529  0.3644 -0.2837 -0.0349
  168SOPE   C2118907   4.830   1.648   6.611 -0.9940  0.1034 -0.7129
  168SOPE   O2218908   4.950   1.649   6.643 -0.1421 -0.0401  0.5027
  168SOPE   C2218909   4.729   1.539   6.641 -0.4919  0.0162  0.0879
  168SOPE   H2R18910   4.748   1.456   6.570 -0.2321  1.0879 -1.1499
  168SOPE   H2S18911   4.626   1.580   6.643 -1.1168 -1.5190  0.1279
  168SOPE    C318912   4.833   1.969   6.576  0.0719 -0.3832  0.0682
  168SOPE    HX18913   4.724   1.989   6.579  0.0588 -0.5981  1.8877
  168SOPE    HY18914   4.871   2.064   6.534 -0.3207  0.4944  1.6350
  168SOPE   O3118915   4.888   1.951   6.711  1.0288 -0.3406  0.7635
  168SOPE   C3118916   5.023   1.964   6.710  0.3490 -0.2427 -0.5499
  168SOPE   O3218917   5.096   1.977   6.614 -0.0052 -0.5767  0.1761
  168SOPE   C3218918   5.082   1.951   6.850 -0.0244  0.0026  0.3668
  168SOPE   H2X18919   5.190   1.976   6.838  0.2872 -1.3072  0.2992
  168SOPE   H2Y18920   5.064   1.844   6.873  1.8786 -0.5357 -0.4821
  168SOPE   C2318921   4.762   1.470   6.775 -0.7091 -0.3023  0.0481
  168SOPE   H3R18922   4.863   1.426   6.773 -0.7104 -0.2986 -1.5139
  168SOPE   H3S18923   4.694   1.381   6.774  0.3060 -1.1410  1.8364
  168SOPE   C2418924   4.722   1.560   6.899  0.1228  0.0732 -0.0543
  168SOPE   H4R18925   4.777   1.656   6.886 -0.4057  0.4989  0.7997
  168SOPE   H4S18926   4.618   1.597   6.887 -0.7251 -1.8153  1.0218
  168SOPE   C2518927   4.734   1.492   7.037  0.2511  0.2478 -0.5242
  168SOPE   H5R18928   4.654   1.417   7.053  0.3941  0.2854  0.3759
  168SOPE   H5S18929   4.836   1.449   7.043  0.2016  0.2782  0.8021
  168SOPE   C2618930   4.728   1.591   7.152  1.0544  0.0158 -0.1102
  168SOPE   H6R18931   4.814   1.662   7.148 -0.2744  1.6971 -0.2102
  168SOPE   H6S18932   4.629   1.642   7.148  0.8679  0.3664  4.2446
  168SOPE   C2718933   4.759   1.514   7.284  0.3324  0.1194  0.2199
  168SOPE   H7R18934   4.699   1.420   7.282 -0.5879  0.6937 -0.2595
  168SOPE   H7S18935   4.865   1.483   7.271  1.2875  3.6577 -1.5202
  168SOPE   C2818936   4.705   1.587   7.411 -0.3838  0.5368  0.3802
  168SOPE   H8R18937   4.764   1.675   7.444  0.7270 -0.5872  1.5286
  168SOPE   H8S18938   4.603   1.618   7.379  0.1517  0.4193 -1.5958
  168SOPE   C2918939   4.710   1.502   7.537  0.6201 -0.2783 -0.8072
  168SOPE   H9118940   4.809   1.471   7.571  1.0794  1.6725 -0.2105
  168SOPE  C21018941   4.600   1.473   7.622  0.1991  0.0342 -0.0024
  168SOPE  H10118942   4.634   1.431   7.719  1.2232 -0.6287 -0.6307
  168SOPE  C21118943   4.457   1.533   7.611 -0.0013 -0.4677 -0.2892
  168SOPE  H11R18944   4.448   1.614   7.535  0.5624 -0.2434 -0.1247
  168SOPE  H11S18945   4.432   1.589   7.703  0.9066  0.7162 -0.7314
  168SOPE  C21218946   4.360   1.429   7.563  0.5271 -0.2642  0.3630
  168SOPE  H12R18947   4.334   1.359   7.646  2.5907 -1.2597  0.2321
  168SOPE  H12S18948   4.406   1.368   7.482  3.5863  2.7750 -0.3986
  168SOPE  C21318949   4.219   1.482   7.535 -0.2201  0.5546  0.4220
  168SOPE  H13R18950   4.180   1.527   7.629  0.7200  0.0103  1.0860
  168SOPE  H13S18951   4.142   1.403   7.517 -0.4126  0.7722  0.2857
  168SOPE  C21418952   4.208   1.569   7.414  0.8286 -0.2204  0.0203
  168SOPE  H14R18953   4.275   1.657   7.426 -1.4900  1.8182 -1.0798
  168SOPE  H14S18954   4.110   1.621   7.403  0.6109 -0.3312  1.3111
  168SOPE  C21518955   4.227   1.495   7.282 -0.3588 -0.3541  0.4945
  168SOPE  H15R18956   4.163   1.405   7.280 -1.0427  0.1328  0.3022
  168SOPE  H15S18957   4.332   1.461   7.266 -1.4134 -2.2612 -4.0454
  168SOPE  C21618958   4.199   1.580   7.157 -0.0883  0.3527 -0.0898
  168SOPE  H16R18959   4.243   1.679   7.181  0.0957 -0.1424  1.8008
  168SOPE  H16S18960   4.088   1.581   7.155 -0.1327 -1.5837 -1.0746
  168SOPE  C21718961   4.229   1.505   7.026 -0.7046  0.2692 -0.2135
  168SOPE  H17R18962   4.178   1.407   7.017 -1.5653  0.5109  1.6341
  168SOPE  H17S18963   4.339   1.491   7.017 -0.4035  2.2530 -0.1093
  168SOPE  C21818964   4.194   1.589   6.906 -0.1301  0.2641  1.0260
  168SOPE  H18R18965   4.246   1.548   6.816  0.5778  0.2799  1.4221
  168SOPE  H18S18966   4.238   1.691   6.913  0.5130 -0.0193  1.1796
  168SOPE  H18T18967   4.084   1.597   6.892  0.0793  0.2197 -0.9220
  168SOPE   C3318968   5.001   2.023   6.958  0.0052 -0.4925  0.0935
  168SOPE   H3X18969   4.893   2.002   6.947 -0.1756  0.7218 -0.6669
  168SOPE   H3Y18970   5.008   2.134   6.953  0.3725 -0.4721  0.9806
  168SOPE   C3418971   5.027   1.979   7.098  0.0622 -0.4377 -0.1301
  168SOPE   H4X18972   5.015   1.869   7.099  1.2239 -0.5909  1.5560
  168SOPE   H4Y18973   4.948   2.015   7.168  0.4381 -0.9162  0.5611
  168SOPE   C3518974   5.166   2.020   7.158  0.2033 -0.1536 -0.5275
  168SOPE   H5X18975   5.197   2.107   7.096 -0.9636 -0.2985 -1.3498
  168SOPE   H5Y18976   5.235   1.942   7.119  0.2819 -0.3560  0.0076
  168SOPE   C3618977   5.166   2.023   7.312  0.1959  0.5953  0.1472
  168SOPE   H6X18978   5.114   1.929   7.340 -1.7712  1.5511 -0.0671
  168SOPE   H6Y18979   5.095   2.102   7.346 -1.0297 -0.0691 -0.8066
  168SOPE   C3718980   5.307   2.038   7.370 -0.0541 -0.5689  0.2116
  168SOPE   H7X18981   5.356   2.121   7.316 -2.1509  0.1754 -0.6615
  168SOPE   H7Y18982   5.373   1.949   7.365 -0.6782 -0.9622 -3.8413
  168SOPE   C3818983   5.304   2.080   7.516  0.5839 -0.1769  0.4886
  168SOPE   H8X18984   5.230   2.012   7.563  0.7412  0.8888  2.3799
  168SOPE   H8Y18985   5.265   2.184   7.524 -0.2592 -0.4161 -0.4068
  168SOPE   C3918986   5.442   2.079   7.582 -0.2725 -0.5421  0.1586
  168SOPE   H9X18987   5.504   2.138   7.511 -1.9834  1.5836  0.2940
  168SOPE   H9Y18988   5.485   1.977   7.589  1.0382  0.0623  1.4041
  168SOPE  C31018989   5.441   2.143   7.717  0.0622  0.0636 -0.4361
  168SOPE  H10X18990   5.344   2.109   7.758 -0.8676 -0.1721 -2.6684
  168SOPE  H10Y18991   5.428   2.253   7.703 -0.5322  0.1390  0.6413
  168SOPE  C31118992   5.562   2.110   7.804 -0.3177  0.3656 -0.2481
  168SOPE  H11X18993   5.640   2.169   7.751  0.4519  0.2630  0.7221
  168SOPE  H11Y18994   5.591   2.004   7.791 -0.2999  0.0139  2.1906
  168SOPE  C31218995   5.555   2.135   7.953  0.4652  0.1453 -0.5596
  168SOPE  H12X18996   5.653   2.135   8.005  0.5310 -2.3268 -0.5412
  168SOPE  H12Y18997   5.501   2.055   8.008 -1.8508 -0.9690 -4.0763
  168SOPE  C31318998   5.484   2.267   7.987  0.2575 -0.7068 -0.3945
  168SOPE  H13X18999   5.389   2.272   7.929 -1.6275  0.7270  2.5910
  168SOPE  H13Y19000   5.546   2.355   7.961  0.5221 -0.4792  0.9404
  168SOPE  C31419001   5.429   2.268   8.132  0.4292 -0.2532 -0.7683
  168SOPE  H14X19002   5.359   2.182   8.134  1.2317 -0.9248 -1.1549
  168SOPE  H14Y19003   5.385   2.369   8.150  3.4410  0.6576  2.5162
  168SOPE  C31519004   5.531   2.260   8.250  0.3646  0.4325  0.3558
  168SOPE  H15X19005   5.570   2.156   8.263  1.5319  0.8540  0.3810
  168SOPE  H15Y19006   5.493   2.292   8.350  1.4432  1.6627  0.4071
  168SOPE  C31619007   5.644   2.366   8.242 -0.9693  0.3089  0.2469
  168SOPE  H16X19008   5.591   2.463   8.229  0.4884  1.3251  1.5101
  168SOPE  H16Y19009   5.704   2.346   8.150 -1.4931 -1.7044  0.2902
  168SOPE  C31719010   5.732   2.381   8.363  0.3790 -0.5505  0.2098
  168SOPE  H17X19011   5.659   2.383   8.447 -0.0807 -0.9054 -0.1736
  168SOPE  H17Y19012   5.788   2.477   8.355  0.7118 -0.7302  0.3721
  168SOPE  C31819013   5.834   2.283   8.397 -0.0992 -0.1284  1.0017
  168SOPE  H18X19014   5.911   2.283   8.317  2.8685  1.4211  3.6232
  168SOPE  H18Y19015   5.801   2.177   8.397  0.9101 -0.4649  1.9200
  168SOPE  H18Z19016   5.895   2.319   8.482 -0.1587  1.8013  0.2818
  169SOPE     N19017   2.266   5.899   6.181  0.3377  0.4941  0.2587
  169SOPE   HN119018   2.248   5.999   6.205 -0.5305  0.3660  0.1878
  169SOPE   HN219019   2.354   5.896   6.127 -0.6661  0.5855 -1.4461
  169SOPE   HN319020   2.190   5.864   6.120 -0.3810  0.8780  0.9140
  169SOPE   C1219021   2.259   5.819   6.313 -0.1641 -0.1194 -0.2161
  169SOPE  H12A19022   2.341   5.855   6.379  0.6562 -2.3008  0.0288
  169SOPE  H12B19023   2.284   5.714   6.287  3.5236  0.6821 -0.3790
  169SOPE   C1119024   2.109   5.837   6.378 -1.0109 -0.3244 -0.2620
  169SOPE  H11A19025   2.114   5.943   6.411 -0.3028 -1.2455  2.8805
  169SOPE  H11B19026   2.118   5.775   6.469  1.3693  1.5994  0.9487
  169SOPE     P19027   1.951   5.662   6.253  0.3144 -0.0024  0.3135
  169SOPE   O1319028   2.016   5.565   6.337 -0.2009  0.3837  0.0619
  169SOPE   O1419029   1.949   5.630   6.109  0.3189 -0.1163 -0.2123
  169SOPE   O1219030   2.008   5.806   6.280 -0.2339 -0.1024  0.0065
  169SOPE   O1119031   1.805   5.666   6.310  0.1780 -0.2699  0.5165
  169SOPE    C119032   1.725   5.785   6.311 -0.8724  0.1354  0.2814
  169SOPE    HA19033   1.620   5.750   6.318 -0.6960 -0.3518  0.5746
  169SOPE    HB19034   1.737   5.843   6.218 -2.1084 -0.4173 -0.2506
  169SOPE    C219035   1.753   5.877   6.432  0.1850 -1.1090  0.0194
  169SOPE    HS19036   1.846   5.935   6.419 -0.4073 -0.2605 -0.5327
  169SOPE   O2119037   1.753   5.799   6.555 -0.0873 -0.0100  0.2516
  169SOPE   C2119038   1.791   5.860   6.664  0.1998  0.7697  0.6861
  169SOPE   O2219039   1.843   5.969   6.666 -0.3362  0.2426  0.5178
  169SOPE   C2219040   1.738   5.782   6.783  0.1031  0.4165 -0.0243
  169SOPE   H2R19041   1.765   5.674   6.776  0.7690  0.6445 -1.3426
  169SOPE   H2S19042   1.628   5.783   6.774 -0.0642  0.3335  1.6824
  169SOPE    C319043   1.641   5.981   6.425  0.8504  0.5449  0.8929
  169SOPE    HX19044   1.538   5.945   6.405  0.5489  1.9290 -0.2381
  169SOPE    HY19045   1.671   6.041   6.337  0.6991  0.4287  0.7636
  169SOPE   O3119046   1.645   6.081   6.524  0.1088 -0.1832 -0.6868
  169SOPE   C3119047   1.560   6.066   6.632  0.9077 -0.5024  0.7102
  169SOPE   O3219048   1.487   5.970   6.638 -0.0411  0.4229 -0.5045
  169SOPE   C3219049   1.549   6.188   6.728 -0.1264 -0.0057  0.3797
  169SOPE   H2X19050   1.445   6.222   6.743  0.3595  2.3742 -1.0654
  169SOPE   H2Y19051   1.590   6.274   6.670  0.7928 -0.7485 -0.1224
  169SOPE   C2319052   1.782   5.836   6.919 -0.4816  0.0612 -0.5900
  169SOPE   H3R19053   1.765   5.945   6.919  0.2053  0.1719 -0.5223
  169SOPE   H3S19054   1.891   5.818   6.931 -0.5882 -1.0779 -1.1796
  169SOPE   C2419055   1.709   5.764   7.031 -0.1090  0.7554  0.1415
  169SOPE   H4R19056   1.606   5.734   7.002  0.5728 -0.6349 -1.0341
  169SOPE   H4S19057   1.767   5.675   7.064  0.8877  1.9655  1.7996
  169SOPE   C2519058   1.700   5.851   7.154  0.4591  0.0409  0.6442
  169SOPE   H5R19059   1.802   5.880   7.186  0.6547  0.0006  0.0700
  169SOPE   H5S19060   1.647   5.946   7.131 -2.6841 -1.8694 -0.7123
  169SOPE   C2619061   1.626   5.784   7.270  0.6976 -0.5610 -0.2358
  169SOPE   H6R19062   1.523   5.763   7.233  0.7195 -1.1556  0.0361
  169SOPE   H6S19063   1.663   5.684   7.299 -2.4093 -1.5227  0.7978
  169SOPE   C2719064   1.626   5.875   7.387  0.3352  0.3966 -0.3392
  169SOPE   H7R19065   1.574   5.967   7.354 -1.0461  0.6964  2.3994
  169SOPE   H7S19066   1.551   5.828   7.455  0.2667 -1.3891 -1.5597
  169SOPE   C2819067   1.767   5.916   7.456 -0.2958  0.0845 -0.1314
  169SOPE   H8R19068   1.835   5.971   7.388 -0.5601  2.5125  1.4387
  169SOPE   H8S19069   1.737   5.991   7.533 -1.1243  0.5753 -0.9174
  169SOPE   C2919070   1.830   5.790   7.508  0.4380  0.9092  0.4495
  169SOPE   H9119071   1.885   5.730   7.434 -1.1380  0.9500 -0.8040
  169SOPE  C21019072   1.810   5.739   7.635 -0.3331  0.3882 -0.4332
  169SOPE  H10119073   1.866   5.645   7.652  1.6481  1.5724 -0.1165
  169SOPE  C21119074   1.744   5.793   7.757 -0.3159 -0.6018 -0.0445
  169SOPE  H11R19075   1.655   5.856   7.736 -0.4282  0.0300  2.1200
  169SOPE  H11S19076   1.810   5.858   7.818  0.4607  0.7414 -2.1912
  169SOPE  C21219077   1.702   5.681   7.852 -0.2623 -0.6200  0.4832
  169SOPE  H12R19078   1.645   5.603   7.796  1.3657 -2.2566  1.0078
  169SOPE  H12S19079   1.632   5.724   7.927 -1.0008 -1.8869  0.5590
  169SOPE  C21319080   1.808   5.604   7.928 -0.2871  0.4419  0.5042
  169SOPE  H13R19081   1.826   5.662   8.021 -0.6714 -0.2852  1.0413
  169SOPE  H13S19082   1.908   5.591   7.879 -0.4373  0.7773  0.1024
  169SOPE  C21419083   1.763   5.472   7.993  0.3596  0.3465 -0.5645
  169SOPE  H14R19084   1.725   5.400   7.917 -1.0164 -1.7231  1.9181
  169SOPE  H14S19085   1.676   5.493   8.059 -0.4787  2.0277 -2.1234
  169SOPE  C21519086   1.863   5.403   8.087  0.5970  0.6488 -0.5386
  169SOPE  H15R19087   1.891   5.473   8.168 -3.0965  1.3203  0.3386
  169SOPE  H15S19088   1.957   5.377   8.035  0.0537 -2.7779 -0.0277
  169SOPE  C21619089   1.801   5.276   8.149  0.1210 -0.8529  0.4362
  169SOPE  H16R19090   1.770   5.203   8.072 -1.9339  0.9698 -0.5576
  169SOPE  H16S19091   1.703   5.307   8.190  0.1584  0.7496 -0.6242
  169SOPE  C21719092   1.879   5.237   8.277 -0.4363 -0.8284  0.3327
  169SOPE  H17R19093   1.896   5.321   8.346 -1.0779  2.3050 -3.0074
  169SOPE  H17S19094   1.980   5.207   8.240  0.5944  0.9618  1.5436
  169SOPE  C21819095   1.817   5.122   8.347 -0.0527  0.1929  0.2108
  169SOPE  H18R19096   1.799   5.040   8.275 -0.1083 -1.3779  1.9592
  169SOPE  H18S19097   1.713   5.147   8.377  0.1367  0.6281  0.5200
  169SOPE  H18T19098   1.875   5.089   8.435  1.3210  1.4254 -0.1912
  169SOPE   C3319099   1.623   6.169   6.863 -0.3467 -0.5125  0.3893
  169SOPE   H3X19100   1.730   6.139   6.861 -0.1627  0.0804  1.0903
  169SOPE   H3Y19101   1.567   6.087   6.914 -0.1397 -0.4805  0.6721
  169SOPE   C3419102   1.627   6.294   6.952  0.0640  0.2890  0.3828
  169SOPE   H4X19103   1.523   6.335   6.952 -1.0538 -2.3049  1.5753
  169SOPE   H4Y19104   1.701   6.373   6.931 -1.8068  2.7465  2.3213
  169SOPE   C3519105   1.657   6.251   7.096  0.1910  0.4607  0.4078
  169SOPE   H5X19106   1.757   6.203   7.094  0.0971  0.2796 -0.1417
  169SOPE   H5Y19107   1.584   6.175   7.131  1.2493 -0.6205  0.2994
  169SOPE   C3619108   1.662   6.370   7.191 -0.4653  0.1109 -0.1196
  169SOPE   H6X19109   1.732   6.448   7.154  1.7802 -0.9656  1.6246
  169SOPE   H6Y19110   1.715   6.332   7.281 -0.2577 -1.4886 -0.8705
  169SOPE   C3719111   1.525   6.414   7.236  0.4840  0.5528 -0.1233
  169SOPE   H7X19112   1.472   6.329   7.283  1.3762  1.1592  2.1424
  169SOPE   H7Y19113   1.470   6.433   7.141  0.3114 -0.4740 -0.2320
  169SOPE   C3819114   1.519   6.534   7.321 -0.0301  0.0256 -0.6677
  169SOPE   H8X19115   1.576   6.607   7.258 -2.6595  1.0916 -1.9717
  169SOPE   H8Y19116   1.417   6.576   7.336  1.0576  2.4453  0.5138
  169SOPE   C3919117   1.598   6.529   7.453 -0.7378  0.0463 -1.2379
  169SOPE   H9X19118   1.586   6.629   7.500  0.7780 -0.6228  0.6753
  169SOPE   H9Y19119   1.704   6.518   7.420 -0.5352 -1.2600 -0.2049
  169SOPE  C31019120   1.546   6.425   7.552  1.1263  0.1537 -0.3194
  169SOPE  H10X19121   1.533   6.326   7.504 -0.4630  0.6077 -0.8776
  169SOPE  H10Y19122   1.444   6.451   7.587  0.4038  1.6051 -3.2453
  169SOPE  C31119123   1.637   6.406   7.672 -0.1540 -0.0172 -0.4215
  169SOPE  H11X19124   1.646   6.503   7.725 -3.2234 -0.8151  1.7812
  169SOPE  H11Y19125   1.740   6.372   7.645  0.6560  0.0380  2.3689
  169SOPE  C31219126   1.581   6.300   7.776 -0.0631 -0.3142  0.0023
  169SOPE  H12X19127   1.524   6.220   7.723 -2.7970  0.5279  1.4574
  169SOPE  H12Y19128   1.509   6.353   7.843  0.7079  0.3353  0.3322
  169SOPE  C31319129   1.693   6.247   7.875  0.8162  0.2690  0.1855
  169SOPE  H13X19130   1.755   6.337   7.894 -1.0547  2.0061 -1.4444
  169SOPE  H13Y19131   1.747   6.169   7.817  0.0140  0.3097 -0.6445
  169SOPE  C31419132   1.639   6.176   8.009  0.6080 -0.7470  0.1045
  169SOPE  H14X19133   1.584   6.083   7.983  0.4599 -1.1124  1.6420
  169SOPE  H14Y19134   1.573   6.243   8.069  0.0091  1.2463 -2.5614
  169SOPE  C31519135   1.745   6.125   8.110 -0.3909 -0.6270  0.5950
  169SOPE  H15X19136   1.698   6.080   8.201 -1.4437 -0.6906  0.0279
  169SOPE  H15Y19137   1.795   6.208   8.165 -0.3515 -1.0384  1.1960
  169SOPE  C31619138   1.834   6.020   8.043 -0.4687 -0.1823 -1.0169
  169SOPE  H16X19139   1.854   6.032   7.934  0.7438  0.1593 -0.7696
  169SOPE  H16Y19140   1.779   5.923   8.041 -0.6013 -0.0987 -1.6102
  169SOPE  C31719141   1.964   6.000   8.114 -0.2813  0.8883  0.4732
  169SOPE  H17X19142   2.024   6.093   8.121 -0.2076  0.8006  0.9758
  169SOPE  H17Y19143   2.009   5.918   8.054  0.5842  0.8769  1.1355
  169SOPE  C31819144   1.956   5.950   8.258  0.5213  0.4610  0.2042
  169SOPE  H18X19145   2.051   5.925   8.309 -0.2996 -0.5017  1.3082
  169SOPE  H18Y19146   1.901   5.854   8.268  2.5103 -0.8799 -0.9654
  169SOPE  H18Z19147   1.897   6.024   8.316  0.5398  1.4736 -1.0097
  170SOPE     N19148   1.797   2.502   6.093  0.4513 -0.0514 -0.1129
  170SOPE   HN119149   1.871   2.430   6.088  1.3772  0.8240  0.6102
  170SOPE   HN219150   1.720   2.459   6.037  1.5886  2.6621 -4.2309
  170SOPE   HN319151   1.817   2.585   6.034 -1.1092  0.7402  0.4133
  170SOPE   C1219152   1.762   2.513   6.243  0.8771 -0.1585 -0.4121
  170SOPE  H12A19153   1.708   2.418   6.264 -0.8211  0.9429  0.4649
  170SOPE  H12B19154   1.685   2.592   6.258 -1.2561 -1.6037 -2.7917
  170SOPE   C1119155   1.885   2.527   6.331 -0.2246  0.2606 -0.6302
  170SOPE  H11A19156   1.926   2.428   6.358 -0.0652  1.1682  3.0367
  170SOPE  H11B19157   1.840   2.573   6.421  1.4564 -0.3419  0.5743
  170SOPE     P19158   2.017   2.744   6.311  0.1204 -0.1163 -0.2119
  170SOPE   O1319159   1.898   2.835   6.293 -0.0116  0.0762  0.1946
  170SOPE   O1419160   2.142   2.787   6.248 -0.3004  0.0707 -0.4090
  170SOPE   O1219161   1.992   2.597   6.267  0.7075 -0.4039  0.4222
  170SOPE   O1119162   2.053   2.748   6.469 -0.1700  0.0293 -0.2706
  170SOPE    C119163   2.004   2.852   6.556  1.0611 -0.2389  0.7057
  170SOPE    HA19164   2.015   2.814   6.660  1.8270  0.0681  0.7448
  170SOPE    HB19165   1.901   2.883   6.528  1.1662  0.7845  1.4326
  170SOPE    C219166   2.090   2.984   6.555 -0.3430 -0.3148 -0.0140
  170SOPE    HS19167   2.112   3.020   6.453 -0.5629 -3.9857 -1.5338
  170SOPE   O2119168   2.213   2.942   6.622  0.0782 -0.1175 -0.3056
  170SOPE   C2119169   2.313   3.025   6.608  0.3632 -0.0292 -0.0757
  170SOPE   O2219170   2.311   3.139   6.562 -0.2634  0.2385  0.1709
  170SOPE   C2219171   2.430   2.959   6.680 -0.5695 -0.3019 -0.8805
  170SOPE   H2R19172   2.535   2.970   6.643  0.8197 -2.5388  1.9741
  170SOPE   H2S19173   2.409   2.851   6.695 -2.0715  0.3353  2.4744
  170SOPE    C319174   2.016   3.105   6.636  0.3505  0.3649  1.4207
  170SOPE    HX19175   1.925   3.123   6.574  0.6565 -1.6196  0.2769
  170SOPE    HY19176   2.084   3.192   6.644  1.6377 -0.6550  1.9343
  170SOPE   O3119177   1.973   3.063   6.764 -0.2570  0.3370 -0.5959
  170SOPE   C3119178   2.043   3.084   6.874 -0.6899  0.2111  0.9742
  170SOPE   O3219179   2.153   3.143   6.870 -0.0371 -0.7387  0.2161
  170SOPE   C3219180   1.971   3.042   6.996 -0.0210  0.5903 -0.3980
  170SOPE   H2X19181   1.871   3.000   6.972  0.6920 -0.5162 -1.5456
  170SOPE   H2Y19182   1.963   3.129   7.065 -0.8070  1.4768 -1.5542
  170SOPE   C2319183   2.445   3.020   6.822 -0.4728 -0.2517  0.3598
  170SOPE   H3R19184   2.344   3.022   6.867 -0.9864 -1.0486 -0.6887
  170SOPE   H3S19185   2.473   3.127   6.811  0.9508 -0.8321 -2.9457
  170SOPE   C2419186   2.552   2.950   6.912 -0.0039  0.3729  0.2714
  170SOPE   H4R19187   2.532   2.843   6.892 -0.3923  0.5258 -0.1888
  170SOPE   H4S19188   2.657   2.976   6.887  0.0913  0.1007  0.3872
  170SOPE   C2519189   2.532   2.987   7.061  0.8850  0.3576 -0.2790
  170SOPE   H5R19190   2.564   3.093   7.067  1.6932  0.1882 -1.2905
  170SOPE   H5S19191   2.426   2.980   7.094  2.0260  0.5682  3.9085
  170SOPE   C2619192   2.607   2.911   7.169 -0.7301  0.3172 -0.0035
  170SOPE   H6R19193   2.715   2.906   7.142 -0.9071 -0.7328 -0.5627
  170SOPE   H6S19194   2.598   2.975   7.259 -0.8718 -0.7715  0.7824
  170SOPE   C2719195   2.547   2.763   7.194 -0.5770 -0.8496  0.0818
  170SOPE   H7R19196   2.436   2.770   7.201 -0.4714  0.2100  1.0893
  170SOPE   H7S19197   2.570   2.701   7.105  3.3900  1.1206 -0.4737
  170SOPE   C2819198   2.612   2.691   7.311 -0.5209 -0.0827 -0.4755
  170SOPE   H8R19199   2.580   2.585   7.307  0.6028 -0.5297  1.4768
  170SOPE   H8S19200   2.721   2.686   7.290 -0.8591 -0.3965 -2.4028
  170SOPE   C2919201   2.572   2.735   7.450  0.1570  0.2103  0.7525
  170SOPE   H9119202   2.484   2.684   7.491 -1.9004  0.9931 -2.2671
  170SOPE  C21019203   2.624   2.836   7.521  0.1806  0.9794  0.2818
  170SOPE  H10119204   2.596   2.838   7.628 -0.7714 -1.3635  0.1423
  170SOPE  C21119205   2.741   2.926   7.479 -0.0436 -0.4567 -0.1666
  170SOPE  H11R19206   2.694   3.020   7.441  2.1228 -0.0078 -1.9332
  170SOPE  H11S19207   2.789   2.892   7.385  0.7247 -1.0105  0.4199
  170SOPE  C21219208   2.851   2.945   7.578  0.3353 -0.3708  0.3100
  170SOPE  H12R19209   2.941   2.972   7.519 -0.7263 -0.4332 -1.4034
  170SOPE  H12S19210   2.880   2.852   7.631 -0.7100  0.4431  2.4367
  170SOPE  C21319211   2.821   3.045   7.685  0.1400 -0.8956  0.3972
  170SOPE  H13R19212   2.735   3.013   7.748 -0.4392 -3.0109 -1.3533
  170SOPE  H13S19213   2.782   3.137   7.636  0.2819 -0.9598  0.1588
  170SOPE  C21419214   2.943   3.073   7.771  0.2707 -0.6398 -0.0319
  170SOPE  H14R19215   3.005   3.141   7.709 -0.8150  0.6898  0.2851
  170SOPE  H14S19216   3.005   2.986   7.801 -1.2763 -1.2912  1.4444
  170SOPE  C21519217   2.907   3.162   7.891 -0.1714 -0.4467  0.6451
  170SOPE  H15R19218   2.831   3.232   7.851  0.0691  0.9442  2.4904
  170SOPE  H15S19219   2.999   3.213   7.928 -0.1150 -0.0158 -0.0866
  170SOPE  C21619220   2.852   3.081   8.005  0.5200  0.9290  0.0016
  170SOPE  H16R19221   2.934   3.019   8.047 -0.1038  0.2618  0.2640
  170SOPE  H16S19222   2.781   3.011   7.955  2.0538  0.0897 -1.0791
  170SOPE  C21719223   2.800   3.166   8.117 -0.2196  0.5408 -0.0796
  170SOPE  H17R19224   2.708   3.215   8.078  0.6054  1.4151 -0.9880
  170SOPE  H17S19225   2.871   3.248   8.142  1.8418 -1.4388  0.8863
  170SOPE  C21819226   2.761   3.081   8.239 -0.6041 -0.2198 -0.3916
  170SOPE  H18R19227   2.726   3.149   8.320 -0.7920 -0.3103 -0.3950
  170SOPE  H18S19228   2.846   3.023   8.281 -0.8987 -0.9277 -0.7519
  170SOPE  H18T19229   2.671   3.019   8.219 -0.9563  0.1576  0.0058
  170SOPE   C3319230   2.063   2.942   7.071  0.6467 -0.4606 -0.3797
  170SOPE   H3X19231   2.169   2.973   7.084  0.3170 -0.5144  3.2403
  170SOPE   H3Y19232   2.068   2.844   7.020 -0.9369 -1.4901  1.3355
  170SOPE   C3419233   2.003   2.912   7.212  0.1717 -0.4415 -0.2602
  170SOPE   H4X19234   1.903   2.865   7.200 -1.1493  1.6620  1.7069
  170SOPE   H4Y19235   1.996   3.007   7.269  1.6204 -1.0992  1.0964
  170SOPE   C3519236   2.088   2.811   7.283  0.1230 -0.4628 -0.4776
  170SOPE   H5X19237   2.196   2.836   7.282  0.4556 -1.7069  0.7747
  170SOPE   H5Y19238   2.082   2.708   7.241  0.9102 -0.9147  0.4717
  170SOPE   C3619239   2.065   2.806   7.435 -0.3457  0.5364  0.5241
  170SOPE   H6X19240   1.968   2.755   7.449  0.5767 -2.0134 -1.4567
  170SOPE   H6Y19241   2.056   2.908   7.477 -1.7831  1.2502 -1.4000
  170SOPE   C3719242   2.178   2.723   7.508  0.3299 -0.3567  0.5307
  170SOPE   H7X19243   2.269   2.786   7.503  0.1172 -0.0502  0.4986
  170SOPE   H7Y19244   2.191   2.624   7.459  1.8532  0.0028  0.1369
  170SOPE   C3819245   2.154   2.717   7.660  0.0432  0.2007  0.1657
  170SOPE   H8X19246   2.194   2.627   7.711  1.9099  0.5418 -0.6158
  170SOPE   H8Y19247   2.044   2.721   7.679  0.4060  2.9152  2.2972
  170SOPE   C3919248   2.208   2.848   7.718 -0.1823 -0.0938  0.2171
  170SOPE   H9X19249   2.141   2.934   7.696  0.5950  0.6077  0.5310
  170SOPE   H9Y19250   2.308   2.866   7.674 -0.3664 -0.3782 -0.3179
  170SOPE  C31019251   2.244   2.845   7.867  0.1808  0.1035 -0.1965
  170SOPE  H10X19252   2.302   2.935   7.897  1.6347 -0.5926 -0.8363
  170SOPE  H10Y19253   2.308   2.757   7.888  0.6359  0.0828 -1.5777
  170SOPE  C31119254   2.109   2.835   7.932  0.2802  0.2481  0.2415
  170SOPE  H11X19255   2.061   2.737   7.911 -0.8738  1.0989 -1.2526
  170SOPE  H11Y19256   2.042   2.908   7.883  1.5443  0.7845 -0.7275
  170SOPE  C31219257   2.122   2.853   8.083  0.1098 -0.1519 -0.3424
  170SOPE  H12X19258   2.164   2.954   8.106  1.5358 -0.6513 -0.6485
  170SOPE  H12Y19259   2.200   2.780   8.113  0.9203  0.6982 -0.3182
  170SOPE  C31319260   1.996   2.844   8.160  0.2839 -0.1781  0.7007
  170SOPE  H13X19261   1.947   2.744   8.158 -1.2012  0.4654  2.4145
  170SOPE  H13Y19262   1.919   2.910   8.115  0.3390 -1.9015 -2.1835
  170SOPE  C31419263   2.003   2.885   8.303  0.2174 -0.1295  0.8183
  170SOPE  H14X19264   1.902   2.869   8.347  0.1764  0.4830  0.9579
  170SOPE  H14Y19265   2.019   2.995   8.313  1.5244 -0.2296  0.0499
  170SOPE  C31519266   2.110   2.816   8.395  0.0829  0.2143  0.4066
  170SOPE  H15X19267   2.215   2.831   8.362  0.2342 -2.6926 -0.7637
  170SOPE  H15Y19268   2.087   2.707   8.390 -0.4708  0.3854 -1.8117
  170SOPE  C31619269   2.084   2.867   8.541 -0.1798 -0.4271 -0.2356
  170SOPE  H16X19270   2.129   2.794   8.612  1.9465  0.1761 -0.8777
  170SOPE  H16Y19271   1.975   2.860   8.563 -0.2532 -0.4379 -0.5876
  170SOPE  C31719272   2.133   3.009   8.574  0.0796  0.4566 -0.3463
  170SOPE  H17X19273   2.109   3.085   8.496  0.7741  2.8327  1.6374
  170SOPE  H17Y19274   2.244   3.004   8.569  0.0327  0.0658 -1.2309
  170SOPE  C31819275   2.087   3.049   8.713  0.2078  0.0606  0.1594
  170SOPE  H18X19276   2.152   3.134   8.745 -1.6585  1.6766 -0.1074
  170SOPE  H18Y19277   2.113   2.968   8.784  0.1780 -1.2475 -1.2757
  170SOPE  H18Z19278   1.979   3.075   8.711 -0.2879 -1.8744  0.5563
  171SOPE     N19279   3.710   0.902   6.024 -0.4441 -0.1577  0.3851
  171SOPE   HN119280   3.650   0.830   5.979 -3.0785  0.8023  2.1602
  171SOPE   HN219281   3.809   0.876   6.043 -0.8786 -1.4794  0.9098
  171SOPE   HN319282   3.660   0.925   6.112 -0.3000  0.1725  0.3811
  171SOPE   C1219283   3.717   1.017   5.917 -0.0135 -0.2730 -0.0494
  171SOPE  H12A19284   3.614   1.045   5.886  0.1148 -0.5194 -0.7129
  171SOPE  H12B19285   3.783   0.988   5.833 -0.9986 -0.2594 -0.8391
  171SOPE   C1119286   3.774   1.150   5.980  0.4246 -0.1613 -0.0347
  171SOPE  H11A19287   3.710   1.182   6.066 -1.1362  0.3567 -1.3319
  171SOPE  H11B19288   3.767   1.229   5.902  1.5000 -0.6884 -0.6740
  171SOPE     P19289   3.990   1.246   6.096 -0.1053 -0.3844 -0.1306
  171SOPE   O1319290   3.912   1.372   6.072 -0.4256  0.0840  0.8008
  171SOPE   O1419291   4.128   1.245   6.046 -1.1248  0.7418 -0.2912
  171SOPE   O1219292   3.909   1.128   6.031 -0.2410 -0.1249  0.8311
  171SOPE   O1119293   3.984   1.229   6.248  0.0153 -0.0299 -0.1086
  171SOPE    C119294   3.906   1.120   6.306 -0.1346 -0.9189  0.0447
  171SOPE    HA19295   3.927   1.016   6.272 -0.2453 -0.7724 -0.4926
  171SOPE    HB19296   3.797   1.140   6.298  0.0987  0.6766  0.5113
  171SOPE    C219297   3.944   1.102   6.451  0.4404 -0.4276  0.2424
  171SOPE    HS19298   3.909   1.006   6.494 -2.4059  0.5125  0.2069
  171SOPE   O2119299   3.898   1.215   6.531 -0.2926  0.2603 -0.1113
  171SOPE   C2119300   3.774   1.186   6.578 -0.0747 -0.4591  0.4301
  171SOPE   O2219301   3.715   1.083   6.563  0.5442  0.0572  0.6698
  171SOPE   C2219302   3.720   1.304   6.655  0.9451  0.3550 -1.0334
  171SOPE   H2R19303   3.635   1.348   6.600 -3.1657 -0.3194  4.0164
  171SOPE   H2S19304   3.796   1.384   6.651  2.1428 -0.7679 -3.6610
  171SOPE    C319305   4.095   1.095   6.472 -0.3176 -0.0188  0.5000
  171SOPE    HX19306   4.134   1.188   6.425 -0.0266 -0.9337 -1.1437
  171SOPE    HY19307   4.129   1.006   6.416  0.1920  0.4869 -0.0074
  171SOPE   O3119308   4.131   1.098   6.608 -0.0866 -0.3887 -0.2525
  171SOPE   C3119309   4.266   1.082   6.614  0.3872 -0.0384 -0.7428
  171SOPE   O3219310   4.348   1.087   6.525 -0.3247 -0.5029  0.1697
  171SOPE   C3219311   4.302   1.042   6.763 -0.2771  0.1099 -0.0012
  171SOPE   H2X19312   4.404   1.081   6.780  0.0531  0.3162 -2.2071
  171SOPE   H2Y19313   4.314   0.932   6.755  2.0003  0.4284 -2.0546
  171SOPE   C2319314   3.683   1.271   6.797  0.7058  0.2078  0.9338
  171SOPE   H3R19315   3.606   1.191   6.797  1.9196 -1.0080  1.5400
  171SOPE   H3S19316   3.640   1.361   6.847  0.1841 -0.3699  1.5530
  171SOPE   C2419317   3.799   1.217   6.878 -0.2268 -0.0003  0.3440
  171SOPE   H4R19318   3.767   1.171   6.974  1.4370  0.7126  1.2796
  171SOPE   H4S19319   3.836   1.122   6.835 -3.4505 -1.0712 -0.3630
  171SOPE   C2519320   3.906   1.314   6.918 -0.6300  0.4640 -1.6281
  171SOPE   H5R19321   3.968   1.267   6.997 -1.9845 -1.0643 -1.4413
  171SOPE   H5S19322   3.970   1.354   6.835  0.4412  0.0758 -1.0119
  171SOPE   C2619323   3.850   1.443   6.989  0.8644 -0.4117 -0.0536
  171SOPE   H6R19324   3.924   1.514   7.031 -0.7554  1.8088 -0.7590
  171SOPE   H6S19325   3.792   1.512   6.923 -0.4692 -0.5483  0.9389
  171SOPE   C2719326   3.752   1.408   7.103 -0.5734  0.0461  0.6518
  171SOPE   H7R19327   3.659   1.364   7.060 -1.1874  1.0175  0.9496
  171SOPE   H7S19328   3.805   1.336   7.168 -1.0023 -2.0228 -1.1718
  171SOPE   C2819329   3.700   1.541   7.167 -0.2706  0.5781  0.0201
  171SOPE   H8R19330   3.678   1.615   7.087 -0.5696 -0.3767 -0.7913
  171SOPE   H8S19331   3.610   1.517   7.228 -2.1897  0.9386 -2.5160
  171SOPE   C2919332   3.807   1.606   7.254  0.4105 -0.0334 -0.7310
  171SOPE   H9119333   3.876   1.674   7.203  1.4056 -0.8805 -0.5594
  171SOPE  C21019334   3.831   1.577   7.388  0.1299  0.3829 -1.0025
  171SOPE  H10119335   3.900   1.640   7.446  0.3011 -1.5242  0.9603
  171SOPE  C21119336   3.747   1.483   7.470 -0.0762  0.2047 -0.0756
  171SOPE  H11R19337   3.723   1.393   7.411 -1.4264  1.4646 -1.5634
  171SOPE  H11S19338   3.653   1.535   7.499  0.1985  1.0032 -0.5664
  171SOPE  C21219339   3.826   1.429   7.585 -0.1102  0.5690 -0.5226
  171SOPE  H12R19340   3.922   1.383   7.552 -1.3192 -1.7768 -1.0027
  171SOPE  H12S19341   3.767   1.345   7.626  1.7241 -0.4871  0.0781
  171SOPE  C21319342   3.839   1.535   7.690  0.3076  0.2670 -0.5888
  171SOPE  H13R19343   3.769   1.618   7.666 -0.5310  0.4369  2.1717
  171SOPE  H13S19344   3.940   1.581   7.694 -0.2752  1.4990  0.4749
  171SOPE  C21419345   3.822   1.460   7.823 -0.1009 -0.4019  0.7487
  171SOPE  H14R19346   3.907   1.406   7.869 -0.2065 -1.4464 -0.2194
  171SOPE  H14S19347   3.738   1.388   7.815 -1.7278  1.4533  0.2192
  171SOPE  C21519348   3.789   1.565   7.930 -0.6449  0.1084 -0.2443
  171SOPE  H15R19349   3.710   1.635   7.896  1.6370  2.2474 -1.4098
  171SOPE  H15S19350   3.879   1.621   7.960 -0.6826 -1.0505  2.3201
  171SOPE  C21619351   3.718   1.498   8.051 -0.0109  0.5475 -1.0188
  171SOPE  H16R19352   3.626   1.444   8.020 -1.1925  1.2458  1.0419
  171SOPE  H16S19353   3.693   1.576   8.127  0.9317  0.6960 -0.8478
  171SOPE  C21719354   3.812   1.393   8.119  0.2333  0.6214 -0.5982
  171SOPE  H17R19355   3.912   1.432   8.147  1.3324 -2.4378  0.1146
  171SOPE  H17S19356   3.822   1.310   8.046 -4.2897 -1.0382  0.3305
  171SOPE  C21819357   3.752   1.340   8.254 -0.6411  0.2119  0.2784
  171SOPE  H18R19358   3.670   1.405   8.292 -0.6396  0.1135  0.4479
  171SOPE  H18S19359   3.833   1.333   8.329 -0.6144 -0.0609  0.2247
  171SOPE  H18T19360   3.717   1.237   8.235  2.9117 -0.9320 -0.8969
  171SOPE   C3319361   4.196   1.080   6.871 -0.3806  0.1424 -0.2806
  171SOPE   H3X19362   4.090   1.063   6.843 -1.1305  0.5380  2.0787
  171SOPE   H3Y19363   4.212   1.186   6.900 -1.3472  0.2451 -0.0858
  171SOPE   C3419364   4.217   1.004   6.995 -0.7265  0.7555 -0.0357
  171SOPE   H4X19365   4.323   1.005   7.026 -0.6860  0.1705 -0.1507
  171SOPE   H4Y19366   4.185   0.898   6.982  1.4985 -0.1058  1.0445
  171SOPE   C3519367   4.140   1.060   7.115  0.0819  0.6911 -0.1074
  171SOPE   H5X19368   4.036   1.089   7.089  0.3238  1.0028 -0.7655
  171SOPE   H5Y19369   4.190   1.153   7.150  2.0261 -1.2477  2.6870
  171SOPE   C3619370   4.152   0.973   7.245 -0.2277  0.4886 -0.1721
  171SOPE   H6X19371   4.255   0.931   7.244 -0.1922  0.5318  0.9287
  171SOPE   H6Y19372   4.101   0.874   7.235 -0.1407  0.0639  2.6514
  171SOPE   C3719373   4.122   1.041   7.375 -0.3648 -0.6193 -0.3875
  171SOPE   H7X19374   4.014   1.068   7.381 -0.4498 -1.1607  0.5952
  171SOPE   H7Y19375   4.165   1.143   7.389 -2.1191 -0.0537  1.2768
  171SOPE   C3819376   4.151   0.957   7.500 -0.4314  0.0804  0.9407
  171SOPE   H8X19377   4.261   0.948   7.501 -0.3677 -1.3522 -2.9396
  171SOPE   H8Y19378   4.100   0.859   7.498 -0.3439  0.0417 -0.8583
  171SOPE   C3919379   4.109   1.024   7.629 -0.3079  0.0814  0.6725
  171SOPE   H9X19380   3.999   1.037   7.618 -0.2367 -0.7432 -1.5252
  171SOPE   H9Y19381   4.142   1.130   7.637 -3.2729  1.1733 -0.4057
  171SOPE  C31019382   4.146   0.942   7.753  0.4774  0.5116  0.4209
  171SOPE  H10X19383   4.256   0.951   7.768  0.4110  0.2200  1.0986
  171SOPE  H10Y19384   4.125   0.833   7.744 -1.6586  1.0105 -1.5414
  171SOPE  C31119385   4.067   1.002   7.871  0.0374 -0.0456 -0.1615
  171SOPE  H11X19386   3.961   0.970   7.872 -0.3373  1.1637 -0.5075
  171SOPE  H11Y19387   4.074   1.111   7.854  0.7500 -0.1385 -0.4913
  171SOPE  C31219388   4.126   0.965   8.007 -0.3488  0.4124  0.0644
  171SOPE  H12X19389   4.231   1.001   8.000  0.4561 -2.0256 -1.8548
  171SOPE  H12Y19390   4.133   0.856   8.027  0.7870  0.4700  0.0708
  171SOPE  C31319391   4.060   1.030   8.129 -0.1279 -0.4755 -0.0159
  171SOPE  H13X19392   3.952   1.007   8.138  0.1759 -1.3909  1.8009
  171SOPE  H13Y19393   4.073   1.140   8.116  0.0110 -0.6942 -2.1270
  171SOPE  C31419394   4.133   0.982   8.252 -0.2775  0.1392  0.1102
  171SOPE  H14X19395   4.237   1.018   8.265 -0.2578  1.5320 -3.1034
  171SOPE  H14Y19396   4.141   0.873   8.231  1.4989  0.0348  1.1411
  171SOPE  C31519397   4.047   1.007   8.374  0.0148  0.2413 -0.1538
  171SOPE  H15X19398   3.957   0.943   8.355 -0.1762  0.5225 -0.1929
  171SOPE  H15Y19399   4.010   1.111   8.385  0.0134  0.3378 -0.9702
  171SOPE  C31619400   4.121   0.953   8.498 -0.7227  0.2222  0.0765
  171SOPE  H16X19401   4.046   0.979   8.577 -0.9294  0.5551 -0.2269
  171SOPE  H16Y19402   4.213   1.013   8.514  0.6067 -1.2371 -1.7623
  171SOPE  C31719403   4.140   0.796   8.502 -0.0021  0.0063 -0.0309
  171SOPE  H17X19404   4.238   0.777   8.453  0.1978 -0.0388  0.3798
  171SOPE  H17Y19405   4.060   0.748   8.443 -0.6803  0.9957  0.0625
  171SOPE  C31819406   4.147   0.746   8.640 -0.0994  0.4314  0.0121
  171SOPE  H18X19407   4.187   0.642   8.641  2.8217  1.4566  0.2483
  171SOPE  H18Y19408   4.054   0.733   8.699  1.5992 -3.1631  2.2902
  171SOPE  H18Z19409   4.208   0.816   8.702 -0.0584  0.5975 -0.2151
  172SOPE     N19410   3.225   2.261   6.582  0.0849  0.1357  0.5264
  172SOPE   HN119411   3.274   2.235   6.670 -1.0041 -1.3766  0.7355
  172SOPE   HN219412   3.216   2.177   6.521 -3.1202  0.8588 -0.1970
  172SOPE   HN319413   3.278   2.335   6.533  0.1267 -1.0008 -1.2389
  172SOPE   C1219414   3.085   2.315   6.601 -0.9231  0.2891  0.1560
  172SOPE  H12A19415   3.052   2.340   6.498 -2.2599  1.3216  0.8139
  172SOPE  H12B19416   3.104   2.408   6.658 -0.9836  0.6419 -0.3856
  172SOPE   C1119417   2.994   2.216   6.672  0.7280  0.8978  0.1694
  172SOPE  H11A19418   2.889   2.253   6.682 -0.5270 -1.2477 -3.2171
  172SOPE  H11B19419   3.046   2.196   6.768  0.3516 -0.7577  0.0590
  172SOPE     P19420   2.872   2.034   6.526 -0.0570  0.2558  0.0484
  172SOPE   O1319421   2.911   1.911   6.456  0.1878 -1.1746 -0.1133
  172SOPE   O1419422   2.807   2.142   6.445 -0.6772 -0.1071  0.6308
  172SOPE   O1219423   3.000   2.092   6.602  0.5749 -0.9235  0.0349
  172SOPE   O1119424   2.775   1.991   6.641  0.0587 -0.4347  0.2679
  172SOPE    C119425   2.826   1.919   6.753  0.5963 -0.3483  0.0390
  172SOPE    HA19426   2.851   1.985   6.839  1.5359  0.4908 -0.8427
  172SOPE    HB19427   2.912   1.852   6.730 -0.3284 -1.2717 -0.8523
  172SOPE    C219428   2.722   1.820   6.792  0.0860  0.3753 -0.0782
  172SOPE    HS19429   2.711   1.757   6.700 -1.3867  1.2630 -0.5501
  172SOPE   O2119430   2.598   1.889   6.825 -0.8917  0.2591  0.2919
  172SOPE   C2119431   2.493   1.815   6.802  0.0918 -0.0005  0.2521
  172SOPE   O2219432   2.494   1.699   6.759  0.3893 -0.3994 -0.3684
  172SOPE   C2219433   2.372   1.901   6.826  0.0139 -0.6455 -0.0658
  172SOPE   H2R19434   2.343   1.925   6.722 -2.0728 -2.3866  0.0544
  172SOPE   H2S19435   2.403   1.999   6.868 -0.4372 -0.4407 -0.2127
  172SOPE    C319436   2.753   1.729   6.918  0.3793 -0.3662 -0.3159
  172SOPE    HX19437   2.818   1.649   6.877  2.7356  0.8919  0.7289
  172SOPE    HY19438   2.660   1.675   6.946 -0.9738  0.7545 -2.3838
  172SOPE   O3119439   2.820   1.804   7.021 -0.5008 -0.4659  0.1559
  172SOPE   C3119440   2.752   1.834   7.130 -0.1672 -0.2355  0.1837
  172SOPE   O3219441   2.643   1.794   7.161  0.1836 -0.1958  0.2029
  172SOPE   C3219442   2.838   1.918   7.217 -0.1472 -0.8177 -0.3271
  172SOPE   H2X19443   2.829   2.023   7.180 -3.0554 -1.2125 -0.9738
  172SOPE   H2Y19444   2.943   1.887   7.196 -0.7217 -1.8400 -1.8658
  172SOPE   C2319445   2.254   1.835   6.894  0.7464 -0.4019  0.2392
  172SOPE   H3R19446   2.271   1.726   6.889 -2.3662 -0.9678 -0.2954
  172SOPE   H3S19447   2.163   1.859   6.834 -0.3256  0.9270  2.2418
  172SOPE   C2419448   2.228   1.879   7.042  0.1718  0.1979 -0.3729
  172SOPE   H4R19449   2.182   1.979   7.052  1.6319  0.7576  1.3766
  172SOPE   H4S19450   2.161   1.797   7.074 -0.1707  0.8701  0.6522
  172SOPE   C2519451   2.344   1.881   7.140  0.0541  0.4214  0.0034
  172SOPE   H5R19452   2.411   1.795   7.121  0.3975  0.6316  0.2593
  172SOPE   H5S19453   2.406   1.972   7.127 -0.2763  0.7220  0.4803
  172SOPE   C2619454   2.300   1.880   7.289 -0.1775  0.3576 -0.2018
  172SOPE   H6R19455   2.239   1.967   7.320 -0.3639 -0.2161  1.1430
  172SOPE   H6S19456   2.237   1.790   7.311 -1.5266  1.0497 -1.1475
  172SOPE   C2719457   2.415   1.891   7.384  0.4921 -0.4047 -0.5854
  172SOPE   H7R19458   2.490   1.811   7.367  2.7314  1.0126  1.7718
  172SOPE   H7S19459   2.472   1.983   7.360 -0.0238 -0.1127 -0.7034
  172SOPE   C2819460   2.369   1.900   7.531  0.2680 -0.2610 -0.1017
  172SOPE   H8R19461   2.330   2.002   7.551 -1.9152 -0.7332 -1.5444
  172SOPE   H8S19462   2.283   1.831   7.543  2.4588 -3.2120 -0.1730
  172SOPE   C2919463   2.473   1.852   7.619  0.8037 -0.1303 -0.3222
  172SOPE   H9119464   2.565   1.819   7.569  0.4964  0.1533 -1.0987
  172SOPE  C21019465   2.466   1.822   7.747  1.2453 -1.0345  0.0825
  172SOPE  H10119466   2.543   1.769   7.805  0.4194 -0.5261  1.7084
  172SOPE  C21119467   2.336   1.839   7.830  0.6593  0.4345  0.1404
  172SOPE  H11R19468   2.318   1.747   7.890 -1.0319  0.6553  0.0282
  172SOPE  H11S19469   2.248   1.864   7.768  0.1318 -2.3150 -0.3589
  172SOPE  C21219470   2.361   1.940   7.944  0.2652 -0.2795  0.0308
  172SOPE  H12R19471   2.358   2.044   7.905  0.8525 -0.1334  0.3617
  172SOPE  H12S19472   2.454   1.927   8.003  0.1680 -1.2113 -0.0076
  172SOPE  C21319473   2.246   1.922   8.052  0.0408 -0.3428 -0.8686
  172SOPE  H13R19474   2.265   1.995   8.134 -0.6296 -0.3578 -0.6886
  172SOPE  H13S19475   2.262   1.819   8.091 -1.8676 -0.6814 -0.8714
  172SOPE  C21419476   2.111   1.958   8.004 -0.2124 -0.0306  0.0485
  172SOPE  H14R19477   2.087   1.895   7.917  0.1251  0.6759 -0.5752
  172SOPE  H14S19478   2.117   2.065   7.975  1.1070  0.5125  2.0523
  172SOPE  C21519479   1.996   1.931   8.107  0.5368 -0.1370 -0.2239
  172SOPE  H15R19480   1.901   1.958   8.058 -1.1740 -0.8054  2.5275
  172SOPE  H15S19481   2.008   1.995   8.197 -0.5709 -0.1935 -0.0240
  172SOPE  C21619482   1.977   1.788   8.154  0.0647 -0.5304  0.4984
  172SOPE  H16R19483   1.874   1.784   8.195 -1.2001  2.2443 -2.0068
  172SOPE  H16S19484   2.048   1.770   8.237  1.7892  0.5127 -0.6833
  172SOPE  C21719485   1.996   1.683   8.036 -0.0121  0.4982 -0.3769
  172SOPE  H17R19486   2.094   1.680   7.984  0.5464 -1.6023  0.6676
  172SOPE  H17S19487   1.903   1.708   7.980  0.4261 -1.0747 -1.8913
  172SOPE  C21819488   1.958   1.547   8.095  0.0795  0.3872  0.0744
  172SOPE  H18R19489   2.042   1.506   8.156  1.2744  3.1827  0.4430
  172SOPE  H18S19490   1.935   1.472   8.016 -0.4083  0.1498  0.4418
  172SOPE  H18T19491   1.869   1.551   8.161 -0.8251 -2.5614 -0.7840
  172SOPE   C3319492   2.811   1.905   7.369  0.1825  0.1360 -0.7346
  172SOPE   H3X19493   2.819   1.799   7.401 -0.8087  0.2305 -0.1103
  172SOPE   H3Y19494   2.705   1.937   7.383  0.0433 -0.1796 -1.0372
  172SOPE   C3419495   2.915   1.983   7.457  0.2403 -0.3919  0.2625
  172SOPE   H4X19496   2.910   2.087   7.420  2.8919 -0.4383 -0.3709
  172SOPE   H4Y19497   3.014   1.944   7.427  1.6903  1.3672  2.4218
  172SOPE   C3519498   2.920   1.958   7.605  0.3247  0.5994  0.3744
  172SOPE   H5X19499   2.929   1.848   7.611 -0.9171  0.3713 -1.3864
  172SOPE   H5Y19500   2.818   1.976   7.644 -0.8429 -1.9463 -1.3082
  172SOPE   C3619501   3.028   2.045   7.675 -0.0979  0.2689 -0.0511
  172SOPE   H6X19502   2.992   2.149   7.663 -0.3688  0.0228 -1.6153
  172SOPE   H6Y19503   3.135   2.050   7.645  0.3040  1.9485  1.4543
  172SOPE   C3719504   3.038   2.011   7.827 -0.1760 -0.7565  0.2554
  172SOPE   H7X19505   3.098   1.919   7.839  0.1268 -0.5994 -0.0457
  172SOPE   H7Y19506   2.936   1.996   7.870 -0.8731 -1.1264 -1.4417
  172SOPE   C3819507   3.114   2.110   7.917 -0.1195  0.0777 -0.2273
  172SOPE   H8X19508   3.066   2.209   7.918 -0.8571 -0.2712  0.6357
  172SOPE   H8Y19509   3.217   2.112   7.874  0.0979  0.3551  0.2858
  172SOPE   C3919510   3.132   2.052   8.063  0.7377 -0.1244  0.3219
  172SOPE   H9X19511   3.175   1.951   8.046 -1.4462 -1.1697  0.6457
  172SOPE   H9Y19512   3.033   2.031   8.109  0.4504 -1.1633 -0.7176
  172SOPE  C31019513   3.216   2.149   8.153 -0.3855  0.9078  0.2804
  172SOPE  H10X19514   3.159   2.243   8.164  0.8694  1.7242 -0.0234
  172SOPE  H10Y19515   3.314   2.171   8.106  0.4078 -0.7587  1.0485
  172SOPE  C31119516   3.228   2.082   8.290 -0.8813 -0.7488 -0.0193
  172SOPE  H11X19517   3.136   2.034   8.331  0.9359 -2.6323  2.1189
  172SOPE  H11Y19518   3.236   2.159   8.370  0.7662  0.5254 -1.3637
  172SOPE  C31219519   3.353   1.997   8.304  0.2177 -0.6972  0.1853
  172SOPE  H12X19520   3.444   2.053   8.273  0.5571 -1.1955  0.2548
  172SOPE  H12Y19521   3.339   1.920   8.225 -3.6923  1.2142 -1.2162
  172SOPE  C31319522   3.364   1.940   8.446  0.7083 -0.3684 -0.1971
  172SOPE  H13X19523   3.290   1.858   8.463  1.7776 -0.8839  2.4636
  172SOPE  H13Y19524   3.341   2.013   8.527  1.4196  1.0008 -1.1837
  172SOPE  C31419525   3.500   1.881   8.473 -0.2329 -0.2716  0.3609
  172SOPE  H14X19526   3.584   1.954   8.470 -0.8232  0.4325  0.4772
  172SOPE  H14Y19527   3.524   1.798   8.403 -0.6922 -1.5499  1.6734
  172SOPE  C31519528   3.503   1.809   8.610 -0.1770 -0.9812  0.2084
  172SOPE  H15X19529   3.432   1.724   8.615 -0.7432 -0.6230 -1.3622
  172SOPE  H15Y19530   3.489   1.891   8.684 -1.7593  0.6554 -1.7915
  172SOPE  C31619531   3.637   1.741   8.647  0.4273  0.6560  0.6552
  172SOPE  H16X19532   3.720   1.813   8.635  0.8199  0.1802  0.5051
  172SOPE  H16Y19533   3.662   1.659   8.577 -2.1980  0.4247 -0.1202
  172SOPE  C31719534   3.629   1.674   8.786 -0.3478 -0.1339  0.6399
  172SOPE  H17X19535   3.539   1.609   8.789 -0.1432 -0.5898 -1.4018
  172SOPE  H17Y19536   3.628   1.745   8.872  1.6542 -1.0933  1.5087
  172SOPE  C31819537   3.741   1.574   8.806  0.1114  0.5620  0.1916
  172SOPE  H18X19538   3.737   1.534   8.909  1.1393 -0.1085 -0.0211
  172SOPE  H18Y19539   3.842   1.619   8.815 -0.6728  2.3206  0.6376
  172SOPE  H18Z19540   3.741   1.495   8.728  0.1106  1.7434 -1.0605
  173SAPI   C1219541   5.261   1.882  10.402 -0.0505 -0.4222  0.5583
  173SAPI    H219542   5.230   1.778  10.379 -0.8288  0.0281 -0.5027
  173SAPI    O219543   5.311   1.926  10.280 -0.0583  0.3561  0.1295
  173SAPI   HO219544   5.371   1.859  10.246 -0.9228 -1.4076  1.9166
  173SAPI   C1319545   5.142   1.957  10.447  0.0690  0.1215  0.3609
  173SAPI    H319546   5.094   1.909  10.535 -1.5355 -0.7131 -0.9119
  173SAPI    O319547   5.035   1.946  10.348 -0.5152  0.1831 -0.5236
  173SAPI   HO319548   5.081   1.971  10.268 -1.2387  3.9241  0.0094
  173SAPI   C1419549   5.178   2.097  10.482  0.1544 -0.0573  0.4404
  173SAPI    H419550   5.214   2.152  10.392  0.0432 -2.0609 -0.8945
  173SAPI    O419551   5.055   2.160  10.521  0.0512 -0.3316 -0.2051
  173SAPI   HO419552   4.989   2.168  10.451  0.8177 -1.6057 -1.1254
  173SAPI   C1519553   5.282   2.103  10.589  0.9199 -0.4369 -0.5010
  173SAPI    H519554   5.241   2.043  10.674 -1.3667 -0.2592 -1.3952
  173SAPI    O519555   5.312   2.239  10.637 -0.3199  0.7156  0.1830
  173SAPI   HO519556   5.408   2.243  10.630 -0.3733  0.2401 -1.4465
  173SAPI   C1619557   5.407   2.027  10.542 -0.2490  0.0198 -0.7063
  173SAPI    H619558   5.457   2.076  10.456 -1.3623 -2.3710 -2.8409
  173SAPI    O619559   5.494   2.017  10.651  0.5223 -0.2688  0.1596
  173SAPI   HO619560   5.585   2.002  10.623  0.3231  0.1939 -0.7630
  173SAPI   C1119561   5.367   1.880  10.504 -0.7075  0.4296 -0.3972
  173SAPI    H119562   5.326   1.840  10.599 -1.2529  3.5985  0.8014
  173SAPI     P19563   5.480   1.646  10.463 -0.3702  0.0071  0.2342
  173SAPI   O1319564   5.386   1.597  10.564  0.7841 -0.0016 -0.0383
  173SAPI   O1419565   5.615   1.589  10.473  0.0794 -0.1076  0.0457
  173SAPI   O1219566   5.490   1.807  10.471  0.8439  0.1310  0.6050
  173SAPI   O1119567   5.425   1.632  10.322  0.2551 -0.8293  0.5897
  173SAPI    C119568   5.508   1.593  10.209  0.2712 -0.0230 -0.0352
  173SAPI    HA19569   5.610   1.568  10.244 -0.2614 -0.0465  1.6040
  173SAPI    HB19570   5.467   1.498  10.168 -1.5079  0.1546  1.1870
  173SAPI    C219571   5.503   1.705  10.097  0.5390 -0.6850 -0.0191
  173SAPI    HS19572   5.582   1.682  10.022  0.3744  0.6058 -0.6246
  173SAPI   O2119573   5.529   1.840  10.145 -0.0368 -0.2928 -0.0907
  173SAPI   C2119574   5.641   1.863  10.197  0.3194  0.1435 -0.8672
  173SAPI   O2219575   5.719   1.774  10.234 -0.2819 -0.0740  0.0296
  173SAPI   C2219576   5.667   2.010  10.220 -0.1785  0.1847 -0.8316
  173SAPI   H2R19577   5.587   2.065  10.167  0.2653  0.0513 -1.6562
  173SAPI   H2S19578   5.652   2.034  10.327 -2.5261 -0.4055 -0.9602
  173SAPI    C319579   5.363   1.719  10.026 -0.1611 -0.0658  1.0511
  173SAPI    HX19580   5.295   1.761  10.103 -1.9714  0.5109 -0.7697
  173SAPI    HY19581   5.325   1.618  10.001  1.3861 -0.5928  0.6716
  173SAPI   O3119582   5.349   1.805   9.917  1.0232  0.5208 -0.2259
  173SAPI   C3119583   5.410   1.775   9.809 -0.0027  0.1709  0.0441
  173SAPI   O3219584   5.492   1.683   9.804 -0.9917  0.7515  0.5986
  173SAPI   C3219585   5.366   1.866   9.696 -0.2110 -0.0488 -0.1736
  173SAPI   H2X19586   5.438   1.948   9.675 -1.5822  1.0998 -0.5555
  173SAPI   H2Y19587   5.285   1.933   9.733  3.0941  4.1027  0.3313
  173SAPI   C2319588   5.809   2.064  10.187 -0.4088 -0.4130 -0.3029
  173SAPI   H3R19589   5.891   2.013  10.242 -0.4929  0.5646  0.7678
  173SAPI   H3S19590   5.815   2.172  10.213  1.0692 -0.7568  0.9669
  173SAPI   C2419591   5.836   2.071  10.035 -0.5625 -0.1202 -0.2117
  173SAPI   H4R19592   5.929   2.131  10.025  0.1364 -0.9058  1.1628
  173SAPI   H4S19593   5.746   2.123   9.997  0.0685 -2.0163 -4.9679
  173SAPI   C2519594   5.847   1.933   9.971 -0.6641 -0.4905 -0.0628
  173SAPI   H5R19595   5.911   1.858  10.021  0.7387 -0.0239 -1.0927
  173SAPI   C2619596   5.796   1.912   9.842 -0.5337  0.6618 -1.0373
  173SAPI   H6R19597   5.801   1.815   9.791 -1.4671 -0.1519  0.3814
  173SAPI   C2719598   5.739   2.024   9.763 -0.0602  0.5666 -0.1305
  173SAPI   H7R19599   5.797   2.115   9.788  0.1365 -0.2002  2.5160
  173SAPI   H7S19600   5.636   2.034   9.806 -0.5708 -2.3512 -0.4921
  173SAPI   C2819601   5.732   2.005   9.613 -0.2915  0.3901 -0.5906
  173SAPI   H8R19602   5.668   1.919   9.587  0.1322 -0.1862  0.2242
  173SAPI   C2919603   5.793   2.080   9.517 -0.6574 -0.2079 -0.4487
  173SAPI   H9R19604   5.769   2.051   9.414  1.3967  1.2249 -1.4026
  173SAPI  C21019605   5.886   2.202   9.526  0.0076  0.2713 -0.1392
  173SAPI  H10R19606   5.954   2.196   9.438 -0.2210  3.7114 -0.7248
  173SAPI  H10S19607   5.952   2.206   9.616  1.9635  0.1090 -1.5052
  173SAPI  C21119608   5.813   2.332   9.529  0.6170 -0.1496 -0.3655
  173SAPI  H11R19609   5.784   2.361   9.631  0.6554  0.5243 -0.5467
  173SAPI  C21219610   5.779   2.409   9.423  0.1442  0.3927  0.0842
  173SAPI  H12R19611   5.732   2.506   9.443 -0.0425 -0.1792  2.7964
  173SAPI  C21319612   5.802   2.373   9.279  0.6300  0.7058 -0.4834
  173SAPI  H13R19613   5.871   2.288   9.264  1.1306  1.0361 -0.0928
  173SAPI  H13S19614   5.853   2.450   9.218 -1.5123  3.3882  0.8664
  173SAPI  C21419615   5.662   2.331   9.230 -0.3009  0.2906 -0.4006
  173SAPI  H14R19616   5.620   2.242   9.279 -0.2438 -0.1305 -1.0980
  173SAPI  C21519617   5.581   2.394   9.146  0.2900  0.2880  0.4721
  173SAPI  H15R19618   5.478   2.360   9.127  0.7883 -0.8078 -0.3943
  173SAPI  C21619619   5.615   2.524   9.066 -0.4001 -0.2056 -0.5810
  173SAPI  H16R19620   5.660   2.499   8.968 -0.2893 -1.4346 -0.2340
  173SAPI  H16S19621   5.676   2.591   9.129  1.5361 -0.9868 -1.5555
  173SAPI  C21719622   5.491   2.606   9.045 -0.7997 -0.3198 -0.2600
  173SAPI  H17R19623   5.450   2.646   9.140 -2.4991  1.4611 -1.6718
  173SAPI  H17S19624   5.415   2.538   9.000 -2.6980  0.4152  1.6601
  173SAPI  C21819625   5.513   2.741   8.961  0.1766 -0.7908 -0.1372
  173SAPI  H18R19626   5.410   2.783   8.962 -1.2163 -3.6889 -2.9613
  173SAPI  H18S19627   5.536   2.720   8.854 -1.8000 -0.2363 -0.7055
  173SAPI  C21919628   5.609   2.848   9.020  0.4109 -1.1644  0.0660
  173SAPI  H19R19629   5.716   2.835   8.993  0.2732 -1.0057 -0.5729
  173SAPI  H19S19630   5.611   2.842   9.131  0.6300 -0.0246  0.1302
  173SAPI  C22019631   5.567   2.992   8.982  0.1286  0.2930  0.2047
  173SAPI  H20R19632   5.618   3.074   9.037  0.0549 -0.6450  1.7302
  173SAPI  H20S19633   5.459   3.003   9.006  0.0009  0.7156 -0.5422
  173SAPI  H20T19634   5.593   3.014   8.877 -1.2939  1.5347  0.0806
  173SAPI   C3319635   5.330   1.789   9.569  0.1560 -0.3205  0.3558
  173SAPI   H3X19636   5.274   1.695   9.592 -1.0479  0.6838  1.6742
  173SAPI   H3Y19637   5.424   1.768   9.514 -0.1628  2.6206 -1.5135
  173SAPI   C3419638   5.249   1.875   9.475 -0.2654 -1.4020 -0.1120
  173SAPI   H4X19639   5.258   1.825   9.375  1.9907 -3.4605  1.0176
  173SAPI   H4Y19640   5.297   1.974   9.460  0.0844 -1.5549  0.0161
  173SAPI   C3519641   5.104   1.883   9.526  0.0411 -0.2457  0.3458
  173SAPI   H5X19642   5.090   1.966   9.598  0.3927  1.5551 -1.5618
  173SAPI   H5Y19643   5.078   1.790   9.580 -0.2435 -0.0078  0.6229
  173SAPI   C3619644   5.013   1.921   9.409  0.0508  0.0079 -0.3376
  173SAPI   H6X19645   4.995   1.840   9.335  1.4049 -0.7199  0.0983
  173SAPI   H6Y19646   5.069   2.006   9.364 -1.8750  1.8837  0.5945
  173SAPI   C3719647   4.874   1.982   9.445 -0.2032 -0.7936  0.0466
  173SAPI   H7X19648   4.878   2.039   9.540  1.6016 -2.3281  0.9517
  173SAPI   H7Y19649   4.793   1.906   9.456  0.0795 -1.1502 -0.2836
  173SAPI   C3819650   4.814   2.071   9.331  0.0852 -0.9449 -0.3484
  173SAPI   H8X19651   4.871   2.167   9.328 -2.5216  0.6765 -0.6052
  173SAPI   H8Y19652   4.713   2.106   9.360  0.4698  0.2851 -0.4418
  173SAPI   C3919653   4.810   1.999   9.196  0.2649 -0.1635 -0.7201
  173SAPI   H9X19654   4.744   1.910   9.191 -2.2038  1.4894  0.3946
  173SAPI   H9Y19655   4.916   1.977   9.167  0.2357 -2.9987  0.9956
  173SAPI  C31019656   4.765   2.082   9.073  0.3565  0.3947 -0.2982
  173SAPI  H10X19657   4.771   2.193   9.071 -0.6042  0.4430 -1.8197
  173SAPI  H10Y19658   4.657   2.062   9.055  0.1409  2.3204 -1.3600
  173SAPI  C31119659   4.832   2.019   8.948  0.2154  0.5499 -0.4041
  173SAPI  H11X19660   4.825   1.908   8.948 -2.1842  0.6481 -1.0893
  173SAPI  H11Y19661   4.940   2.046   8.940  0.6421 -0.5853  0.9897
  173SAPI  C31219662   4.773   2.068   8.820  0.7025 -0.3299 -0.0904
  173SAPI  H12X19663   4.784   2.178   8.819  3.2299 -0.5372  0.1241
  173SAPI  H12Y19664   4.666   2.036   8.820  0.9685 -1.3293  1.6269
  173SAPI  C31319665   4.853   2.031   8.693 -0.0817 -0.4514 -0.1915
  173SAPI  H13X19666   4.948   2.088   8.696  0.0349 -0.6435 -0.3189
  173SAPI  H13Y19667   4.803   2.046   8.595  2.3534  1.4610 -1.2478
  173SAPI  C31419668   4.893   1.883   8.681 -0.2098  0.3642  0.4214
  173SAPI  H14X19669   4.886   1.852   8.575  0.5384  0.9293  0.1957
  173SAPI  H14Y19670   4.822   1.825   8.743 -2.0211  0.8761 -1.0827
  173SAPI  C31519671   5.041   1.852   8.733  0.2175 -0.3308 -0.1766
  173SAPI  H15X19672   5.046   1.741   8.736  2.5541 -0.3369 -1.8162
  173SAPI  H15Y19673   5.055   1.883   8.838 -1.4752  2.4196 -0.6709
  173SAPI  C31619674   5.146   1.914   8.637  0.5766  0.2512  0.7626
  173SAPI  H16X19675   5.103   1.987   8.566 -1.5548 -0.4654  1.2572
  173SAPI  H16Y19676   5.175   1.836   8.562 -0.6434  1.7860 -1.4145
  173SAPI  C31719677   5.266   1.993   8.693 -0.0379 -0.2975  0.3059
  173SAPI  H17X19678   5.350   1.930   8.729 -0.1226 -0.9425 -0.6023
  173SAPI  H17Y19679   5.241   2.050   8.785  2.2954 -1.1576  1.5639
  173SAPI  C31819680   5.331   2.083   8.588 -0.0707 -0.0545  0.1309
  173SAPI  H18X19681   5.377   2.175   8.629 -3.1938  2.2063 -0.9703
  173SAPI  H18Y19682   5.257   2.119   8.513  0.1422 -0.7811 -0.4334
  173SAPI  H18Z19683   5.413   2.028   8.537 -0.6051 -0.0198 -0.7895
  174SAPI   C1219684   1.935   2.124  10.791 -0.2908  0.3899  0.2939
  174SAPI    H219685   1.906   2.177  10.698  1.4737 -0.6843 -0.9458
  174SAPI    O219686   1.838   2.147  10.898  0.2453  0.4126  0.5599
  174SAPI   HO219687   1.769   2.190  10.848  1.3578  0.1012 -1.3720
  174SAPI   C1319688   1.960   1.978  10.757 -0.0847 -0.3301  0.2799
  174SAPI    H319689   2.032   1.978  10.674  2.0384  2.6240  1.9537
  174SAPI    O319690   1.839   1.919  10.719 -0.5459 -0.4516  0.3659
  174SAPI   HO319691   1.849   1.851  10.652  0.2964  1.2537 -1.3454
  174SAPI   C1419692   2.019   1.906  10.877  0.6069  0.7754 -0.0472
  174SAPI    H419693   1.939   1.915  10.953 -0.6644 -1.0977 -1.0905
  174SAPI    O419694   2.044   1.773  10.853  0.0963  0.2582  0.4171
  174SAPI   HO419695   1.963   1.725  10.833 -0.2108  0.6989  0.5961
  174SAPI   C1519696   2.142   1.976  10.928 -0.3600  0.9493 -0.1070
  174SAPI    H519697   2.222   1.960  10.853  1.1181 -1.0280  1.7641
  174SAPI    O519698   2.198   1.912  11.048 -0.1085 -0.8018 -0.3829
  174SAPI   HO519699   2.254   1.981  11.084 -0.5349 -0.7729  0.2313
  174SAPI   C1619700   2.129   2.121  10.950  0.2901 -0.4769 -0.1840
  174SAPI    H619701   2.057   2.128  11.034  1.9300 -0.9859  1.3342
  174SAPI    O619702   2.253   2.172  10.989  0.0972  0.1141  0.2377
  174SAPI   HO619703   2.317   2.156  10.920  1.4418  0.2901  1.3862
  174SAPI   C1119704   2.066   2.191  10.829  0.3052 -0.6152 -0.4516
  174SAPI    H119705   2.134   2.166  10.744  0.6056  1.0378 -0.7399
  174SAPI     P19706   2.157   2.440  10.809 -0.2055  0.4216  0.4461
  174SAPI   O1319707   2.268   2.371  10.743  0.2935 -0.3077  0.1162
  174SAPI   O1419708   2.186   2.523  10.924  0.3948 -0.3229  0.1903
  174SAPI   O1219709   2.040   2.336  10.851 -1.1220  0.1002  0.0388
  174SAPI   O1119710   2.079   2.529  10.709  0.1843  0.2210  0.6193
  174SAPI    C119711   2.053   2.486  10.569  0.3424 -0.0622 -0.5047
  174SAPI    HA19712   2.033   2.377  10.576  1.2258 -0.1860  0.5297
  174SAPI    HB19713   1.957   2.536  10.546  0.3514  0.5036  0.6211
  174SAPI    C219714   2.171   2.511  10.473  0.2859 -0.0229  0.1887
  174SAPI    HS19715   2.259   2.450  10.504  1.6258  0.6312 -2.1187
  174SAPI   O2119716   2.199   2.653  10.484  0.1687  0.0991  0.3739
  174SAPI   C2119717   2.313   2.686  10.431  0.1549 -0.4303  0.3315
  174SAPI   O2219718   2.401   2.606  10.391  0.1778  0.5542  0.2888
  174SAPI   C2219719   2.331   2.836  10.458 -0.2339  0.1823  0.3617
  174SAPI   H2R19720   2.238   2.897  10.455  0.1562  0.8424  1.0923
  174SAPI   H2S19721   2.370   2.850  10.561  1.0383 -0.7105  0.0188
  174SAPI    C319722   2.136   2.471  10.322  0.0264  0.4975 -0.0295
  174SAPI    HX19723   2.129   2.361  10.333  1.2300  0.4855  0.8344
  174SAPI    HY19724   2.224   2.487  10.256  1.2386 -0.6297  1.2438
  174SAPI   O3119725   2.008   2.525  10.261 -0.8359 -0.4270 -0.0963
  174SAPI   C3119726   1.953   2.443  10.179 -0.0329  0.2468  0.1395
  174SAPI   O3219727   1.996   2.337  10.136  0.5535  0.0460 -0.4597
  174SAPI   C3219728   1.821   2.517  10.134  0.0983 -0.3540 -0.8015
  174SAPI   H2X19729   1.862   2.620  10.129  4.0528 -1.7423 -0.6350
  174SAPI   H2Y19730   1.747   2.502  10.216  1.4096 -0.9647  0.3039
  174SAPI   C2319731   2.439   2.888  10.356  0.5533  0.7439  0.4919
  174SAPI   H3R19732   2.532   2.828  10.366 -0.9764 -1.7489  0.5543
  174SAPI   H3S19733   2.461   2.992  10.389 -1.5897  1.2110  0.5949
  174SAPI   C2419734   2.392   2.896  10.210 -0.0929  0.0123 -0.4437
  174SAPI   H4R19735   2.290   2.941  10.218  0.2160  0.9025 -1.2845
  174SAPI   H4S19736   2.380   2.797  10.162 -1.3731  0.9078 -2.0984
  174SAPI   C2519737   2.477   2.974  10.116  0.7965  0.0012 -0.3455
  174SAPI   H5R19738   2.500   3.073  10.157 -2.6516 -0.6255  3.7403
  174SAPI   C2619739   2.539   2.932  10.011  0.9795  0.1616 -0.1051
  174SAPI   H6R19740   2.605   3.002   9.958 -2.1856  0.5448 -3.9695
  174SAPI   C2719741   2.520   2.801   9.932 -0.1541  0.7649  0.1774
  174SAPI   H7R19742   2.510   2.722  10.010  1.6636  0.0331 -0.2586
  174SAPI   H7S19743   2.607   2.767   9.872 -0.7953  1.1165 -0.9789
  174SAPI   C2819744   2.402   2.812   9.841 -0.5108  0.6433 -1.7498
  174SAPI   H8R19745   2.308   2.769   9.879  0.8517  1.5368  3.2624
  174SAPI   C2919746   2.409   2.847   9.709 -0.5403 -0.2217 -0.2336
  174SAPI   H9R19747   2.325   2.826   9.642 -1.3646  0.3414  0.5996
  174SAPI  C21019748   2.529   2.906   9.642  0.7781 -0.1112 -0.2306
  174SAPI  H10R19749   2.601   2.945   9.716 -0.4541 -0.9207  1.4766
  174SAPI  H10S19750   2.507   2.980   9.563  0.8212  1.4393  1.1640
  174SAPI  C21119751   2.602   2.795   9.582  0.2222 -0.7076  0.1440
  174SAPI  H11R19752   2.619   2.715   9.655  0.1706 -0.7477  0.1125
  174SAPI  C21219753   2.649   2.783   9.457  0.0553 -0.0611 -0.4242
  174SAPI  H12R19754   2.704   2.692   9.432 -2.3445 -1.1814 -2.0365
  174SAPI  C21319755   2.633   2.883   9.340  0.1746  0.1568  0.8590
  174SAPI  H13R19756   2.705   2.966   9.355  0.9609  0.4269 -3.2425
  174SAPI  H13S19757   2.531   2.928   9.343  0.1274  0.0302  1.2344
  174SAPI  C21419758   2.662   2.827   9.202 -0.1036  0.5321 -0.7115
  174SAPI  H14R19759   2.737   2.747   9.200 -1.2753 -0.8079  2.7399
  174SAPI  C21519760   2.601   2.862   9.086 -0.9506 -0.7539 -0.0499
  174SAPI  H15R19761   2.628   2.807   8.995 -1.3606  1.3018 -1.4884
  174SAPI  C21619762   2.489   2.959   9.062  0.1800  0.2649 -0.1085
  174SAPI  H16R19763   2.452   3.004   9.157 -2.7235  1.1799 -1.5487
  174SAPI  H16S19764   2.397   2.904   9.031 -1.2064  2.6051 -0.4319
  174SAPI  C21719765   2.518   3.070   8.962  0.1608  0.1548  0.2329
  174SAPI  H17R19766   2.587   3.144   9.009  2.1361  0.8429 -3.4014
  174SAPI  H17S19767   2.427   3.130   8.937 -2.4947 -3.3758  0.6193
  174SAPI  C21819768   2.584   3.024   8.831  0.8961 -0.0025  0.1112
  174SAPI  H18R19769   2.672   2.958   8.844  0.5987 -0.1601  1.5124
  174SAPI  H18S19770   2.625   3.123   8.801 -0.7065  0.9698  0.9384
  174SAPI  C21919771   2.487   2.980   8.720 -0.8370 -0.0166  0.6853
  174SAPI  H19R19772   2.540   2.979   8.622  0.1816 -1.5069  1.2249
  174SAPI  H19S19773   2.402   3.052   8.715  0.2001  1.2425  0.7421
  174SAPI  C22019774   2.433   2.835   8.743  0.3766 -0.4426 -0.0849
  174SAPI  H20R19775   2.367   2.845   8.832  2.0113  1.0130  1.0210
  174SAPI  H20S19776   2.519   2.784   8.791 -0.5902 -1.3975  0.6755
  174SAPI  H20T19777   2.379   2.790   8.657 -1.2438  0.9055  0.1562
  174SAPI   C3319778   1.765   2.477   9.995 -0.1565 -0.0137 -0.5487
  174SAPI   H3X19779   1.836   2.490   9.911  0.8659  0.3670  0.3434
  174SAPI   H3Y19780   1.673   2.539   9.982  0.1185  0.4200 -0.4362
  174SAPI   C3419781   1.723   2.332   9.993 -0.9774 -0.6101  0.0632
  174SAPI   H4X19782   1.663   2.304  10.082  3.7721 -1.4574  3.3511
  174SAPI   H4Y19783   1.808   2.261   9.991 -2.2982 -2.2718  0.4102
  174SAPI   C3519784   1.630   2.302   9.877 -0.6328 -0.3593  0.2204
  174SAPI   H5X19785   1.542   2.370   9.885  0.0887  0.7029 -0.7044
  174SAPI   H5Y19786   1.591   2.198   9.883  2.7460 -1.8443 -1.5118
  174SAPI   C3619787   1.709   2.311   9.746  0.4298 -0.0782 -0.5371
  174SAPI   H6X19788   1.803   2.253   9.751  0.9253  0.7869  0.5635
  174SAPI   H6Y19789   1.753   2.413   9.732  1.9837 -0.9233 -2.2624
  174SAPI   C3719790   1.618   2.271   9.632 -0.4929  0.1388 -0.2906
  174SAPI   H7X19791   1.529   2.337   9.630  1.4244  3.0686  1.8750
  174SAPI   H7Y19792   1.580   2.173   9.667 -0.3194  0.8091  1.9195
  174SAPI   C3819793   1.683   2.260   9.494 -0.1566  0.6792 -0.0844
  174SAPI   H8X19794   1.790   2.234   9.510 -1.2038 -4.5773  0.2337
  174SAPI   H8Y19795   1.664   2.358   9.445 -1.4141  1.1941  1.3227
  174SAPI   C3919796   1.616   2.154   9.417 -0.2338  0.0929  0.0930
  174SAPI   H9X19797   1.506   2.158   9.431 -0.2061 -0.2245  0.4195
  174SAPI   H9Y19798   1.654   2.053   9.442 -1.9169 -1.2488 -2.4026
  174SAPI  C31019799   1.629   2.158   9.258  0.0382 -0.0251 -0.7445
  174SAPI  H10X19800   1.568   2.075   9.215 -2.7572  0.7790  1.3927
  174SAPI  H10Y19801   1.733   2.124   9.240  1.7591  2.0269  3.9296
  174SAPI  C31119802   1.594   2.290   9.199 -0.8071 -0.4743 -0.3679
  174SAPI  H11X19803   1.676   2.362   9.217 -0.4641 -0.9739  0.0852
  174SAPI  H11Y19804   1.492   2.321   9.229 -0.0717  0.0639  1.7262
  174SAPI  C31219805   1.599   2.271   9.043 -0.4278 -0.7315  1.1297
  174SAPI  H12X19806   1.511   2.213   9.007 -1.8455  1.7351  0.3502
  174SAPI  H12Y19807   1.698   2.230   9.013 -0.4564  0.2882 -0.4873
  174SAPI  C31319808   1.573   2.413   8.981 -0.3866  0.3965  0.5054
  174SAPI  H13X19809   1.635   2.497   9.019 -0.1731 -0.0840  1.2450
  174SAPI  H13Y19810   1.470   2.423   9.022  0.2889  1.4921  2.0389
  174SAPI  C31419811   1.569   2.402   8.832 -0.1847 -0.5691 -0.1447
  174SAPI  H14X19812   1.504   2.316   8.803  0.1123  0.1831 -3.3731
  174SAPI  H14Y19813   1.671   2.372   8.800  1.0133  0.2788  2.6070
  174SAPI  C31519814   1.518   2.520   8.750  0.6112  0.3230 -0.1143
  174SAPI  H15X19815   1.519   2.499   8.640 -1.3351 -2.5177  0.2914
  174SAPI  H15Y19816   1.577   2.607   8.784  1.3979 -1.3926  3.3994
  174SAPI  C31619817   1.370   2.535   8.775 -0.5631 -0.4051 -0.4516
  174SAPI  H16X19818   1.361   2.541   8.885 -0.7876 -0.2671 -0.4773
  174SAPI  H16Y19819   1.327   2.443   8.731 -1.2092 -0.4988  0.3750
  174SAPI  C31719820   1.301   2.656   8.711 -0.0159 -0.0669  0.0616
  174SAPI  H17X19821   1.313   2.664   8.601  0.7327 -2.2193 -0.0604
  174SAPI  H17Y19822   1.359   2.743   8.748 -0.1136  0.0202  0.0085
  174SAPI  C31819823   1.156   2.685   8.748 -0.4656 -0.6385 -0.3857
  174SAPI  H18X19824   1.108   2.763   8.684 -2.2338 -1.7945 -0.5350
  174SAPI  H18Y19825   1.145   2.694   8.858 -0.1701 -1.4993 -0.2811
  174SAPI  H18Z19826   1.098   2.592   8.728  0.5912 -1.5818  0.7894
  175SAPI   C1219827   3.970   5.079   6.405  0.3320 -0.1560  0.1183
  175SAPI    H219828   4.000   5.124   6.502  0.3622  1.5533 -0.6507
  175SAPI    O219829   4.029   4.955   6.392 -0.0025 -0.5234  0.3202
  175SAPI   HO219830   4.058   4.919   6.476 -0.2316 -0.8227  0.2727
  175SAPI   C1319831   3.821   5.065   6.406  0.8051 -0.0653  0.2008
  175SAPI    H319832   3.787   5.170   6.415  0.4045 -0.3149  2.0262
  175SAPI    O319833   3.777   4.981   6.517  0.1951  0.1290  0.6092
  175SAPI   HO319834   3.821   4.896   6.506  0.1172 -0.0054  1.3137
  175SAPI   C1419835   3.776   5.014   6.275 -0.0069  0.2832  0.0295
  175SAPI    H419836   3.818   4.911   6.274 -2.9738 -1.0634  0.6619
  175SAPI    O419837   3.638   4.996   6.275  0.3609  0.4421 -0.3948
  175SAPI   HO419838   3.605   5.086   6.279  2.5207  1.2536  1.7596
  175SAPI   C1519839   3.820   5.095   6.157  0.1625 -0.9709  0.3855
  175SAPI    H519840   3.771   5.193   6.172  0.2558 -1.0726  1.3794
  175SAPI    O519841   3.773   5.053   6.029 -0.5285 -0.1057 -0.0062
  175SAPI   HO519842   3.819   5.110   5.967 -0.4499 -1.4041 -1.1880
  175SAPI   C1619843   3.970   5.120   6.157 -0.0851 -0.3699  0.2754
  175SAPI    H619844   4.023   5.025   6.135  0.5161  0.3981 -1.8158
  175SAPI    O619845   3.996   5.210   6.046 -0.2353 -0.1385  0.1502
  175SAPI   HO619846   4.091   5.198   6.038 -0.3566 -1.8157  0.9025
  175SAPI   C1119847   4.012   5.181   6.299  0.5114  0.3266  0.4356
  175SAPI    H119848   3.951   5.274   6.304 -1.2317 -0.7777  0.4595
  175SAPI     P19849   4.213   5.339   6.390 -0.2000  0.1941  0.2508
  175SAPI   O1319850   4.141   5.460   6.342 -0.2905 -0.0820 -0.3167
  175SAPI   O1419851   4.363   5.336   6.380 -0.4077  0.1551 -0.1415
  175SAPI   O1219852   4.152   5.212   6.302 -0.2437  0.5338 -0.2145
  175SAPI   O1119853   4.173   5.315   6.535 -0.4666 -0.5562 -0.6168
  175SAPI    C119854   4.239   5.211   6.602  0.1994  0.5234 -0.3835
  175SAPI    HA19855   4.191   5.114   6.580 -0.5325  0.3162  1.7958
  175SAPI    HB19856   4.348   5.207   6.582  0.9335  1.3462  2.8137
  175SAPI    C219857   4.207   5.215   6.757 -0.5280 -0.1515 -0.0695
  175SAPI    HS19858   4.280   5.151   6.812 -1.2126  0.6643  1.8992
  175SAPI   O2119859   4.070   5.175   6.782  0.1507  0.5753 -0.3585
  175SAPI   C2119860   4.043   5.054   6.818  0.3714  0.6604  0.5606
  175SAPI   O2219861   4.117   4.955   6.812  0.2354 -0.2711  0.3425
  175SAPI   C2219862   3.890   5.041   6.848 -0.8854 -0.3348 -0.3564
  175SAPI   H2R19863   3.843   5.129   6.798 -1.8206 -1.3001 -1.2247
  175SAPI   H2S19864   3.862   4.953   6.787 -1.7656  1.2454 -2.3520
  175SAPI    C319865   4.250   5.357   6.814  0.3470 -0.3944  0.3746
  175SAPI    HX19866   4.186   5.434   6.765  2.9035  0.6184 -1.5755
  175SAPI    HY19867   4.348   5.367   6.762 -0.1554 -0.4858 -0.6274
  175SAPI   O3119868   4.247   5.381   6.957 -0.5795  0.3613 -0.8044
  175SAPI   C3119869   4.345   5.309   7.017  0.2302  0.0487 -1.3805
  175SAPI   O3219870   4.423   5.226   6.977 -0.5375  0.1440  0.2395
  175SAPI   C3219871   4.337   5.336   7.171  0.0661 -0.1640 -0.2423
  175SAPI   H2X19872   4.234   5.341   7.213 -0.2338  0.9999 -1.0801
  175SAPI   H2Y19873   4.378   5.437   7.187 -0.0262 -0.0215 -0.8532
  175SAPI   C2319874   3.854   5.025   6.994  0.1267 -0.0052  0.4166
  175SAPI   H3R19875   3.855   4.918   7.025  0.9649 -0.0524  0.2541
  175SAPI   H3S19876   3.748   5.059   6.997 -0.3411 -1.3537  0.0483
  175SAPI   C2419877   3.942   5.105   7.093  0.0444 -0.4160 -0.2955
  175SAPI   H4R19878   4.045   5.069   7.072 -0.1105 -0.2087 -1.4533
  175SAPI   H4S19879   3.914   5.082   7.198  1.7214 -1.2613 -0.0029
  175SAPI   C2519880   3.924   5.256   7.070  0.2482  0.3628  0.0542
  175SAPI   H5R19881   3.928   5.276   6.961 -0.5326 -0.0140 -0.0525
  175SAPI   C2619882   3.888   5.356   7.147  0.7868 -0.0608 -0.2055
  175SAPI   H6R19883   3.880   5.457   7.104 -1.2012  0.2444  0.7615
  175SAPI   C2719884   3.867   5.351   7.296  0.2499 -0.4175  0.0964
  175SAPI   H7R19885   3.855   5.456   7.327 -0.6827 -0.6033  0.3977
  175SAPI   H7S19886   3.951   5.303   7.351 -0.3700 -3.2608 -1.2426
  175SAPI   C2819887   3.737   5.280   7.322  0.2587 -0.2266  0.8353
  175SAPI   H8R19888   3.655   5.281   7.250  0.8594 -2.9388 -0.0121
  175SAPI   C2919889   3.712   5.226   7.442 -0.2200 -0.3703 -0.2879
  175SAPI   H9R19890   3.612   5.185   7.459 -0.5750 -0.7546 -2.8712
  175SAPI  C21019891   3.808   5.211   7.560 -0.3505 -0.3308 -0.2228
  175SAPI  H10R19892   3.814   5.316   7.595 -1.0995  0.2975 -1.8730
  175SAPI  H10S19893   3.909   5.197   7.518  0.4663  2.9221  0.4000
  175SAPI  C21119894   3.785   5.117   7.670  0.7581  0.0294  0.2597
  175SAPI  H11R19895   3.765   5.015   7.636  0.4728  0.4709 -0.9348
  175SAPI  C21219896   3.764   5.135   7.799  0.4567 -0.6461  0.3106
  175SAPI  H12R19897   3.751   5.047   7.864 -0.3479 -1.5670 -1.0674
  175SAPI  C21319898   3.770   5.268   7.866  0.1308  0.8740  0.7106
  175SAPI  H13R19899   3.870   5.314   7.850  0.4292  0.5005  1.4411
  175SAPI  H13S19900   3.772   5.249   7.976  0.6785 -1.1759  0.3856
  175SAPI  C21419901   3.658   5.366   7.832  0.2243 -1.1546 -0.3311
  175SAPI  H14R19902   3.627   5.349   7.728  0.4647 -0.7891 -0.4640
  175SAPI  C21519903   3.602   5.456   7.920 -0.9957  0.3751 -0.3708
  175SAPI  H15R19904   3.523   5.515   7.871 -2.2991 -2.1488 -1.5198
  175SAPI  C21619905   3.640   5.478   8.061 -0.0960  0.3772  0.1876
  175SAPI  H16R19906   3.658   5.586   8.077 -1.1378  0.4194  1.2743
  175SAPI  H16S19907   3.730   5.417   8.083 -0.6162 -1.5138 -2.4350
  175SAPI  C21719908   3.531   5.432   8.162  0.9156 -0.0624  0.5006
  175SAPI  H17R19909   3.534   5.321   8.158 -0.1711 -0.0966  0.2112
  175SAPI  H17S19910   3.429   5.449   8.122  0.5673  0.9276  1.7418
  175SAPI  C21819911   3.555   5.487   8.306  0.0546 -0.2943  0.6648
  175SAPI  H18R19912   3.467   5.459   8.368 -1.2383  0.6366 -0.7015
  175SAPI  H18S19913   3.563   5.597   8.309  0.2093 -0.1699 -2.1918
  175SAPI  C21919914   3.683   5.433   8.373 -0.2032  0.3813 -0.6985
  175SAPI  H19R19915   3.704   5.493   8.465  1.2427  0.8959 -1.3319
  175SAPI  H19S19916   3.768   5.457   8.305 -0.5854 -1.3474 -1.8254
  175SAPI  C22019917   3.688   5.285   8.403  0.1813 -0.5847  0.4604
  175SAPI  H20R19918   3.653   5.228   8.314 -0.8811  1.1764 -0.3089
  175SAPI  H20S19919   3.642   5.248   8.498 -1.9086  0.9988  0.1374
  175SAPI  H20T19920   3.796   5.263   8.410 -0.0228 -1.7915  0.0033
  175SAPI   C3319921   4.411   5.238   7.261 -0.5253  0.0689  0.8323
  175SAPI   H3X19922   4.519   5.239   7.238 -0.6911 -0.0367  0.0223
  175SAPI   H3Y19923   4.384   5.130   7.258  2.3243 -0.6792 -1.2234
  175SAPI   C3419924   4.408   5.284   7.405  0.4843 -0.4479  0.1729
  175SAPI   H4X19925   4.434   5.391   7.419  0.9147 -0.6872  1.3735
  175SAPI   H4Y19926   4.480   5.219   7.460  0.9469 -1.8620 -1.9799
  175SAPI   C3519927   4.267   5.270   7.461 -0.5121  0.0283 -0.2695
  175SAPI   H5X19928   4.208   5.182   7.429 -0.3012 -0.5185  0.8145
  175SAPI   H5Y19929   4.204   5.358   7.435 -0.4971  0.1005 -0.0690
  175SAPI   C3619930   4.257   5.274   7.618 -0.4343 -0.3515 -0.2019
  175SAPI   H6X19931   4.157   5.250   7.660 -1.3095  1.1274 -1.3302
  175SAPI   H6Y19932   4.276   5.381   7.641  0.5267  0.0720 -2.6153
  175SAPI   C3719933   4.344   5.173   7.689 -0.0444 -0.4086 -0.1958
  175SAPI   H7X19934   4.449   5.193   7.659 -0.3101  0.0947 -0.8159
  175SAPI   H7Y19935   4.316   5.067   7.670  2.5018 -1.3670  1.0211
  175SAPI   C3819936   4.353   5.203   7.843 -0.0061 -0.0924  0.1331
  175SAPI   H8X19937   4.404   5.300   7.863 -0.9689  0.2796  0.8407
  175SAPI   H8Y19938   4.418   5.120   7.880  1.1695 -0.1435 -1.9020
  175SAPI   C3919939   4.220   5.202   7.916  0.1447  0.3128 -1.2292
  175SAPI   H9X19940   4.183   5.097   7.926 -1.6550  1.1098  2.3781
  175SAPI   H9Y19941   4.140   5.265   7.874 -1.4848 -0.2261  0.9231
  175SAPI  C31019942   4.229   5.256   8.062 -0.7740 -0.3202  0.4158
  175SAPI  H10X19943   4.126   5.257   8.104  0.4982  0.9289  3.8111
  175SAPI  H10Y19944   4.282   5.354   8.065 -1.3100  0.0260 -0.8157
  175SAPI  C31119945   4.314   5.173   8.154 -0.3012 -0.3808  0.2723
  175SAPI  H11X19946   4.414   5.151   8.110 -0.0821  0.7248  0.1859
  175SAPI  H11Y19947   4.253   5.086   8.188  0.3101  0.3558  3.5928
  175SAPI  C31219948   4.334   5.235   8.289  0.6387  0.1996  0.3413
  175SAPI  H12X19949   4.243   5.268   8.345 -1.3121 -1.8737 -1.4096
  175SAPI  H12Y19950   4.405   5.317   8.264  0.1027  0.1337 -1.5273
  175SAPI  C31319951   4.416   5.137   8.378  0.3102 -0.2964  0.3074
  175SAPI  H13X19952   4.504   5.106   8.318 -0.5185 -1.8865 -0.1470
  175SAPI  H13Y19953   4.352   5.051   8.406  1.8400 -1.2646  0.9481
  175SAPI  C31419954   4.457   5.194   8.518 -0.0950 -0.3650  0.3709
  175SAPI  H14X19955   4.522   5.283   8.507 -2.3472  1.1411 -1.7615
  175SAPI  H14Y19956   4.520   5.121   8.574  0.6294  0.1237  0.1892
  175SAPI  C31519957   4.344   5.242   8.612  0.4203 -0.0164  0.2289
  175SAPI  H15X19958   4.294   5.327   8.560  0.2854  0.4403  1.0888
  175SAPI  H15Y19959   4.391   5.291   8.700 -2.4645 -1.6707  2.9088
  175SAPI  C31619960   4.255   5.136   8.674 -0.5363 -0.2346  0.0993
  175SAPI  H16X19961   4.320   5.059   8.719  0.3585  0.6230  0.3160
  175SAPI  H16Y19962   4.215   5.079   8.587  2.8871  0.7373 -2.3565
  175SAPI  C31719963   4.153   5.181   8.772  0.4525  0.6192 -0.0715
  175SAPI  H17X19964   4.199   5.246   8.850 -0.9222 -2.0697  3.2788
  175SAPI  H17Y19965   4.106   5.098   8.830 -0.8145  0.9655 -0.5627
  175SAPI  C31819966   4.042   5.266   8.709  0.0841 -0.0953 -0.0989
  175SAPI  H18X19967   4.050   5.272   8.598  1.8811 -1.9644 -0.1400
  175SAPI  H18Y19968   4.064   5.369   8.743  1.3182  0.3392 -2.0279
  175SAPI  H18Z19969   3.941   5.231   8.739 -0.3648  0.4793 -0.9075
  176SAPI   C1219970   4.894   3.040   6.327  0.0942  0.1392 -0.3479
  176SAPI    H219971   4.860   2.975   6.410 -0.6603  1.0013  0.0438
  176SAPI    O219972   4.942   3.164   6.385  0.6014  0.3636  0.4019
  176SAPI   HO219973   4.863   3.217   6.398 -0.6567 -0.8270 -1.8061
  176SAPI   C1319974   5.000   2.959   6.262  0.1787  0.6145  0.0920
  176SAPI    H319975   4.942   2.878   6.214 -0.3843  0.9848  0.1447
  176SAPI    O319976   5.085   2.891   6.350  0.0199  0.1882 -0.2601
  176SAPI   HO319977   5.064   2.797   6.352  0.7335  0.0302 -0.0052
  176SAPI   C1419978   5.068   3.030   6.150  0.2556  0.1490  0.5071
  176SAPI    H419979   5.109   3.127   6.186 -0.5136  0.9683 -0.7512
  176SAPI    O419980   5.180   2.961   6.097  0.3369  0.4011  1.3989
  176SAPI   HO419981   5.260   3.001   6.134  1.8591  0.9243 -2.0721
  176SAPI   C1519982   4.961   3.062   6.048 -0.0732 -0.3525 -0.2941
  176SAPI    H519983   4.922   2.968   6.003  0.9060 -0.2807 -1.3470
  176SAPI    O519984   5.025   3.144   5.949  0.2021  0.1059 -0.0591
  176SAPI   HO519985   4.981   3.121   5.867  0.3729 -3.3910  0.6582
  176SAPI   C1619986   4.845   3.139   6.115  0.2527  0.7471  0.0604
  176SAPI    H619987   4.890   3.231   6.158 -0.8864  1.2604  0.1986
  176SAPI    O619988   4.751   3.168   6.018 -0.0581  0.7146 -0.1599
  176SAPI   HO619989   4.674   3.197   6.067 -0.2157 -0.2519  0.1912
  176SAPI   C1119990   4.783   3.061   6.229 -0.4324 -0.3405 -0.0900
  176SAPI    H119991   4.743   2.963   6.194  1.8635 -2.2975  2.3874
  176SAPI     P19992   4.629   3.261   6.329  0.3919 -0.3287 -0.1508
  176SAPI   O1319993   4.514   3.246   6.419  0.1516  0.4868  0.2164
  176SAPI   O1419994   4.597   3.332   6.198 -0.3997 -0.4267 -1.2961
  176SAPI   O1219995   4.680   3.117   6.303  0.3924  0.1222  0.2763
  176SAPI   O1119996   4.747   3.331   6.402  0.1201 -0.2548 -0.8870
  176SAPI    C119997   4.786   3.465   6.387 -0.2881 -0.6857 -0.5352
  176SAPI    HA19998   4.893   3.467   6.357  0.8513 -2.3167  2.9248
  176SAPI    HB19999   4.728   3.527   6.316 -2.7664  0.4311  2.2586
  176SAPI    C220000   4.781   3.526   6.523 -0.6027 -0.3336 -0.1023
  176SAPI    HS20001   4.832   3.625   6.519 -0.4350 -0.4508 -1.9327
  176SAPI   O2120002   4.857   3.433   6.605  0.2890 -0.4546  0.4005
  176SAPI   C2120003   4.986   3.446   6.600 -0.5274 -1.3167 -0.5168
  176SAPI   O2220004   5.040   3.550   6.561 -0.6462 -0.0149 -0.5550
  176SAPI   C2220005   5.056   3.330   6.667  0.3225  0.1468  0.3088
  176SAPI   H2R20006   5.016   3.301   6.767  1.5643 -0.6058  0.6095
  176SAPI   H2S20007   5.042   3.243   6.599 -2.1999  0.7809 -0.0809
  176SAPI    C320008   4.636   3.541   6.587 -0.0370  0.0196  0.3622
  176SAPI    HX20009   4.594   3.438   6.575 -0.2630  0.0886  0.5493
  176SAPI    HY20010   4.572   3.608   6.526 -0.3634 -1.2385 -0.7400
  176SAPI   O3120011   4.641   3.567   6.729 -0.2643 -0.4458  0.2012
  176SAPI   C3120012   4.673   3.692   6.757 -0.5025  0.2187  0.0845
  176SAPI   O3220013   4.693   3.781   6.674  0.1785  0.0058  0.3235
  176SAPI   C3220014   4.665   3.723   6.908 -0.1195 -0.2930  0.2129
  176SAPI   H2X20015   4.557   3.738   6.927 -0.0021  1.1170 -0.1276
  176SAPI   H2Y20016   4.718   3.819   6.924  2.7865 -1.4891 -1.3456
  176SAPI   C2320017   5.207   3.343   6.681 -0.6187 -0.4445 -0.2557
  176SAPI   H3R20018   5.245   3.344   6.577 -1.5710 -0.7044 -0.6140
  176SAPI   H3S20019   5.240   3.249   6.732  0.1973  0.7773  1.5973
  176SAPI   C2420020   5.259   3.464   6.772 -0.0447  0.2918  0.1706
  176SAPI   H4R20021   5.238   3.563   6.727  2.0087  0.8828  0.4002
  176SAPI   H4S20022   5.370   3.460   6.777  0.0373  0.2988 -1.2810
  176SAPI   C2520023   5.206   3.447   6.914 -0.8309  0.4331 -0.1243
  176SAPI   H5R20024   5.112   3.500   6.935 -1.2324  0.6169 -2.1290
  176SAPI   C2620025   5.268   3.372   7.012  0.0735  0.0276 -1.0804
  176SAPI   H6R20026   5.224   3.375   7.113  0.0868 -1.1147 -1.0305
  176SAPI   C2720027   5.387   3.286   6.998 -0.2329 -0.0369  0.2128
  176SAPI   H7R20028   5.476   3.345   7.027 -1.4754  2.4599 -0.7961
  176SAPI   H7S20029   5.403   3.268   6.890 -0.1910 -2.3291  0.5517
  176SAPI   C2820030   5.388   3.147   7.065  0.9540  0.7354  0.7453
  176SAPI   H8R20031   5.408   3.065   6.995  1.4666  2.0350 -0.6773
  176SAPI   C2920032   5.373   3.114   7.199  0.1074 -0.6112  0.2425
  176SAPI   H9R20033   5.369   3.008   7.226  0.9804 -0.7410 -0.0995
  176SAPI  C21020034   5.359   3.207   7.316  0.0010  0.2139 -0.0675
  176SAPI  H10R20035   5.360   3.313   7.282 -1.9280  0.0938 -0.6303
  176SAPI  H10S20036   5.446   3.204   7.384 -0.1799 -0.5173  0.1433
  176SAPI  C21120037   5.231   3.197   7.387  0.2984 -0.9048 -0.0988
  176SAPI  H11R20038   5.148   3.154   7.329 -0.5310 -0.4950  0.7558
  176SAPI  C21220039   5.208   3.247   7.509 -0.4514 -0.7378 -0.5197
  176SAPI  H12R20040   5.104   3.258   7.544 -1.1528  2.9135 -3.1199
  176SAPI  C21320041   5.307   3.303   7.610  0.1433 -0.2251 -0.0547
  176SAPI  H13R20042   5.260   3.392   7.657 -2.0414 -0.2868 -1.9396
  176SAPI  H13S20043   5.388   3.359   7.558  1.6317 -2.9794 -0.8736
  176SAPI  C21420044   5.361   3.205   7.716  0.3947  0.6327 -0.3801
  176SAPI  H14R20045   5.464   3.173   7.694 -0.0133 -0.1610 -1.2141
  176SAPI  C21520046   5.302   3.155   7.828 -0.6150  1.1109 -0.0489
  176SAPI  H15R20047   5.341   3.062   7.871 -1.1361 -0.0901 -2.0232
  176SAPI  C21620048   5.164   3.191   7.885  0.1255 -0.0888  0.7040
  176SAPI  H16R20049   5.114   3.091   7.892  0.7768 -0.6681 -1.7624
  176SAPI  H16S20050   5.103   3.251   7.814  0.3837 -2.7860 -2.0445
  176SAPI  C21720051   5.157   3.246   8.026 -0.1190 -0.3607  0.2324
  176SAPI  H17R20052   5.052   3.241   8.063  0.4799 -0.5511  1.9757
  176SAPI  H17S20053   5.173   3.356   8.025 -1.5896 -0.0495  2.7068
  176SAPI  C21820054   5.261   3.197   8.125 -0.9323 -0.1551  0.3437
  176SAPI  H18R20055   5.362   3.242   8.110  0.5363 -3.1421  0.5567
  176SAPI  H18S20056   5.264   3.089   8.099  0.8977  0.3318 -1.8536
  176SAPI  C21920057   5.203   3.205   8.268 -0.0145  1.4640  0.5456
  176SAPI  H19R20058   5.260   3.125   8.320  1.5099 -0.1017 -3.1841
  176SAPI  H19S20059   5.095   3.178   8.268  0.3564 -0.3160  2.3386
  176SAPI  C22020060   5.214   3.332   8.335  0.0900  0.3440 -0.4027
  176SAPI  H20R20061   5.322   3.354   8.348  0.2173 -0.9035  0.9517
  176SAPI  H20S20062   5.167   3.327   8.436  1.8669 -0.7777  0.4032
  176SAPI  H20T20063   5.161   3.410   8.276 -0.8687 -0.2809 -0.3900
  176SAPI   C3320064   4.725   3.620   6.995  0.4987  0.4867 -0.6560
  176SAPI   H3X20065   4.828   3.595   6.959  1.1004  2.3053 -0.3210
  176SAPI   H3Y20066   4.671   3.523   6.997  2.4290 -0.7065  2.7662
  176SAPI   C3420067   4.747   3.661   7.142  0.3047 -0.1406 -0.2134
  176SAPI   H4X20068   4.654   3.658   7.201  0.0466 -1.2178 -0.6527
  176SAPI   H4Y20069   4.775   3.769   7.148  0.3161 -0.1837  0.6279
  176SAPI   C3520070   4.849   3.580   7.217  0.4244 -0.1188 -0.1951
  176SAPI   H5X20071   4.954   3.600   7.187  0.5743 -0.6684 -0.0530
  176SAPI   H5Y20072   4.828   3.472   7.203  2.5148 -0.5916  0.0549
  176SAPI   C3620073   4.837   3.609   7.373 -0.8026 -0.1443  0.4966
  176SAPI   H6X20074   4.731   3.631   7.397 -1.0963  0.0525 -0.9083
  176SAPI   H6Y20075   4.887   3.708   7.385  0.6244 -0.8962  1.0265
  176SAPI   C3720076   4.911   3.502   7.451  0.2639  0.4715  0.2347
  176SAPI   H7X20077   5.009   3.474   7.409  0.6396 -0.3424  1.6047
  176SAPI   H7Y20078   4.842   3.417   7.469  0.7689 -0.7474 -3.0209
  176SAPI   C3820079   4.949   3.549   7.592 -0.3813  1.0498  0.3240
  176SAPI   H8X20080   5.026   3.627   7.578  0.6060  0.0324 -0.0482
  176SAPI   H8Y20081   4.992   3.461   7.645 -3.3601 -0.5455  0.3317
  176SAPI   C3920082   4.838   3.611   7.680 -0.1193  0.1575  0.0699
  176SAPI   H9X20083   4.747   3.549   7.675  0.2123 -0.2954 -0.3720
  176SAPI   H9Y20084   4.815   3.709   7.632 -0.3236  0.7633  1.3558
  176SAPI  C31020085   4.879   3.613   7.823  0.1220 -0.3104 -0.1525
  176SAPI  H10X20086   4.989   3.629   7.830 -0.1693  2.4441 -0.5063
  176SAPI  H10Y20087   4.853   3.519   7.876 -0.2892  0.3586  0.8715
  176SAPI  C31120088   4.822   3.726   7.907  0.1334 -0.2800 -0.0143
  176SAPI  H11X20089   4.721   3.769   7.887 -0.1626 -0.5453  0.8381
  176SAPI  H11Y20090   4.897   3.806   7.899  0.9633 -1.0789 -0.3710
  176SAPI  C31220091   4.827   3.682   8.057  0.4007  0.3350  0.6051
  176SAPI  H12X20092   4.936   3.668   8.073  0.4371 -0.1893 -0.0675
  176SAPI  H12Y20093   4.771   3.587   8.071  1.2752 -0.3254 -0.3100
  176SAPI  C31320094   4.769   3.789   8.147  0.1886 -0.3844 -0.2777
  176SAPI  H13X20095   4.666   3.822   8.119  0.0679 -0.6914 -0.2039
  176SAPI  H13Y20096   4.825   3.884   8.144 -0.0015 -0.2934 -1.9174
  176SAPI  C31420097   4.762   3.740   8.298 -0.3744 -0.0558 -0.6574
  176SAPI  H14X20098   4.855   3.683   8.320 -0.6925 -0.7374 -1.0589
  176SAPI  H14Y20099   4.679   3.667   8.307  0.4529 -0.7269  3.1787
  176SAPI  C31520100   4.723   3.858   8.397  0.3180  0.1963 -0.4911
  176SAPI  H15X20101   4.631   3.910   8.364  0.1049 -0.0521 -0.2962
  176SAPI  H15Y20102   4.810   3.928   8.398 -0.1786  0.8256  1.0717
  176SAPI  C31620103   4.704   3.803   8.542  0.4864  0.1642 -0.1245
  176SAPI  H16X20104   4.793   3.748   8.579  1.6721  2.4458  0.6063
  176SAPI  H16Y20105   4.623   3.729   8.557  0.2147  0.6479  0.8207
  176SAPI  C31720106   4.681   3.916   8.647  0.0672 -0.1925  0.1174
  176SAPI  H17X20107   4.595   3.969   8.599  1.1729  0.0532 -1.6669
  176SAPI  H17Y20108   4.771   3.981   8.642 -0.7389  0.9882  0.4824
  176SAPI  C31820109   4.653   3.865   8.793 -0.2501 -0.6779  0.0168
  176SAPI  H18X20110   4.611   3.945   8.858  1.3786 -0.3690  0.7363
  176SAPI  H18Y20111   4.748   3.832   8.840 -0.2713  1.0863  1.4154
  176SAPI  H18Z20112   4.569   3.793   8.797 -0.4975 -0.3579  0.7442
  177SLPC     N20113   3.044   3.978  11.228  0.1616  0.1780  0.7182
  177SLPC   C1320114   2.957   3.854  11.245 -0.1579 -0.2760 -0.2695
  177SLPC  H13A20115   3.021   3.768  11.262  2.2675  1.8276  2.3061
  177SLPC  H13B20116   2.897   3.864  11.334  1.4658 -0.4494  0.8914
  177SLPC  H13C20117   2.904   3.833  11.154  1.1608  0.8253 -1.3512
  177SLPC   C1420118   3.130   3.978  11.352 -0.3497  0.0520  0.3073
  177SLPC  H14A20119   3.196   3.893  11.347  1.7865  1.4625  2.4339
  177SLPC  H14B20120   3.192   4.066  11.360 -2.1195  1.2770  1.3077
  177SLPC  H14C20121   3.070   3.980  11.442 -1.8597  1.2563 -0.6692
  177SLPC   C1520122   2.960   4.102  11.238 -0.5514 -0.6259  0.6836
  177SLPC  H15A20123   2.879   4.114  11.169 -0.7764  2.6485  1.3754
  177SLPC  H15B20124   2.901   4.102  11.328 -0.0925 -3.0018  1.0688
  177SLPC  H15C20125   3.027   4.186  11.236  0.7379 -1.5952  1.2268
  177SLPC   C1220126   3.119   3.975  11.097 -0.2783  0.2762  0.4787
  177SLPC  H12A20127   3.196   3.902  11.083 -0.1076  0.5534 -0.0647
  177SLPC  H12B20128   3.173   4.068  11.090 -0.2022  0.1511 -1.1232
  177SLPC   C1120129   3.025   3.961  10.967 -0.2679  0.0520  0.6561
  177SLPC  H11A20130   3.090   3.968  10.877 -1.3787  0.9607 -0.0985
  177SLPC  H11B20131   2.963   4.052  10.956  1.4501  1.0166 -2.1553
  177SLPC     P20132   2.826   3.833  10.872  0.0637  0.2962 -0.1404
  177SLPC   O1320133   2.828   3.706  10.802  0.1786  0.1026  0.2294
  177SLPC   O1420134   2.710   3.870  10.959  0.0237 -0.2224 -0.2360
  177SLPC   O1220135   2.958   3.840  10.953 -0.2770  0.3122 -0.4143
  177SLPC   O1120136   2.826   3.952  10.772 -0.0456  0.1633  0.6223
  177SLPC    C120137   2.917   3.972  10.660  0.0989 -0.3154 -0.3096
  177SLPC    HA20138   2.949   4.078  10.650  2.7412 -1.1461 -1.5086
  177SLPC    HB20139   3.015   3.923  10.680 -0.2374 -0.5116  0.9335
  177SLPC    C220140   2.859   3.924  10.524  0.2391  0.1234 -0.1760
  177SLPC    HS20141   2.844   3.815  10.540  2.0274  0.2574  3.5875
  177SLPC   O2120142   2.968   3.945  10.431 -0.8213  0.4173 -0.4253
  177SLPC   C2120143   2.984   3.847  10.337  1.0188  0.0040 -0.2227
  177SLPC   O2220144   2.906   3.754  10.319  0.0080 -0.0764  0.0305
  177SLPC   C2220145   3.100   3.889  10.253  0.4779 -0.5938 -0.0828
  177SLPC   H2R20146   3.139   3.990  10.279 -0.1593 -0.5489  0.7449
  177SLPC   H2S20147   3.184   3.819  10.271  1.4689  0.6485  0.2612
  177SLPC    C320148   2.742   4.015  10.481 -0.1179 -0.0599 -0.3014
  177SLPC    HX20149   2.751   4.125  10.477 -0.9386  0.0539  0.6038
  177SLPC    HY20150   2.672   4.016  10.567 -0.6679  2.9995 -0.6789
  177SLPC   O3120151   2.660   3.962  10.376  0.5636  0.2177 -0.5885
  177SLPC   C3120152   2.687   4.009  10.249 -0.5637  0.2127 -0.9364
  177SLPC   O3220153   2.777   4.092  10.224  0.6767 -0.3025  0.0075
  177SLPC   C3220154   2.558   3.976  10.171  0.9322 -0.5740 -0.0804
  177SLPC   H2X20155   2.489   4.057  10.202 -0.0220 -1.1088 -0.7648
  177SLPC   H2Y20156   2.523   3.876  10.205  0.2741 -0.2335  0.2514
  177SLPC   C2320157   3.069   3.885  10.102  0.2757  0.0189  0.8407
  177SLPC   H3R20158   3.007   3.974  10.076 -0.3585 -0.0250  2.1044
  177SLPC   H3S20159   3.012   3.792  10.078  0.9475 -0.6157  1.6543
  177SLPC   C2420160   3.198   3.888  10.011  0.6490 -0.3338 -0.0372
  177SLPC   H4R20161   3.279   3.828  10.058 -1.6083 -2.8029  1.0158
  177SLPC   H4S20162   3.241   3.989  10.023 -0.4850  0.1190  0.4001
  177SLPC   C2520163   3.159   3.863   9.870  0.9911 -0.3512 -0.3356
  177SLPC   H5R20164   3.087   3.942   9.841  0.6414 -1.1116 -1.6563
  177SLPC   H5S20165   3.111   3.762   9.871 -1.8450  0.8926 -0.6979
  177SLPC   C2620166   3.279   3.861   9.775 -0.6297 -0.1920  0.1231
  177SLPC   H6R20167   3.350   3.782   9.807 -0.3631 -0.5984 -1.3998
  177SLPC   H6S20168   3.319   3.964   9.785  0.4416 -0.4097 -1.5935
  177SLPC   C2720169   3.236   3.835   9.629 -0.1730 -0.3691 -0.3411
  177SLPC   H7R20170   3.149   3.899   9.604 -0.3475  0.1192  1.3711
  177SLPC   H7S20171   3.221   3.729   9.602  0.4226 -0.3430 -0.7921
  177SLPC   C2820172   3.354   3.885   9.544 -0.2908  0.1941 -0.3642
  177SLPC   H8R20173   3.436   3.837   9.602 -0.6396 -1.1800 -0.9492
  177SLPC   H8S20174   3.372   3.994   9.549 -1.1484  0.2856  1.2340
  177SLPC   C2920175   3.364   3.852   9.395  0.3786 -0.2056 -0.6600
  177SLPC   H9R20176   3.425   3.764   9.372 -0.7194 -0.8076 -1.3647
  177SLPC  C21020177   3.321   3.927   9.287  0.3704 -0.1430 -0.5511
  177SLPC  H10R20178   3.327   3.891   9.184 -0.7046 -0.7978 -0.3998
  177SLPC  C21120179   3.251   4.064   9.299 -1.2078 -0.2360  0.0590
  177SLPC  H11R20180   3.154   4.065   9.245 -1.5209  4.5444  0.2862
  177SLPC  H11S20181   3.199   4.092   9.393 -2.7798  0.9790 -1.1084
  177SLPC  C21220182   3.332   4.188   9.246 -0.7795 -0.2397 -0.7269
  177SLPC  H12R20183   3.363   4.262   9.322  2.5257 -1.2653 -0.9144
  177SLPC  C21320184   3.362   4.217   9.120  0.7798  0.3536  0.9043
  177SLPC  H13R20185   3.419   4.306   9.090 -0.5451  0.5705 -1.1122
  177SLPC  C21420186   3.305   4.141   9.002 -0.0029  0.5086  0.2406
  177SLPC  H14R20187   3.209   4.094   9.031 -0.2899  2.0624  1.9446
  177SLPC  H14S20188   3.373   4.058   8.972  0.7443  1.9699 -2.5135
  177SLPC  C21520189   3.290   4.235   8.880  0.5532  0.5237  0.6941
  177SLPC  H15R20190   3.387   4.242   8.827  0.1049  2.4460  0.0525
  177SLPC  H15S20191   3.243   4.336   8.884 -2.5169 -0.7314 -0.5137
  177SLPC  C21620192   3.199   4.155   8.782 -0.6214  0.1973 -0.4279
  177SLPC  H16R20193   3.092   4.172   8.806 -0.6454 -0.6960  0.1701
  177SLPC  H16S20194   3.209   4.045   8.798  0.6737  0.4331  0.5650
  177SLPC  C21720195   3.219   4.192   8.636 -0.3621 -0.1144  0.5930
  177SLPC  H17R20196   3.310   4.147   8.591  0.1025 -0.1707  1.5578
  177SLPC  H17S20197   3.254   4.297   8.632  1.2581 -0.6440 -1.3689
  177SLPC  C21820198   3.096   4.179   8.547 -0.6114 -1.0511 -0.4098
  177SLPC  H18R20199   3.071   4.071   8.549 -2.5519 -0.6836  3.3715
  177SLPC  H18S20200   3.120   4.218   8.445  0.7924 -1.1146 -0.1285
  177SLPC  H18T20201   3.009   4.238   8.584 -0.3000 -0.4229 -0.6658
  177SLPC   C3320202   2.578   3.952  10.023  0.2174 -0.2172 -0.0609
  177SLPC   H3X20203   2.621   4.046   9.983 -0.4218 -0.1918 -0.7139
  177SLPC   H3Y20204   2.481   3.940   9.970 -0.5611  0.2159  1.2222
  177SLPC   C3420205   2.667   3.833   9.994  0.7073  0.2327 -0.3343
  177SLPC   H4X20206   2.645   3.744  10.056  0.4018 -0.2278 -1.0862
  177SLPC   H4Y20207   2.767   3.872  10.025 -0.0729  1.1284  1.1899
  177SLPC   C3520208   2.671   3.783   9.846  0.4584 -0.4287 -0.5605
  177SLPC   H5X20209   2.574   3.743   9.809 -0.1736  1.1771 -0.7121
  177SLPC   H5Y20210   2.741   3.697   9.839 -1.7285 -2.6035  1.9087
  177SLPC   C3620211   2.708   3.895   9.751  0.2456 -0.0320  0.4627
  177SLPC   H6X20212   2.810   3.927   9.782  0.8522  0.3015 -1.7229
  177SLPC   H6Y20213   2.628   3.972   9.766  1.3716  1.4654 -0.8513
  177SLPC   C3720214   2.726   3.852   9.603  0.3863 -0.1301  0.4665
  177SLPC   H7X20215   2.631   3.821   9.554  0.9777 -1.8128  0.3109
  177SLPC   H7Y20216   2.788   3.760   9.604  2.1228  0.9100 -2.0716
  177SLPC   C3820217   2.796   3.962   9.512  0.5019 -0.0940  0.6300
  177SLPC   H8X20218   2.898   3.991   9.545  1.2031  0.4573 -1.8300
  177SLPC   H8Y20219   2.728   4.050   9.509  0.1177 -0.4012  0.2009
  177SLPC   C3920220   2.801   3.916   9.361 -0.0146  0.3147 -0.6806
  177SLPC   H9X20221   2.698   3.880   9.337  0.9965 -1.9546 -1.8973
  177SLPC   H9Y20222   2.884   3.846   9.338 -0.4401  0.2381 -2.0815
  177SLPC  C31020223   2.817   4.042   9.274 -0.5643  1.0464  0.4723
  177SLPC  H10X20224   2.925   4.061   9.261 -1.0130  3.0355 -0.7581
  177SLPC  H10Y20225   2.757   4.127   9.315 -1.0931  1.3722 -0.9329
  177SLPC  C31120226   2.769   4.017   9.132  0.8034  0.5058  0.8197
  177SLPC  H11X20227   2.754   4.115   9.081 -0.7761 -1.2811 -2.4786
  177SLPC  H11Y20228   2.672   3.963   9.118  0.4380  1.8354 -2.8537
  177SLPC  C31220229   2.865   3.943   9.040 -0.0680  0.2168  0.1873
  177SLPC  H12X20230   2.884   3.839   9.074  0.8259 -0.3622 -1.8916
  177SLPC  H12Y20231   2.963   3.995   9.034 -0.1670  0.3058 -1.1014
  177SLPC  C31320232   2.827   3.952   8.886 -0.0237  0.3413 -0.4203
  177SLPC  H13X20233   2.745   3.879   8.873 -0.6471  0.7916  0.7602
  177SLPC  H13Y20234   2.919   3.919   8.834  0.9649  0.6504  1.0754
  177SLPC  C31420235   2.792   4.087   8.835 -0.0608  0.2799 -0.0485
  177SLPC  H14X20236   2.874   4.159   8.858 -0.3268  0.6540 -0.2636
  177SLPC  H14Y20237   2.702   4.112   8.896  1.3974  1.1600  1.8737
  177SLPC  C31520238   2.772   4.078   8.680 -0.2044 -0.2507  0.2003
  177SLPC  H15X20239   2.689   4.005   8.681 -0.0424 -0.5765 -2.6238
  177SLPC  H15Y20240   2.854   4.029   8.622 -1.6548 -1.5519 -0.8312
  177SLPC  C31620241   2.723   4.206   8.613  0.6984  1.1720 -0.0803
  177SLPC  H16X20242   2.781   4.294   8.648 -1.2094  2.2742  0.4279
  177SLPC  H16Y20243   2.619   4.228   8.644 -0.1206 -1.3287 -0.7923
  177SLPC  C31720244   2.707   4.191   8.457 -0.3373  0.8489  0.3567
  177SLPC  H17X20245   2.631   4.112   8.438  0.9435 -0.5157  0.6859
  177SLPC  H17Y20246   2.811   4.170   8.425  0.2630  1.3058  1.9290
  177SLPC  C31820247   2.655   4.325   8.380 -0.4295  0.2025 -0.0260
  177SLPC  H18X20248   2.663   4.298   8.273  2.9318  0.8086 -0.0269
  177SLPC  H18Y20249   2.735   4.399   8.402 -0.7715  0.9392 -1.1708
  177SLPC  H18Z20250   2.553   4.361   8.408 -0.8938  1.3891 -2.8896
  178SLPC     N20251   6.357   5.396  11.357  1.3536 -0.1692 -0.7782
  178SLPC   C1320252   6.495   5.425  11.417  0.4270  0.5808  0.0406
  178SLPC  H13A20253   6.507   5.374  11.512 -1.2042  0.4128  0.1909
  178SLPC  H13B20254   6.566   5.388  11.345 -0.9985 -1.0025 -0.6151
  178SLPC  H13C20255   6.520   5.525  11.448  1.6269 -0.6056  3.3669
  178SLPC   C1420256   6.254   5.404  11.474 -0.5461  0.4983 -0.6675
  178SLPC  H14A20257   6.257   5.505  11.510 -1.6084  0.6289 -0.9265
  178SLPC  H14B20258   6.156   5.374  11.440 -0.9562 -0.1218  0.9692
  178SLPC  H14C20259   6.288   5.331  11.547 -0.7490 -0.5739 -1.6111
  178SLPC   C1520260   6.353   5.263  11.299  0.0800 -0.2663  0.8554
  178SLPC  H15A20261   6.346   5.192  11.381 -0.5161 -1.0346  0.1529
  178SLPC  H15B20262   6.263   5.250  11.240 -0.4241 -2.0273  1.9153
  178SLPC  H15C20263   6.440   5.247  11.238  0.4053  1.3530  0.8708
  178SLPC   C1220264   6.330   5.505  11.256 -0.2005 -0.0273 -0.8812
  178SLPC  H12A20265   6.412   5.512  11.186  0.0308  1.0105 -0.5217
  178SLPC  H12B20266   6.323   5.598  11.311  3.0043 -0.3638  0.3137
  178SLPC   C1120267   6.193   5.496  11.175 -0.7912  0.0296  0.1034
  178SLPC  H11A20268   6.174   5.594  11.125 -0.9500  0.2883  0.6672
  178SLPC  H11B20269   6.113   5.475  11.249  0.0862 -2.3450  0.4626
  178SLPC     P20270   6.075   5.374  10.969  0.1373 -0.5148 -0.2289
  178SLPC   O1320271   6.101   5.244  10.902 -0.0584  0.0537  0.3573
  178SLPC   O1420272   5.946   5.394  11.033 -0.4431  0.3800  0.1985
  178SLPC   O1220273   6.199   5.393  11.070  0.2804 -0.0712  0.5213
  178SLPC   O1120274   6.103   5.491  10.856 -0.3684 -0.8063 -0.2926
  178SLPC    C120275   6.204   5.460  10.748 -0.1391  0.4706  0.0021
  178SLPC    HA20276   6.256   5.556  10.730 -0.2399  0.3358 -1.0680
  178SLPC    HB20277   6.275   5.378  10.771 -0.0917  0.0592 -1.4710
  178SLPC    C220278   6.136   5.415  10.616  0.4548 -0.6256  0.8263
  178SLPC    HS20279   6.135   5.304  10.619 -0.1183 -0.6683 -0.3894
  178SLPC   O2120280   6.230   5.455  10.512  0.7206 -0.2496 -0.0571
  178SLPC   C2120281   6.312   5.362  10.477 -0.0419  0.1092  0.0770
  178SLPC   O2220282   6.339   5.256  10.535 -0.1948  0.0547 -0.1588
  178SLPC   C2220283   6.393   5.409  10.357  0.0785 -0.3248  0.1554
  178SLPC   H2R20284   6.436   5.511  10.365 -0.6733  0.2791 -2.4008
  178SLPC   H2S20285   6.481   5.343  10.344  1.0317  1.1931 -1.5136
  178SLPC    C320286   5.987   5.469  10.592 -0.3049  0.1733 -0.2914
  178SLPC    HX20287   6.013   5.576  10.609  2.3608 -0.5730  0.7678
  178SLPC    HY20288   5.914   5.431  10.666  1.4663  0.0670  1.4842
  178SLPC   O3120289   5.936   5.448  10.453  0.1046 -0.1803  0.6907
  178SLPC   C3120290   5.878   5.334  10.420  0.5769 -0.0349  0.0451
  178SLPC   O3220291   5.865   5.244  10.502  0.6830  0.0426 -0.2053
  178SLPC   C3220292   5.835   5.327  10.275  0.3779 -0.0648 -0.1016
  178SLPC   H2X20293   5.725   5.342  10.281  0.4416  0.1825  0.4696
  178SLPC   H2Y20294   5.871   5.234  10.226  1.1648  0.3708 -0.3747
  178SLPC   C2320295   6.310   5.403  10.226 -0.0425 -0.3291 -0.6235
  178SLPC   H3R20296   6.370   5.438  10.139 -0.2899 -0.5532 -0.8884
  178SLPC   H3S20297   6.222   5.468  10.241 -2.3138 -3.0066 -1.3727
  178SLPC   C2420298   6.266   5.262  10.183 -0.4517  0.1527 -0.2006
  178SLPC   H4R20299   6.204   5.218  10.264  3.1432 -0.6410  2.3444
  178SLPC   H4S20300   6.357   5.198  10.185 -0.6954 -0.1847  0.2668
  178SLPC   C2520301   6.206   5.245  10.043  0.0870 -0.2750  0.0695
  178SLPC   H5R20302   6.259   5.293   9.958  0.0903 -0.3798  0.0109
  178SLPC   H5S20303   6.113   5.304  10.027  0.8621  0.2555 -3.3386
  178SLPC   C2620304   6.198   5.093  10.025  0.3047  1.0887  0.4716
  178SLPC   H6R20305   6.133   5.052  10.105  2.9499 -2.1518  1.1402
  178SLPC   H6S20306   6.301   5.061  10.049  0.1906  0.7485  0.5062
  178SLPC   C2720307   6.139   5.040   9.892 -0.2859  0.6190  0.1667
  178SLPC   H7R20308   6.054   5.104   9.862  0.7012  1.5965 -0.6270
  178SLPC   H7S20309   6.099   4.937   9.903 -1.3506  0.5217 -3.2851
  178SLPC   C2820310   6.253   5.034   9.795 -0.4295 -0.0695 -0.5351
  178SLPC   H8R20311   6.335   4.973   9.839  0.8447  1.8558 -0.1177
  178SLPC   H8S20312   6.301   5.133   9.789  0.8396 -0.6490 -0.2085
  178SLPC   C2920313   6.215   4.980   9.660 -0.4339  0.1611 -0.7334
  178SLPC   H9R20314   6.112   4.942   9.651  1.5149 -5.7666 -2.0569
  178SLPC  C21020315   6.291   4.981   9.551  1.2594 -0.4726  0.2169
  178SLPC  H10R20316   6.245   4.943   9.458  1.6919  2.4739 -1.3341
  178SLPC  C21120317   6.433   5.038   9.534  0.6050  0.3446  0.0725
  178SLPC  H11R20318   6.489   4.958   9.481 -0.8798  1.5091 -3.5400
  178SLPC  H11S20319   6.485   5.040   9.632 -1.0998  0.7025  1.0050
  178SLPC  C21220320   6.448   5.170   9.463  0.2043  0.5162  0.9848
  178SLPC  H12R20321   6.380   5.247   9.502 -1.1638  0.4162 -1.0213
  178SLPC  C21320322   6.536   5.212   9.372 -0.2764 -0.7016  0.8099
  178SLPC  H13R20323   6.526   5.320   9.349  0.1325 -0.8979 -0.3837
  178SLPC  C21420324   6.660   5.143   9.306 -0.0659  0.8446 -0.1259
  178SLPC  H14R20325   6.676   5.040   9.344 -0.3841  0.2886 -1.4664
  178SLPC  H14S20326   6.747   5.197   9.349  0.0913 -0.2335  0.9608
  178SLPC  C21520327   6.646   5.120   9.156 -0.0426  0.9409 -0.1188
  178SLPC  H15R20328   6.564   5.047   9.138  0.0442  1.4126 -2.8909
  178SLPC  H15S20329   6.734   5.061   9.121 -1.2523 -0.9515 -0.1642
  178SLPC  C21620330   6.640   5.243   9.078  0.2090  0.0660 -0.6450
  178SLPC  H16R20331   6.742   5.287   9.085 -0.4732  1.4840  1.7497
  178SLPC  H16S20332   6.573   5.319   9.124  0.3489 -1.0437  1.5641
  178SLPC  C21720333   6.603   5.211   8.928  0.6407 -0.6490  0.1424
  178SLPC  H17R20334   6.671   5.125   8.908  1.8801  0.0563  1.1756
  178SLPC  H17S20335   6.632   5.295   8.863 -1.1263  0.3356  0.5676
  178SLPC  C21820336   6.457   5.187   8.911 -0.3660 -0.2648  0.7663
  178SLPC  H18R20337   6.401   5.265   8.967 -0.8977  0.1391 -0.2910
  178SLPC  H18S20338   6.424   5.088   8.948  0.2390 -1.7660 -2.3426
  178SLPC  H18T20339   6.419   5.182   8.806 -1.3154 -2.1611  1.1642
  178SLPC   C3320340   5.874   5.441  10.175 -0.2538 -0.2614 -0.4369
  178SLPC   H3X20341   5.985   5.447  10.182 -0.1041 -2.1661 -0.6935
  178SLPC   H3Y20342   5.835   5.540  10.205  1.0645  0.0642  0.2940
  178SLPC   C3420343   5.827   5.407  10.033  1.3670  0.0546  0.2035
  178SLPC   H4X20344   5.866   5.312   9.988  2.0813 -0.0202  0.9602
  178SLPC   H4Y20345   5.885   5.476   9.967 -0.7639  1.5425 -0.1865
  178SLPC   C3520346   5.675   5.413   9.997  0.3501 -0.3470  0.0605
  178SLPC   H5X20347   5.630   5.511  10.024 -1.5691 -1.3026  0.4785
  178SLPC   H5Y20348   5.611   5.340  10.051 -0.2575 -0.4684 -0.8115
  178SLPC   C3620349   5.648   5.393   9.848 -0.7331  0.6621 -1.1618
  178SLPC   H6X20350   5.707   5.308   9.807  0.0668 -0.1935  1.5867
  178SLPC   H6Y20351   5.683   5.485   9.796 -1.7032  0.8283 -1.5624
  178SLPC   C3720352   5.495   5.370   9.831  0.2098  0.1889  0.6245
  178SLPC   H7X20353   5.452   5.472   9.840  0.1025  0.2323 -0.3143
  178SLPC   H7Y20354   5.448   5.310   9.912 -0.0025 -1.2198 -0.5096
  178SLPC   C3820355   5.447   5.318   9.689 -0.7193  0.0090  0.2697
  178SLPC   H8X20356   5.338   5.333   9.673 -0.8360 -0.4668  0.6089
  178SLPC   H8Y20357   5.477   5.212   9.703 -2.1495 -0.7344 -1.9061
  178SLPC   C3920358   5.522   5.389   9.565  0.0456 -0.1204 -1.0829
  178SLPC   H9X20359   5.628   5.360   9.580  0.1084  0.0128 -1.2658
  178SLPC   H9Y20360   5.521   5.500   9.572  0.9689 -0.1966  1.0813
  178SLPC  C31020361   5.477   5.349   9.430 -0.0657  0.1022 -0.1748
  178SLPC  H10X20362   5.368   5.366   9.416 -0.1306  0.5382  0.7585
  178SLPC  H10Y20363   5.488   5.241   9.408  1.3380  0.0502  0.6435
  178SLPC  C31120364   5.544   5.439   9.314  0.1819 -0.0313 -0.0177
  178SLPC  H11X20365   5.653   5.417   9.309  0.0570 -0.6685 -0.1347
  178SLPC  H11Y20366   5.535   5.548   9.329 -1.8984  0.0658 -1.5465
  178SLPC  C31220367   5.487   5.398   9.181  0.1613  0.3156 -0.4150
  178SLPC  H12X20368   5.496   5.288   9.172  1.8177  0.4662 -0.8998
  178SLPC  H12Y20369   5.555   5.434   9.102 -0.3029  2.9061  0.2617
  178SLPC  C31320370   5.358   5.471   9.145 -0.8311 -0.2983 -0.3804
  178SLPC  H13X20371   5.372   5.576   9.177  2.9799 -0.6570 -0.4719
  178SLPC  H13Y20372   5.283   5.420   9.210 -2.8679  2.1382 -0.6776
  178SLPC  C31420373   5.324   5.481   8.997 -0.1351 -0.3186  0.7377
  178SLPC  H14X20374   5.411   5.525   8.944  0.3322 -2.3611 -0.2993
  178SLPC  H14Y20375   5.242   5.556   8.988  1.0246  0.7858 -1.5184
  178SLPC  C31520376   5.288   5.349   8.941 -0.4475 -0.4563  0.1980
  178SLPC  H15X20377   5.374   5.282   8.962  0.9232  0.3013 -2.4499
  178SLPC  H15Y20378   5.196   5.321   8.996 -0.1908  0.8314  1.3454
  178SLPC  C31620379   5.231   5.360   8.801  0.4837  0.7316  0.3050
  178SLPC  H16X20380   5.146   5.431   8.805 -0.6198 -0.2429 -2.9145
  178SLPC  H16Y20381   5.183   5.281   8.740  0.5009  0.6714  0.3696
  178SLPC  C31720382   5.338   5.399   8.694  0.3594 -0.1465 -0.1140
  178SLPC  H17X20383   5.389   5.490   8.732  0.0848 -1.3018  3.2764
  178SLPC  H17Y20384   5.284   5.425   8.600 -0.9065  0.2241  0.6848
  178SLPC  C31820385   5.429   5.285   8.659 -0.3017 -0.6149  0.0991
  178SLPC  H18X20386   5.532   5.305   8.624 -0.2890 -0.1651  0.3911
  178SLPC  H18Y20387   5.381   5.212   8.589  2.7862 -1.9618 -0.7974
  178SLPC  H18Z20388   5.438   5.224   8.751 -3.3056 -1.6180 -0.1520
  179SLPC     N20389   0.279   1.901  10.616  0.3867 -0.0109 -0.0181
  179SLPC   C1320390   0.356   1.982  10.517  0.3005  0.0902  0.6275
  179SLPC  H13A20391   0.319   1.960  10.418  0.4435  0.1241  0.5661
  179SLPC  H13B20392   0.350   2.088  10.536 -0.4655  0.1071  0.3317
  179SLPC  H13C20393   0.459   1.948  10.516  0.3402 -0.0586 -2.9489
  179SLPC   C1420394   0.136   1.940  10.591 -0.4812 -0.2313  0.2125
  179SLPC  H14A20395   0.083   1.909  10.680 -0.4875 -1.9706 -0.3577
  179SLPC  H14B20396   0.115   2.044  10.570 -2.4153 -0.6609 -0.1351
  179SLPC  H14C20397   0.093   1.875  10.516  1.4796 -2.2510  0.7242
  179SLPC   C1520398   0.314   1.952  10.752 -0.0073  0.2855 -0.0838
  179SLPC  H15A20399   0.281   2.055  10.750 -0.0687  0.5992  4.8209
  179SLPC  H15B20400   0.261   1.906  10.834 -1.2958 -0.5892 -1.3838
  179SLPC  H15C20401   0.421   1.943  10.764 -0.0620 -0.2922 -0.0245
  179SLPC   C1220402   0.295   1.755  10.613  0.0106  0.4239  0.8689
  179SLPC  H12A20403   0.224   1.721  10.687 -1.5021  2.6408  0.5092
  179SLPC  H12B20404   0.394   1.723  10.644  0.4348  0.3094 -0.5009
  179SLPC   C1120405   0.269   1.684  10.473 -0.5268 -0.8080 -0.1282
  179SLPC  H11A20406   0.284   1.576  10.497  0.7183 -0.2125  1.9930
  179SLPC  H11B20407   0.353   1.708  10.404  0.6816 -0.8791  1.2697
  179SLPC     P20408   0.021   1.628  10.417 -0.0026  0.2219 -0.1347
  179SLPC   O1320409   0.026   1.553  10.545 -0.0483 -0.3709  0.0079
  179SLPC   O1420410  -0.095   1.716  10.388  0.7259 -0.7110 -0.1269
  179SLPC   O1220411   0.146   1.715  10.404  0.1422 -0.0165  0.2239
  179SLPC   O1120412   0.045   1.529  10.293 -0.4705 -0.5395 -0.1487
  179SLPC    C120413  -0.041   1.416  10.271  0.0081  0.5872 -0.2172
  179SLPC    HA20414   0.025   1.326  10.273 -0.9452 -0.1809 -1.7819
  179SLPC    HB20415  -0.116   1.402  10.352  0.1299  1.0786 -0.0130
  179SLPC    C220416  -0.110   1.429  10.129 -0.7340  0.0951  0.1281
  179SLPC    HS20417  -0.177   1.341  10.117  0.3876 -1.0672  1.8282
  179SLPC   O2120418  -0.014   1.423  10.018 -0.2639  0.0718  0.2920
  179SLPC   C2120419   0.062   1.315  10.011  0.5059  0.0113  0.4136
  179SLPC   O2220420   0.053   1.216  10.080 -0.5677  0.4933 -0.5029
  179SLPC   C2220421   0.162   1.335   9.897  0.8041  0.3709 -0.2646
  179SLPC   H2R20422   0.164   1.443   9.872 -0.7430  0.4285 -0.2408
  179SLPC   H2S20423   0.262   1.304   9.934  2.1281  2.7992 -1.5661
  179SLPC    C320424  -0.196   1.558  10.125 -0.1411 -0.1804  0.1121
  179SLPC    HX20425  -0.125   1.643  10.124 -1.9021  1.3603  0.3751
  179SLPC    HY20426  -0.259   1.569  10.216 -0.8755 -0.9311 -0.2887
  179SLPC   O3120427  -0.263   1.568  10.004 -0.2769 -0.0563 -0.2360
  179SLPC   C3120428  -0.383   1.512   9.994  0.5637  0.1468 -0.4565
  179SLPC   O3220429  -0.439   1.437  10.077 -0.3896 -0.9215 -0.1547
  179SLPC   C3220430  -0.448   1.546   9.860 -0.2939  0.0929  0.2816
  179SLPC   H2X20431  -0.400   1.632   9.808  0.6645 -0.3151  0.4819
  179SLPC   H2Y20432  -0.553   1.571   9.887 -0.3983 -0.1051  0.0584
  179SLPC   C2320433   0.112   1.262   9.764 -1.4167 -0.0791 -0.1459
  179SLPC   H3R20434   0.018   1.314   9.736 -1.7599  0.1809  1.3899
  179SLPC   H3S20435   0.084   1.155   9.775 -1.5451 -0.4273 -3.0640
  179SLPC   C2420436   0.207   1.273   9.638 -0.2823  0.3394 -0.2362
  179SLPC   H4R20437   0.308   1.238   9.668 -0.1976 -0.7573 -1.6555
  179SLPC   H4S20438   0.216   1.380   9.609 -0.4267  0.7993  1.3223
  179SLPC   C2520439   0.162   1.173   9.523 -0.0124 -0.1215  0.3156
  179SLPC   H5R20440   0.057   1.200   9.498 -0.4583 -3.6571 -2.4875
  179SLPC   H5S20441   0.175   1.068   9.555 -2.1788 -0.8528 -1.0380
  179SLPC   C2620442   0.239   1.204   9.396 -0.5953 -0.2448  0.4412
  179SLPC   H6R20443   0.348   1.190   9.410 -0.8106 -0.6143  1.9582
  179SLPC   H6S20444   0.215   1.305   9.358 -2.0870 -0.8189 -0.2023
  179SLPC   C2720445   0.202   1.104   9.280 -0.0143 -0.1488  0.6447
  179SLPC   H7R20446   0.092   1.108   9.268 -0.3147 -1.3451  2.5720
  179SLPC   H7S20447   0.228   1.001   9.313 -0.4836 -1.3846 -2.4655
  179SLPC   C2820448   0.253   1.137   9.144 -0.1244 -0.0110  0.3896
  179SLPC   H8R20449   0.353   1.088   9.145 -0.2644 -0.3072  1.9440
  179SLPC   H8S20450   0.261   1.246   9.124 -1.8485  0.1379  0.3571
  179SLPC   C2920451   0.172   1.080   9.028  0.3455  0.2948  0.0941
  179SLPC   H9R20452   0.085   1.018   9.053  0.5113 -0.5009 -1.1815
  179SLPC  C21020453   0.196   1.099   8.897  0.3909  0.5083  0.3067
  179SLPC  H10R20454   0.125   1.046   8.832  2.4112 -3.0216  0.6834
  179SLPC  C21120455   0.305   1.168   8.829 -0.2905 -0.3885 -0.5612
  179SLPC  H11R20456   0.398   1.113   8.853  0.3277  0.9643  0.2617
  179SLPC  H11S20457   0.324   1.268   8.873  0.9656 -0.0606 -1.7865
  179SLPC  C21220458   0.287   1.178   8.680 -0.0007 -0.3121 -1.2174
  179SLPC  H12R20459   0.322   1.092   8.620 -1.0759 -0.7776 -1.2109
  179SLPC  C21320460   0.213   1.273   8.617  0.2690  0.1491  0.3342
  179SLPC  H13R20461   0.194   1.273   8.509  0.2074  0.6882  0.3431
  179SLPC  C21420462   0.146   1.395   8.674  0.1474  0.2245 -0.0263
  179SLPC  H14R20463   0.107   1.379   8.777 -0.5017 -0.1210 -0.3243
  179SLPC  H14S20464   0.056   1.405   8.610  0.1920 -1.3773 -0.3773
  179SLPC  C21520465   0.231   1.517   8.664  1.0897  0.3260  0.0610
  179SLPC  H15R20466   0.335   1.502   8.702  1.1720 -0.0823 -0.3104
  179SLPC  H15S20467   0.189   1.587   8.739  0.9800 -2.3332  2.6387
  179SLPC  C21620468   0.248   1.575   8.517  0.0109  0.1986  0.2754
  179SLPC  H16R20469   0.277   1.487   8.456 -0.4065 -0.0804  0.4728
  179SLPC  H16S20470   0.336   1.643   8.517  0.7529 -0.7354  0.5908
  179SLPC  C21720471   0.136   1.658   8.458  0.1657 -0.0158 -0.4227
  179SLPC  H17R20472   0.129   1.763   8.494 -1.2030  0.7937 -2.8060
  179SLPC  H17S20473   0.044   1.620   8.505 -0.7690  3.0530  0.4803
  179SLPC  C21820474   0.124   1.669   8.308 -0.0280  0.0171  0.2843
  179SLPC  H18R20475   0.042   1.739   8.280 -1.3399 -0.7647  1.9507
  179SLPC  H18S20476   0.100   1.573   8.259  0.6899  0.0932 -0.2355
  179SLPC  H18T20477   0.213   1.724   8.269  1.1372 -1.7094  0.4149
  179SLPC   C3320478  -0.451   1.420   9.765 -0.3118 -0.2516 -0.6805
  179SLPC   H3X20479  -0.535   1.438   9.695  0.2645 -0.1059 -1.3523
  179SLPC   H3Y20480  -0.467   1.326   9.822 -2.5934  1.1067  1.0677
  179SLPC   C3420481  -0.318   1.422   9.684 -0.2332  0.8150 -0.4111
  179SLPC   H4X20482  -0.239   1.376   9.747 -0.0058  0.9404 -0.6048
  179SLPC   H4Y20483  -0.278   1.523   9.663  0.2218  0.9486  1.0215
  179SLPC   C3520484  -0.325   1.346   9.553 -0.7348  0.1213  0.3832
  179SLPC   H5X20485  -0.429   1.352   9.514 -0.7284  0.6741  0.4517
  179SLPC   H5Y20486  -0.310   1.239   9.579 -0.9517 -0.5234 -1.9033
  179SLPC   C3620487  -0.216   1.380   9.456 -0.2759 -0.2826  0.6306
  179SLPC   H6X20488  -0.115   1.368   9.501 -0.8685 -0.1677  2.0403
  179SLPC   H6Y20489  -0.216   1.486   9.425  0.6529 -0.6591 -0.7389
  179SLPC   C3720490  -0.227   1.294   9.320  0.7976 -0.0173 -0.1008
  179SLPC   H7X20491  -0.261   1.193   9.351  0.5882 -0.3540 -1.3702
  179SLPC   H7Y20492  -0.129   1.298   9.266  1.0084  0.0810  0.2862
  179SLPC   C3820493  -0.329   1.362   9.237  0.1200 -0.6295  0.9753
  179SLPC   H8X20494  -0.287   1.462   9.212 -1.2281 -0.9413 -3.3867
  179SLPC   H8Y20495  -0.424   1.364   9.295 -0.6969  0.0622 -0.3250
  179SLPC   C3920496  -0.360   1.268   9.122  0.2533  0.1767 -0.4584
  179SLPC   H9X20497  -0.457   1.308   9.085  0.9255  1.0597 -1.3292
  179SLPC   H9Y20498  -0.380   1.163   9.154 -0.8008  0.3884 -0.3828
  179SLPC  C31020499  -0.259   1.277   9.007  0.4225  0.1636 -0.5133
  179SLPC  H10X20500  -0.162   1.247   9.050  0.5732  1.9423  0.4926
  179SLPC  H10Y20501  -0.256   1.383   8.973  1.4922 -0.0686 -1.1799
  179SLPC  C31120502  -0.290   1.178   8.887 -0.5369  0.3878  0.1264
  179SLPC  H11X20503  -0.381   1.217   8.837 -0.7681  1.0000  0.9832
  179SLPC  H11Y20504  -0.316   1.078   8.929 -0.4202  0.4721  0.4067
  179SLPC  C31220505  -0.171   1.153   8.807 -0.3389  0.3358  0.4447
  179SLPC  H12X20506  -0.105   1.096   8.876  1.0605  1.5370  0.1267
  179SLPC  H12Y20507  -0.110   1.241   8.778  0.7086 -0.5996 -0.2778
  179SLPC  C31320508  -0.214   1.097   8.678 -0.5869  0.7908 -0.2389
  179SLPC  H13X20509  -0.261   1.178   8.618 -1.4066  1.0516  0.7426
  179SLPC  H13Y20510  -0.284   1.013   8.699  0.2678  0.1594  0.1712
  179SLPC  C31420511  -0.100   1.026   8.600 -0.3603  0.1570  0.1165
  179SLPC  H14X20512  -0.048   0.942   8.650  0.6544 -0.9500 -2.5883
  179SLPC  H14Y20513  -0.030   1.110   8.580 -0.6903  0.2374 -0.7600
  179SLPC  C31520514  -0.144   0.967   8.463  0.0696 -0.1827  0.8203
  179SLPC  H15X20515  -0.220   1.034   8.418 -0.0783  0.0851  1.4515
  179SLPC  H15Y20516  -0.197   0.871   8.479  0.9823 -0.5134  2.1067
  179SLPC  C31620517  -0.029   0.958   8.360 -0.5861  0.5656  0.3040
  179SLPC  H16X20518   0.049   0.884   8.388 -0.1731  1.2709  1.0641
  179SLPC  H16Y20519   0.020   1.057   8.352  3.6829 -1.3134  0.4954
  179SLPC  C31720520  -0.082   0.914   8.222 -0.3001  0.0722  0.3142
  179SLPC  H17X20521  -0.019   0.955   8.140 -0.1776  0.4959  0.6159
  179SLPC  H17Y20522  -0.183   0.961   8.211 -0.8167 -1.2085 -0.7033
  179SLPC  C31820523  -0.087   0.761   8.198 -0.3008 -1.0421  0.4400
  179SLPC  H18X20524  -0.112   0.739   8.092 -0.5764 -1.2684  0.5479
  179SLPC  H18Y20525  -0.170   0.726   8.264 -0.8518 -0.5510  0.0182
  179SLPC  H18Z20526   0.008   0.712   8.229  0.6863  1.2323  1.1866
  180SLPC     N20527   5.822   1.360  10.709 -0.0203  0.5579  0.3127
  180SLPC   C1320528   5.870   1.327  10.837  0.3175  0.5231 -0.0713
  180SLPC  H13A20529   5.954   1.259  10.843  0.4931  0.7095 -0.4195
  180SLPC  H13B20530   5.905   1.415  10.889 -1.1267  1.5553 -0.7950
  180SLPC  H13C20531   5.784   1.289  10.889  0.2192 -1.2464 -1.4267
  180SLPC   C1420532   5.698   1.447  10.718  0.7715 -0.1296  0.0882
  180SLPC  H14A20533   5.721   1.552  10.727  0.4476  0.0067 -0.5716
  180SLPC  H14B20534   5.638   1.425  10.631  0.6922 -1.1334  0.3769
  180SLPC  H14C20535   5.640   1.410  10.801 -1.6889 -0.7810 -1.8049
  180SLPC   C1520536   5.775   1.227  10.653  0.9440 -0.0998 -0.1653
  180SLPC  H15A20537   5.669   1.214  10.673  0.4637  3.5469  0.2811
  180SLPC  H15B20538   5.789   1.223  10.546 -0.5361 -1.9144 -0.3442
  180SLPC  H15C20539   5.831   1.145  10.696  1.7379  0.5823  0.1155
  180SLPC   C1220540   5.927   1.421  10.616  0.7665  0.0831  0.2372
  180SLPC  H12A20541   5.945   1.524  10.643  1.3879 -0.0833  0.4542
  180SLPC  H12B20542   5.890   1.433  10.515  1.3341 -3.0308 -0.4418
  180SLPC   C1120543   6.059   1.344  10.600  0.7660  0.5327 -0.3707
  180SLPC  H11A20544   6.119   1.396  10.522 -1.1828  1.8665 -1.0662
  180SLPC  H11B20545   6.039   1.239  10.568  1.3109  0.5353 -0.7300
  180SLPC     P20546   6.222   1.245  10.780 -0.1511  0.1653  0.0337
  180SLPC   O1320547   6.339   1.297  10.848  0.6180 -0.0461  0.4576
  180SLPC   O1420548   6.134   1.144  10.847 -0.3840 -0.4533  0.8158
  180SLPC   O1220549   6.132   1.360  10.716 -0.0814  0.8325 -0.1064
  180SLPC   O1120550   6.286   1.176  10.652  0.8148 -0.0382 -0.1094
  180SLPC    C120551   6.351   1.051  10.676  1.1332 -0.4550  0.4201
  180SLPC    HA20552   6.387   1.036  10.780 -0.9815 -0.5866  1.1630
  180SLPC    HB20553   6.274   0.975  10.649 -1.9585  2.3587  0.7488
  180SLPC    C220554   6.470   1.049  10.588  0.2308  0.1579  0.7411
  180SLPC    HS20555   6.520   1.147  10.599  1.6938 -0.6129  1.2672
  180SLPC   O2120556   6.430   1.028  10.450 -0.6253  0.4836  0.3705
  180SLPC   C2120557   6.516   1.080  10.363  0.5876 -0.0173  0.3241
  180SLPC   O2220558   6.614   1.143  10.390 -0.4387 -0.4207 -0.2142
  180SLPC   C2220559   6.466   1.063  10.222  0.3094  0.2019 -0.8297
  180SLPC   H2R20560   6.402   0.973  10.211  0.4241  0.0467 -0.2181
  180SLPC   H2S20561   6.401   1.153  10.211  0.1278  0.1326 -0.3415
  180SLPC    C320562   6.581   0.944  10.631  0.0008  0.5742 -0.4659
  180SLPC    HX20563   6.528   0.853  10.668 -2.5154  1.5108 -1.5814
  180SLPC    HY20564   6.632   0.993  10.717 -1.2811  1.1723 -0.0168
  180SLPC   O3120565   6.682   0.912  10.530  0.7037 -0.3518  0.4476
  180SLPC   C3120566   6.741   0.791  10.545  0.1926 -0.3690  0.4236
  180SLPC   O3220567   6.704   0.702  10.625 -0.0394 -0.3774  0.2889
  180SLPC   C3220568   6.846   0.775  10.440  0.4697  0.1605  0.7135
  180SLPC   H2X20569   6.935   0.715  10.469 -1.1167 -3.5135 -1.2291
  180SLPC   H2Y20570   6.882   0.872  10.401  1.0706  0.4893  2.0553
  180SLPC   C2320571   6.577   1.057  10.121 -0.3475 -0.1898 -0.3064
  180SLPC   H3R20572   6.611   0.952  10.134 -0.7233 -0.5159 -1.8754
  180SLPC   H3S20573   6.653   1.137  10.137 -0.2942 -0.4487  0.8315
  180SLPC   C2420574   6.522   1.079   9.982 -1.1822  0.0104 -0.0833
  180SLPC   H4R20575   6.488   1.185   9.974 -1.1740  0.0765  0.6984
  180SLPC   H4S20576   6.441   1.004   9.969 -0.8584 -0.1136 -1.5597
  180SLPC   C2520577   6.631   1.055   9.871 -0.6646 -0.4097 -0.1109
  180SLPC   H5R20578   6.695   0.965   9.886  0.3093  0.3424  0.3337
  180SLPC   H5S20579   6.698   1.143   9.882  2.1156 -2.6099  2.3462
  180SLPC   C2620580   6.580   1.022   9.729  0.2669 -0.5931 -0.1920
  180SLPC   H6R20581   6.494   1.087   9.701  0.3700 -0.7936 -1.0052
  180SLPC   H6S20582   6.543   0.917   9.731 -0.5283 -0.3175 -0.2238
  180SLPC   C2720583   6.689   1.011   9.623  0.4046  0.0791  0.0854
  180SLPC   H7R20584   6.785   0.990   9.674 -0.2148  0.0790  1.2694
  180SLPC   H7S20585   6.711   1.107   9.571 -0.0387  1.1275  1.7449
  180SLPC   C2820586   6.664   0.901   9.522  0.0894 -0.6144 -0.1749
  180SLPC   H8R20587   6.643   0.810   9.582 -0.4601 -0.6255 -0.3799
  180SLPC   H8S20588   6.759   0.880   9.466  0.6314  2.2485 -0.4944
  180SLPC   C2920589   6.539   0.936   9.447  0.1350 -0.4963 -0.6718
  180SLPC   H9R20590   6.457   0.969   9.512  0.2099  1.1305 -1.3409
  180SLPC  C21020591   6.523   0.941   9.313  0.0249 -0.0642 -0.2860
  180SLPC  H10R20592   6.438   0.997   9.271 -2.0661 -1.6910  1.5631
  180SLPC  C21120593   6.624   0.916   9.205 -0.1214  0.5876  0.7374
  180SLPC  H11R20594   6.726   0.920   9.250  0.0986  0.9432  0.2063
  180SLPC  H11S20595   6.612   1.000   9.134 -0.6441  1.0034  1.3113
  180SLPC  C21220596   6.632   0.774   9.158  0.5394  0.1494 -0.7354
  180SLPC  H12R20597   6.627   0.693   9.233 -2.4607 -0.2319 -1.2137
  180SLPC  C21320598   6.639   0.725   9.031 -0.6814 -0.5751 -0.1028
  180SLPC  H13R20599   6.639   0.616   9.018 -0.0117 -0.8853  2.0829
  180SLPC  C21420600   6.647   0.803   8.905 -0.1602 -0.1563 -0.2704
  180SLPC  H14R20601   6.746   0.853   8.893 -0.0271  0.2249  2.0997
  180SLPC  H14S20602   6.574   0.887   8.908  0.8519  0.7572  3.0027
  180SLPC  C21520603   6.608   0.701   8.796 -0.5956  0.2732 -0.8716
  180SLPC  H15R20604   6.586   0.758   8.704 -0.2145 -1.5708 -2.1775
  180SLPC  H15S20605   6.520   0.637   8.817 -1.0166  1.5122  1.4600
  180SLPC  C21620606   6.736   0.626   8.743 -0.0875  0.5893  0.3597
  180SLPC  H16R20607   6.778   0.551   8.813 -0.3556  1.0256  0.9978
  180SLPC  H16S20608   6.819   0.695   8.720 -0.1688  0.8760  0.9120
  180SLPC  C21720609   6.704   0.542   8.620  0.7104  0.2436 -0.4082
  180SLPC  H17R20610   6.645   0.602   8.548  0.0637  1.1466  0.8262
  180SLPC  H17S20611   6.628   0.465   8.648  0.4029  0.6047 -0.2359
  180SLPC  C21820612   6.826   0.490   8.548  0.6796 -0.7186 -0.4057
  180SLPC  H18R20613   6.876   0.579   8.504 -2.1226  0.6415 -1.0311
  180SLPC  H18S20614   6.791   0.418   8.471 -0.4734  0.1563 -0.7191
  180SLPC  H18T20615   6.895   0.437   8.618  0.5957  0.9171  0.9997
  180SLPC   C3320616   6.793   0.697  10.322  0.0658 -0.1907  0.8416
  180SLPC   H3X20617   6.708   0.753  10.278  0.8487 -0.6910 -1.4341
  180SLPC   H3Y20618   6.748   0.603  10.362  1.7877 -0.8317  1.3370
  180SLPC   C3420619   6.901   0.649  10.219  0.2657  0.4367 -0.3304
  180SLPC   H4X20620   6.861   0.581  10.140  1.5136  0.4847 -1.0223
  180SLPC   H4Y20621   6.984   0.590  10.263 -0.9176 -0.8067  0.3075
  180SLPC   C3520622   6.963   0.770  10.147 -0.1126 -0.1400  0.0609
  180SLPC   H5X20623   7.049   0.808  10.206 -1.0425  0.2166  1.2265
  180SLPC   H5Y20624   6.894   0.856  10.155 -1.9471 -1.6272  0.8166
  180SLPC   C3620625   6.997   0.738  10.003 -0.6025 -0.4206 -0.7265
  180SLPC   H6X20626   6.912   0.690   9.951 -2.9261  2.0876  0.4782
  180SLPC   H6Y20627   7.082   0.666  10.004 -1.5436 -1.5657 -0.8945
  180SLPC   C3720628   7.058   0.863   9.931 -0.1014 -0.3573  0.2135
  180SLPC   H7X20629   7.138   0.898  10.000 -0.2727 -1.5476  1.0413
  180SLPC   H7Y20630   6.978   0.939   9.920 -0.0124 -0.1383  0.9854
  180SLPC   C3820631   7.108   0.838   9.787 -0.3234  0.4817 -0.5782
  180SLPC   H8X20632   7.195   0.770   9.799 -1.6738 -1.1374  0.3255
  180SLPC   H8Y20633   7.155   0.933   9.752  2.6723 -0.7876 -0.2908
  180SLPC   C3920634   7.005   0.779   9.689  0.0318 -0.3864  0.6257
  180SLPC   H9X20635   6.910   0.837   9.686 -1.4049 -2.4957 -3.3155
  180SLPC   H9Y20636   6.975   0.676   9.720  1.6240 -1.6392 -1.6867
  180SLPC  C31020637   7.065   0.762   9.554  0.7726  0.3146  0.6165
  180SLPC  H10X20638   7.175   0.748   9.559  1.2421  2.8812 -0.5834
  180SLPC  H10Y20639   7.064   0.859   9.500 -2.7520 -0.0572 -0.1707
  180SLPC  C31120640   7.007   0.655   9.459 -0.0785 -0.0966 -0.3023
  180SLPC  H11X20641   6.898   0.672   9.449 -0.2814  0.2287  1.9092
  180SLPC  H11Y20642   7.016   0.553   9.502 -1.0350 -0.1313 -0.1673
  180SLPC  C31220643   7.072   0.666   9.318  0.0453 -0.5331 -0.2728
  180SLPC  H12X20644   7.177   0.633   9.335  0.6455  0.8930 -1.0224
  180SLPC  H12Y20645   7.072   0.771   9.281 -2.3223 -0.5193 -0.3582
  180SLPC  C31320646   7.008   0.579   9.203 -0.7288  0.2745 -0.6755
  180SLPC  H13X20647   6.901   0.597   9.180 -1.0834 -0.6197  0.1754
  180SLPC  H13Y20648   7.007   0.481   9.257  0.4794  0.8265  0.4192
  180SLPC  C31420649   7.097   0.566   9.084 -0.2675 -0.4988  0.8766
  180SLPC  H14X20650   7.083   0.471   9.028  2.5547  0.7720 -2.3198
  180SLPC  H14Y20651   7.204   0.569   9.114  0.2310 -2.4269 -0.5212
  180SLPC  C31520652   7.073   0.687   8.991 -0.0939 -0.1892  0.3896
  180SLPC  H15X20653   7.128   0.778   9.024  1.0299 -0.0692 -1.6510
  180SLPC  H15Y20654   6.967   0.721   8.980  0.4833  1.0295 -2.0893
  180SLPC  C31620655   7.106   0.652   8.847  0.1675  0.3134 -0.5460
  180SLPC  H16X20656   7.034   0.575   8.810 -1.9196  1.1912  1.4578
  180SLPC  H16Y20657   7.211   0.616   8.842  0.7231  1.8085 -0.1446
  180SLPC  C31720658   7.093   0.775   8.757 -0.2940  0.4332 -0.3311
  180SLPC  H17X20659   7.165   0.855   8.786 -1.0962  0.0442  3.1646
  180SLPC  H17Y20660   6.992   0.820   8.769 -0.2271  0.2290  1.2754
  180SLPC  C31820661   7.122   0.745   8.613  0.0959  0.3546  0.2658
  180SLPC  H18X20662   7.076   0.647   8.587 -0.1535  0.9385 -1.6431
  180SLPC  H18Y20663   7.232   0.741   8.597 -0.2002  1.2823 -2.4571
  180SLPC  H18Z20664   7.084   0.827   8.548  1.1725  1.7347  1.3194
  181SLPC     N20665   3.231   5.719  10.915 -0.3881 -0.3959  0.3253
  181SLPC   C1320666   3.240   5.782  10.778  0.2570 -0.3709 -0.2722
  181SLPC  H13A20667   3.229   5.712  10.697 -0.4686 -0.3486 -0.2020
  181SLPC  H13B20668   3.155   5.849  10.778 -0.4815 -1.0866  3.4855
  181SLPC  H13C20669   3.332   5.836  10.764  1.3122 -0.5103  4.3769
  181SLPC   C1420670   3.090   5.653  10.911 -0.5561  0.3148 -1.1719
  181SLPC  H14A20671   3.084   5.593  11.000  2.4501 -1.2439 -1.8660
  181SLPC  H14B20672   3.020   5.734  10.894  0.5065  1.1929 -1.5072
  181SLPC  H14C20673   3.092   5.578  10.834  3.2189 -2.0078  0.8855
  181SLPC   C1520674   3.243   5.827  11.017 -0.1552 -0.4060 -0.8633
  181SLPC  H15A20675   3.154   5.889  11.017  0.3776  0.3783 -1.4380
  181SLPC  H15B20676   3.252   5.784  11.116  0.8928  0.4349 -0.5754
  181SLPC  H15C20677   3.319   5.898  10.988 -0.8022  0.3621 -0.7231
  181SLPC   C1220678   3.341   5.613  10.931  0.5886 -0.4671 -0.2657
  181SLPC  H12A20679   3.319   5.564  11.025 -1.4024  0.9407  0.0710
  181SLPC  H12B20680   3.432   5.670  10.946 -0.3372  1.4299 -1.4719
  181SLPC   C1120681   3.366   5.505  10.814  0.2524  0.3644 -0.0084
  181SLPC  H11A20682   3.442   5.435  10.856  1.0581  0.6312 -0.9774
  181SLPC  H11B20683   3.412   5.562  10.730  1.5445 -1.4541 -0.5977
  181SLPC     P20684   3.228   5.278  10.797 -0.1583  0.1613 -0.2367
  181SLPC   O1320685   3.217   5.254  10.942  0.0417  0.7730  0.3198
  181SLPC   O1420686   3.113   5.225  10.720  0.0297 -0.8570  0.1843
  181SLPC   O1220687   3.245   5.432  10.765 -0.0734 -0.2836  0.1520
  181SLPC   O1120688   3.372   5.229  10.750 -1.0280 -0.1080  0.5622
  181SLPC    C120689   3.418   5.245  10.612  0.3068  0.3214 -0.3774
  181SLPC    HA20690   3.336   5.294  10.556 -1.0465 -0.9237  0.4347
  181SLPC    HB20691   3.508   5.307  10.593  0.3119  0.5085  0.2439
  181SLPC    C220692   3.437   5.111  10.539 -0.7407 -0.1084  0.1448
  181SLPC    HS20693   3.342   5.054  10.547  0.1602 -1.5538  0.8787
  181SLPC   O2120694   3.554   5.051  10.595  0.7346  0.6617 -0.5328
  181SLPC   C2120695   3.528   4.920  10.613 -0.0297  0.1986 -1.2171
  181SLPC   O2220696   3.430   4.861  10.582  0.7240 -0.2277 -0.1234
  181SLPC   C2220697   3.646   4.861  10.692  0.1482  0.2134 -0.3236
  181SLPC   H2R20698   3.739   4.913  10.661  0.2122  0.0045 -0.4877
  181SLPC   H2S20699   3.614   4.882  10.796 -0.6112  0.7932 -0.6651
  181SLPC    C320700   3.458   5.125  10.388 -0.3703  0.2462  0.2265
  181SLPC    HX20701   3.470   5.034  10.325 -1.6670  0.9658 -1.1282
  181SLPC    HY20702   3.552   5.182  10.373 -0.9819  1.6204  1.3996
  181SLPC   O3120703   3.356   5.196  10.323  0.2221 -0.7634  0.3903
  181SLPC   C3120704   3.256   5.141  10.279 -0.0620  0.1586  0.4122
  181SLPC   O3220705   3.240   5.022  10.264  0.7871 -0.1381 -0.2610
  181SLPC   C3220706   3.161   5.250  10.232  0.6157  0.2298  0.2344
  181SLPC   H2X20707   3.212   5.342  10.197 -0.0441 -0.1630 -1.9367
  181SLPC   H2Y20708   3.096   5.276  10.318  0.2655  2.8242 -0.7060
  181SLPC   C2320709   3.653   4.710  10.659  0.6413 -0.2015  0.1173
  181SLPC   H3R20710   3.550   4.673  10.681  0.1306  1.1218  0.0605
  181SLPC   H3S20711   3.720   4.652  10.726  0.4513  0.4533  0.8771
  181SLPC   C2420712   3.702   4.685  10.511 -0.3688  0.2430 -0.0757
  181SLPC   H4R20713   3.813   4.693  10.502 -0.2496  0.1021  1.0308
  181SLPC   H4S20714   3.657   4.767  10.451 -1.6944 -0.5099 -0.1501
  181SLPC   C2520715   3.661   4.550  10.444  0.9327 -0.0115 -0.3132
  181SLPC   H5R20716   3.554   4.538  10.473  0.5638  2.0510 -0.6133
  181SLPC   H5S20717   3.717   4.474  10.502  0.4127 -1.7395 -1.9705
  181SLPC   C2620718   3.681   4.546  10.295 -0.1928 -0.1732  0.5280
  181SLPC   H6R20719   3.790   4.561  10.280  0.2588  1.1594  4.1352
  181SLPC   H6S20720   3.627   4.636  10.258 -0.8985 -0.3216  1.1648
  181SLPC   C2720721   3.632   4.420  10.219 -0.0956  0.1003 -0.5915
  181SLPC   H7R20722   3.640   4.336  10.291  0.1715 -0.7345 -1.5782
  181SLPC   H7S20723   3.708   4.400  10.141 -1.8340  0.6529 -2.5076
  181SLPC   C2820724   3.499   4.431  10.144  0.4752  0.6839  0.2518
  181SLPC   H8R20725   3.522   4.511  10.070  2.5598  0.3914  0.5238
  181SLPC   H8S20726   3.416   4.482  10.200  0.9249  1.0009  0.6430
  181SLPC   C2920727   3.441   4.303  10.090 -0.5408 -0.0027 -0.2800
  181SLPC   H9R20728   3.373   4.252  10.160  1.3713 -0.7667  1.0910
  181SLPC  C21020729   3.456   4.260   9.963  0.2788 -0.1679 -0.0680
  181SLPC  H10R20730   3.405   4.170   9.925  0.2205  0.7059 -2.1661
  181SLPC  C21120731   3.532   4.327   9.850  0.2801 -0.0888  0.3160
  181SLPC  H11R20732   3.609   4.257   9.813 -2.9514 -3.2397 -1.1303
  181SLPC  H11S20733   3.579   4.424   9.878  0.2568 -0.6231  2.3749
  181SLPC  C21220734   3.434   4.341   9.733  0.1732 -0.3964  0.6301
  181SLPC  H12R20735   3.338   4.386   9.762 -0.3402 -0.2891 -1.1077
  181SLPC  C21320736   3.455   4.311   9.602  0.0427  0.4885 -0.7736
  181SLPC  H13R20737   3.370   4.332   9.535  1.2142  2.9658 -1.5838
  181SLPC  C21420738   3.574   4.272   9.527 -0.1549  0.4313 -0.7970
  181SLPC  H14R20739   3.546   4.193   9.454 -0.8532  0.1247 -0.2156
  181SLPC  H14S20740   3.647   4.230   9.599 -1.4714 -1.4915 -0.5069
  181SLPC  C21520741   3.630   4.385   9.440 -0.2323  0.2838  0.3331
  181SLPC  H15R20742   3.697   4.457   9.492 -1.3087  2.1276 -0.7346
  181SLPC  H15S20743   3.544   4.442   9.397 -0.7318 -0.9075 -0.2946
  181SLPC  C21620744   3.704   4.337   9.316 -0.7697 -0.8760  0.8159
  181SLPC  H16R20745   3.737   4.422   9.252  1.3899 -1.5931  0.9004
  181SLPC  H16S20746   3.637   4.276   9.251 -3.9973  2.2519  0.8383
  181SLPC  C21720747   3.837   4.269   9.357  0.2659  0.2152 -0.1992
  181SLPC  H17R20748   3.810   4.162   9.372  3.0418 -0.2727  2.3865
  181SLPC  H17S20749   3.880   4.306   9.452 -0.1085  0.5352 -0.1522
  181SLPC  C21820750   3.942   4.283   9.246  0.2622 -0.3860  0.0621
  181SLPC  H18R20751   3.984   4.386   9.256 -2.1299  0.5669  1.0855
  181SLPC  H18S20752   3.892   4.280   9.146 -0.8959 -1.7083  0.6485
  181SLPC  H18T20753   4.023   4.207   9.247  1.2415  0.4993 -2.2677
  181SLPC   C3320754   3.071   5.184  10.129 -0.1390 -0.4033  0.3724
  181SLPC   H3X20755   2.996   5.119  10.180 -1.7221  1.1006  0.0482
  181SLPC   H3Y20756   3.130   5.121  10.060  1.7543 -0.4792  1.9512
  181SLPC   C3420757   2.992   5.277  10.041 -0.2090 -0.0357 -0.5068
  181SLPC   H4X20758   2.949   5.363  10.098  0.4645 -0.6086  0.9112
  181SLPC   H4Y20759   2.909   5.229   9.985 -1.3992 -0.2839  1.4111
  181SLPC   C3520760   3.076   5.353   9.936 -0.2329  0.2730  0.1413
  181SLPC   H5X20761   3.107   5.273   9.865 -0.8523  0.0731  0.0846
  181SLPC   H5Y20762   3.167   5.401   9.977  0.4446 -0.2488 -0.7178
  181SLPC   C3620763   2.989   5.454   9.868  0.8621 -0.4228 -0.0511
  181SLPC   H6X20764   2.957   5.531   9.941  0.5090  0.2334 -0.8791
  181SLPC   H6Y20765   2.898   5.398   9.838  2.4706 -2.6582 -1.0874
  181SLPC   C3720766   3.057   5.505   9.739  0.3332 -0.0867  0.7239
  181SLPC   H7X20767   3.020   5.438   9.659  0.3884 -0.8492  1.3305
  181SLPC   H7Y20768   3.167   5.499   9.745  0.3297 -0.5481  0.3619
  181SLPC   C3820769   3.015   5.644   9.687 -0.5213 -0.5202 -0.1941
  181SLPC   H8X20770   3.052   5.708   9.770 -0.3716 -1.7697  0.7259
  181SLPC   H8Y20771   2.906   5.663   9.688 -0.4296  0.0044  0.7799
  181SLPC   C3920772   3.074   5.687   9.554 -0.4052 -0.0953 -0.6948
  181SLPC   H9X20773   3.183   5.666   9.548  0.4175  2.6748  2.1484
  181SLPC   H9Y20774   3.079   5.797   9.546  0.7449 -0.2571 -5.4638
  181SLPC  C31020775   2.995   5.629   9.436  0.6387  0.4527  0.0387
  181SLPC  H10X20776   2.900   5.685   9.450 -0.0972 -0.6441 -0.4484
  181SLPC  H10Y20777   2.976   5.521   9.453  0.8436  0.3005 -0.6803
  181SLPC  C31120778   3.061   5.650   9.299  0.2032  0.1920 -0.5341
  181SLPC  H11X20779   3.155   5.592   9.299  0.7103  0.9805  0.2730
  181SLPC  H11Y20780   3.083   5.759   9.300 -0.9481  0.4525 -1.3865
  181SLPC  C31220781   2.982   5.603   9.176  0.8404 -0.1014 -0.1407
  181SLPC  H12X20782   2.889   5.659   9.156  0.4785 -0.6437  0.0116
  181SLPC  H12Y20783   2.953   5.499   9.201 -2.0831  0.5009 -0.6586
  181SLPC  C31320784   3.063   5.612   9.045 -0.8036 -0.2446  0.8077
  181SLPC  H13X20785   3.019   5.534   8.978 -1.2659  2.2480 -2.0224
  181SLPC  H13Y20786   3.168   5.581   9.064 -0.1836  0.3324 -1.3486
  181SLPC  C31420787   3.073   5.750   8.984  0.4311 -0.0096  0.1202
  181SLPC  H14X20788   3.127   5.822   9.049  1.4314  0.1024 -0.7964
  181SLPC  H14Y20789   2.971   5.794   8.976  0.3084 -0.4807 -1.2813
  181SLPC  C31520790   3.136   5.749   8.844 -0.1557  0.1084  0.3541
  181SLPC  H15X20791   3.183   5.849   8.829 -0.3247  0.0477 -0.6262
  181SLPC  H15Y20792   3.056   5.737   8.767 -0.3041  3.1683 -0.1087
  181SLPC  C31620793   3.241   5.639   8.817  0.0771  0.0125 -0.2616
  181SLPC  H16X20794   3.203   5.538   8.790 -3.3192  1.2505 -0.6395
  181SLPC  H16Y20795   3.305   5.619   8.906 -2.5901  0.7474  1.9509
  181SLPC  C31720796   3.339   5.664   8.705  0.1836  0.2512  0.3333
  181SLPC  H17X20797   3.375   5.769   8.709 -1.3466  0.7986  0.7900
  181SLPC  H17Y20798   3.292   5.654   8.605  1.0268 -1.3218  0.0582
  181SLPC  C31820799   3.459   5.575   8.720  0.5274  0.0448 -0.7702
  181SLPC  H18X20800   3.505   5.603   8.817  0.3789  1.2708 -1.0310
  181SLPC  H18Y20801   3.528   5.602   8.637 -0.8174 -0.2091 -2.0303
  181SLPC  H18Z20802   3.434   5.467   8.713 -2.7552  0.4856  1.4305
  182SLPC     N20803   2.391   4.514  10.914 -0.0754  0.0100  0.5430
  182SLPC   C1320804   2.336   4.401  10.833 -0.0174 -0.2747 -1.0012
  182SLPC  H13A20805   2.419   4.353  10.785  0.1739 -0.9086 -0.0690
  182SLPC  H13B20806   2.284   4.330  10.897 -1.7033 -0.1653 -2.1815
  182SLPC  H13C20807   2.269   4.444  10.760 -2.1738  1.3089  1.7185
  182SLPC   C1420808   2.507   4.467  10.994 -0.2766 -0.2720  0.6705
  182SLPC  H14A20809   2.480   4.385  11.058 -0.1706 -2.3096 -1.7237
  182SLPC  H14B20810   2.588   4.428  10.934  0.5444 -0.6734  1.9871
  182SLPC  H14C20811   2.548   4.555  11.040 -1.6543  0.3346  0.7878
  182SLPC   C1520812   2.288   4.560  11.010 -0.0310 -0.1437  0.1668
  182SLPC  H15A20813   2.316   4.651  11.061 -0.8498 -0.4687  1.2422
  182SLPC  H15B20814   2.197   4.578  10.954  1.2693  0.5349 -1.8320
  182SLPC  H15C20815   2.266   4.490  11.090 -2.7420  2.3179  1.7709
  182SLPC   C1220816   2.445   4.628  10.821  0.1514  0.3307 -0.3683
  182SLPC  H12A20817   2.517   4.585  10.753 -0.0129  0.2460 -0.4890
  182SLPC  H12B20818   2.505   4.692  10.884  0.5169 -1.3500  1.0726
  182SLPC   C1120819   2.343   4.710  10.736  0.3183  0.3950 -0.4626
  182SLPC  H11A20820   2.395   4.792  10.681  0.6372  0.7086  0.2902
  182SLPC  H11B20821   2.273   4.765  10.803  0.5714  0.5290 -0.3044
  182SLPC     P20822   2.308   4.565  10.525  0.3200  0.0362 -0.2376
  182SLPC   O1320823   2.438   4.508  10.545 -0.6056 -0.6707 -0.2859
  182SLPC   O1420824   2.207   4.464  10.480 -0.0319 -0.5719 -0.3157
  182SLPC   O1220825   2.260   4.627  10.660  0.3428  0.3239  0.0369
  182SLPC   O1120826   2.316   4.691  10.432  0.3538 -0.0959 -0.2808
  182SLPC    C120827   2.203   4.760  10.398 -0.0001 -0.3932  0.6775
  182SLPC    HA20828   2.147   4.713  10.315 -0.5529  1.9202 -0.3243
  182SLPC    HB20829   2.138   4.773  10.488 -0.0870 -0.7745  0.6700
  182SLPC    C220830   2.237   4.910  10.359  0.4723  0.0990  0.6154
  182SLPC    HS20831   2.141   4.965  10.369  1.2263  1.3033  1.6787
  182SLPC   O2120832   2.280   4.917  10.225 -0.1024  0.3344 -0.3895
  182SLPC   C2120833   2.229   5.017  10.156  0.6666 -0.2881  0.0289
  182SLPC   O2220834   2.156   5.102  10.201 -0.2580  0.3237 -0.1716
  182SLPC   C2220835   2.291   4.999  10.014  0.2420 -0.1612  0.1610
  182SLPC   H2R20836   2.401   5.012  10.030  0.3979 -0.0992 -0.8970
  182SLPC   H2S20837   2.259   4.901   9.972 -4.2384  0.6722  1.1665
  182SLPC    C320838   2.332   4.975  10.459  0.2477  0.6280 -0.1519
  182SLPC    HX20839   2.429   4.921  10.452 -1.5052 -2.7840 -0.2235
  182SLPC    HY20840   2.289   4.961  10.560  1.7693  1.5388  0.6605
  182SLPC   O3120841   2.345   5.114  10.423  0.2345 -0.5533 -0.2160
  182SLPC   C3120842   2.448   5.188  10.467  0.2876  0.3618  0.4797
  182SLPC   O3220843   2.545   5.132  10.516  0.1256  0.5758 -0.4539
  182SLPC   C3220844   2.420   5.332  10.446  0.4976 -0.0578  0.1719
  182SLPC   H2X20845   2.415   5.389  10.542 -3.2641  1.5460 -0.7837
  182SLPC   H2Y20846   2.325   5.350  10.391  1.2860  0.5335 -1.0513
  182SLPC   C2320847   2.254   5.109   9.908  0.2565  0.7226  0.0226
  182SLPC   H3R20848   2.295   5.205   9.946 -0.5136  0.7921  0.7048
  182SLPC   H3S20849   2.145   5.128   9.902  0.7187  3.2327 -3.0578
  182SLPC   C2420850   2.305   5.070   9.776 -0.1408  0.1890  0.3954
  182SLPC   H4R20851   2.267   4.972   9.738 -1.1941  0.5680  0.4223
  182SLPC   H4S20852   2.416   5.071   9.778 -0.1341 -0.5514  0.8541
  182SLPC   C2520853   2.259   5.165   9.663  0.1996  0.2018  0.3039
  182SLPC   H5R20854   2.288   5.268   9.693  1.9832 -0.1076 -0.2758
  182SLPC   H5S20855   2.148   5.169   9.657  0.2206  2.2013  0.3064
  182SLPC   C2620856   2.325   5.131   9.530  0.4747 -0.3987 -0.4249
  182SLPC   H6R20857   2.309   5.026   9.498 -3.8088 -0.3756  0.9792
  182SLPC   H6S20858   2.435   5.147   9.538  0.6517 -1.8532  0.2980
  182SLPC   C2720859   2.278   5.206   9.403 -0.7016  0.0172 -0.9539
  182SLPC   H7R20860   2.303   5.311   9.429  1.0675 -0.5638 -0.1561
  182SLPC   H7S20861   2.168   5.194   9.392 -0.9832  0.9077  0.6466
  182SLPC   C2820862   2.348   5.149   9.283  0.0522  0.3708 -0.1717
  182SLPC   H8R20863   2.327   5.040   9.269 -0.1905  0.2569  0.9708
  182SLPC   H8S20864   2.458   5.151   9.294  0.1422 -0.3851 -0.8174
  182SLPC   C2920865   2.305   5.233   9.162  0.2182  0.4558 -0.1992
  182SLPC   H9R20866   2.230   5.312   9.177 -1.6424 -1.3091  0.2453
  182SLPC  C21020867   2.363   5.226   9.042  0.0363  0.6525 -0.0683
  182SLPC  H10R20868   2.337   5.305   8.970  0.7343  0.2272 -0.8061
  182SLPC  C21120869   2.484   5.138   9.012 -0.1032  0.5864  0.3993
  182SLPC  H11R20870   2.530   5.104   9.107 -1.0773 -1.6374  0.1178
  182SLPC  H11S20871   2.557   5.197   8.952 -1.6874  0.1272 -2.1466
  182SLPC  C21220872   2.447   5.025   8.921  0.3072 -0.4016  0.4460
  182SLPC  H12R20873   2.389   4.944   8.967 -0.9699  1.2608  1.9212
  182SLPC  C21320874   2.481   5.023   8.787  0.2497  0.0857  0.8550
  182SLPC  H13R20875   2.464   4.933   8.726 -2.2372  1.5708 -0.8433
  182SLPC  C21420876   2.547   5.130   8.710  0.2218 -0.2437 -0.0036
  182SLPC  H14R20877   2.655   5.123   8.739 -0.8660 -0.8320  4.7546
  182SLPC  H14S20878   2.493   5.220   8.745 -1.2093 -0.9163 -0.4167
  182SLPC  C21520879   2.540   5.122   8.559 -0.2019 -0.1398  0.8044
  182SLPC  H15R20880   2.600   5.038   8.519 -0.4408 -0.3105  0.8052
  182SLPC  H15S20881   2.591   5.212   8.517  0.1442  0.2549  2.0265
  182SLPC  C21620882   2.401   5.095   8.496 -0.8785 -0.4906  0.0911
  182SLPC  H16R20883   2.358   4.997   8.526  1.1387 -1.6032 -0.4582
  182SLPC  H16S20884   2.401   5.092   8.385 -0.0083  1.2221  0.0146
  182SLPC  C21720885   2.305   5.211   8.538  0.0096 -0.2111 -0.4957
  182SLPC  H17R20886   2.359   5.307   8.522 -2.4676  1.0729 -1.8227
  182SLPC  H17S20887   2.285   5.201   8.647  4.4142 -0.9900  0.4210
  182SLPC  C21820888   2.186   5.228   8.444  0.2967 -0.6415 -0.5733
  182SLPC  H18R20889   2.227   5.225   8.341  1.1021 -1.6849 -0.2376
  182SLPC  H18S20890   2.131   5.321   8.468  0.5957 -0.6650  0.2266
  182SLPC  H18T20891   2.112   5.145   8.451  1.7250 -2.0925 -1.7924
  182SLPC   C3320892   2.534   5.398  10.363  0.2481  1.1726  1.1138
  182SLPC   H3X20893   2.631   5.392  10.418  0.8102  0.1864  0.0527
  182SLPC   H3Y20894   2.484   5.497  10.364 -1.5156  0.3231  0.7368
  182SLPC   C3420895   2.550   5.324  10.228 -0.4565  0.5015  0.0193
  182SLPC   H4X20896   2.449   5.320  10.182 -0.4255  3.7129 -0.5749
  182SLPC   H4Y20897   2.590   5.224  10.254 -1.7943  0.5997  2.8955
  182SLPC   C3520898   2.642   5.387  10.124  0.5774  0.3152 -0.0655
  182SLPC   H5X20899   2.650   5.318  10.037  0.8543  1.4155 -0.9215
  182SLPC   H5Y20900   2.742   5.390  10.172  0.7217 -0.0880 -0.3282
  182SLPC   C3620901   2.597   5.517  10.067  0.2603 -0.2207 -0.1544
  182SLPC   H6X20902   2.681   5.587  10.049  0.1042  0.8376  2.6626
  182SLPC   H6Y20903   2.535   5.588  10.126  1.0665  1.5405 -1.3376
  182SLPC   C3720904   2.513   5.522   9.931 -0.5926 -0.0401 -0.2192
  182SLPC   H7X20905   2.471   5.624   9.928 -3.5168 -1.1182  0.6089
  182SLPC   H7Y20906   2.432   5.445   9.932 -0.3824 -0.2599  1.1925
  182SLPC   C3820907   2.607   5.512   9.812  1.1580 -0.2792 -0.6454
  182SLPC   H8X20908   2.661   5.415   9.819  0.8975 -0.4437 -0.8777
  182SLPC   H8Y20909   2.685   5.591   9.821  0.6239  0.1641  0.0854
  182SLPC   C3920910   2.535   5.509   9.675  0.3525 -0.1133 -0.7366
  182SLPC   H9X20911   2.492   5.608   9.649 -0.3033 -0.4554 -0.9886
  182SLPC   H9Y20912   2.448   5.440   9.668 -0.1325  0.4260 -0.1246
  182SLPC  C31020913   2.625   5.469   9.557 -0.4262  0.0644  0.0543
  182SLPC  H10X20914   2.659   5.364   9.563 -2.5947 -0.7675 -1.0348
  182SLPC  H10Y20915   2.715   5.534   9.562 -1.1421  1.2352 -1.4756
  182SLPC  C31120916   2.554   5.500   9.418 -0.2233 -0.1019 -0.4843
  182SLPC  H11X20917   2.528   5.608   9.413 -1.2714 -0.3489 -0.6760
  182SLPC  H11Y20918   2.461   5.439   9.426  0.7298 -1.7150 -1.2857
  182SLPC  C31220919   2.641   5.472   9.297  0.0525 -0.0740  0.0236
  182SLPC  H12X20920   2.659   5.362   9.292  0.8938 -0.1148  2.5072
  182SLPC  H12Y20921   2.742   5.515   9.312  1.0200 -2.4474  0.8705
  182SLPC  C31320922   2.586   5.522   9.164  0.0718  0.1534  0.9498
  182SLPC  H13X20923   2.595   5.633   9.171  1.0484  0.0957  0.6880
  182SLPC  H13Y20924   2.480   5.504   9.137  0.5672 -1.7088  0.0773
  182SLPC  C31420925   2.670   5.468   9.046  0.2603  0.2764 -0.5732
  182SLPC  H14X20926   2.676   5.359   9.067 -2.5690 -0.0290 -0.8420
  182SLPC  H14Y20927   2.763   5.527   9.057  1.6872 -1.8405 -0.7117
  182SLPC  C31520928   2.600   5.511   8.911  0.1055  0.6598  0.5867
  182SLPC  H15X20929   2.559   5.614   8.911 -1.6692 -0.0021 -0.5991
  182SLPC  H15Y20930   2.510   5.455   8.880  0.7150  0.1177 -0.2625
  182SLPC  C31620931   2.700   5.478   8.805  0.1878 -0.2862  0.1451
  182SLPC  H16X20932   2.745   5.377   8.807 -0.2285 -0.6309 -2.8271
  182SLPC  H16Y20933   2.782   5.552   8.812 -1.6123  1.8244  0.0526
  182SLPC  C31720934   2.632   5.501   8.667 -0.2337  0.3160  0.1732
  182SLPC  H17X20935   2.615   5.610   8.660 -0.7230  0.3494  1.5714
  182SLPC  H17Y20936   2.533   5.454   8.654  0.0695 -0.1760 -0.4430
  182SLPC  C31820937   2.718   5.447   8.553 -0.4188  0.3696 -0.5043
  182SLPC  H18X20938   2.751   5.341   8.563  0.1718  0.4849 -1.1638
  182SLPC  H18Y20939   2.807   5.513   8.540  0.1460 -0.1479  0.6167
  182SLPC  H18Z20940   2.675   5.469   8.453  1.5012  2.3332 -0.9792
  183SLPC     N20941   4.510   5.723  10.785  0.0391 -0.8887  0.0048
  183SLPC   C1320942   4.381   5.670  10.743  0.0131  0.1609 -0.1202
  183SLPC  H13A20943   4.303   5.666  10.818 -0.1832  4.1381  0.0947
  183SLPC  H13B20944   4.330   5.729  10.668 -0.3851 -2.0967 -1.7393
  183SLPC  H13C20945   4.392   5.568  10.708 -0.0151 -0.2294  0.9456
  183SLPC   C1420946   4.572   5.626  10.882 -0.1513 -0.0151  0.1163
  183SLPC  H14A20947   4.602   5.533  10.837  0.6532 -0.4181  1.4416
  183SLPC  H14B20948   4.663   5.668  10.923  0.4201  0.1982 -1.3178
  183SLPC  H14C20949   4.498   5.606  10.958 -1.0387 -2.3547 -1.2783
  183SLPC   C1520950   4.482   5.852  10.855 -0.9765 -0.3503  0.0310
  183SLPC  H15A20951   4.406   5.907  10.801 -1.4112 -0.0398  0.9485
  183SLPC  H15B20952   4.441   5.844  10.955 -0.1064  1.9064  0.6191
  183SLPC  H15C20953   4.575   5.906  10.856 -0.6440 -0.8718  1.9155
  183SLPC   C1220954   4.598   5.737  10.656 -0.5768 -0.5589 -1.0129
  183SLPC  H12A20955   4.542   5.798  10.586  0.2421  2.5001  0.7987
  183SLPC  H12B20956   4.607   5.636  10.619  1.8635 -0.2929 -1.2987
  183SLPC   C1120957   4.744   5.804  10.663  0.6081  0.2073  0.8100
  183SLPC  H11A20958   4.739   5.906  10.706  1.4298  0.2506  0.8212
  183SLPC  H11B20959   4.779   5.813  10.558 -1.0900 -0.8257  0.1103
  183SLPC     P20960   4.891   5.583  10.692 -0.0186 -0.0243 -0.3139
  183SLPC   O1320961   4.897   5.483  10.804 -0.1048 -0.3425 -0.0641
  183SLPC   O1420962   4.842   5.536  10.565  0.2392  0.1375  0.1142
  183SLPC   O1220963   4.826   5.721  10.739 -0.4919 -0.1292 -0.4180
  183SLPC   O1120964   5.047   5.612  10.665  0.5360 -0.4071  0.2953
  183SLPC    C120965   5.083   5.734  10.596 -0.8093 -0.3855 -0.3075
  183SLPC    HA20966   5.043   5.827  10.642  0.2945 -0.5961  1.1293
  183SLPC    HB20967   5.192   5.745  10.614 -1.0465 -1.6465  2.2831
  183SLPC    C220968   5.055   5.735  10.439 -0.3470  0.1165  0.1615
  183SLPC    HS20969   4.946   5.735  10.416  0.0894 -0.0155 -2.2152
  183SLPC   O2120970   5.111   5.608  10.390 -0.3334  0.4974 -0.3375
  183SLPC   C2120971   5.067   5.586  10.269 -0.3378  0.2012 -0.2723
  183SLPC   O2220972   4.974   5.635  10.211 -0.1800 -0.4181  0.7025
  183SLPC   C2220973   5.157   5.484  10.206  0.1206  0.5045  0.4970
  183SLPC   H2R20974   5.261   5.496  10.244  0.8878  0.1675 -1.3504
  183SLPC   H2S20975   5.118   5.385  10.239 -1.6647  1.5519  1.6610
  183SLPC    C320976   5.123   5.861  10.374 -0.9338  0.3515  0.0518
  183SLPC    HX20977   5.232   5.842  10.389 -0.5437  0.3830 -2.3583
  183SLPC    HY20978   5.090   5.955  10.423  1.3617  0.0769  2.3920
  183SLPC   O3120979   5.105   5.878  10.233 -0.0103 -0.1278  0.1868
  183SLPC   C3120980   4.984   5.924  10.198  0.1735  0.0342  0.1934
  183SLPC   O3220981   4.905   5.984  10.266  0.4795 -0.5417  0.2409
  183SLPC   C3220982   4.977   5.912  10.042  1.2312 -0.1552 -0.2733
  183SLPC   H2X20983   5.015   5.808  10.028  1.3197 -0.1838  0.1421
  183SLPC   H2Y20984   5.045   5.985   9.994  1.3456 -0.6733 -0.9161
  183SLPC   C2320985   5.176   5.501  10.049  0.1089 -0.1227 -0.2004
  183SLPC   H3R20986   5.257   5.433  10.014 -1.1572 -2.1464  0.6370
  183SLPC   H3S20987   5.205   5.605  10.025 -0.5560  0.0673 -0.1984
  183SLPC   C2420988   5.057   5.477   9.964  0.3823 -0.0218 -0.3663
  183SLPC   H4R20989   5.102   5.493   9.864  3.8708  0.6037  1.1407
  183SLPC   H4S20990   4.979   5.553   9.987 -0.8534 -1.0906 -0.9650
  183SLPC   C2520991   4.991   5.345   9.958 -0.5301  0.4284  0.6731
  183SLPC   H5R20992   4.894   5.344   9.904  0.0629 -0.4344 -0.4018
  183SLPC   H5S20993   4.957   5.308  10.057 -2.0018  0.3671  0.1705
  183SLPC   C2620994   5.083   5.234   9.904 -0.3440 -0.7013 -0.0627
  183SLPC   H6R20995   5.158   5.213   9.983 -0.0293 -0.6385 -0.3390
  183SLPC   H6S20996   5.141   5.272   9.816 -1.5507  1.0814 -0.1441
  183SLPC   C2720997   4.994   5.110   9.880  0.3276 -0.1408  0.1029
  183SLPC   H7R20998   4.937   5.089   9.973 -0.3676  1.2564  0.0213
  183SLPC   H7S20999   5.060   5.021   9.881  2.1835  1.1647 -0.9135
  183SLPC   C2821000   4.923   5.103   9.746  0.4974  0.4389 -0.6799
  183SLPC   H8R21001   4.838   5.175   9.749 -1.0183 -1.3008 -0.0006
  183SLPC   H8S21002   4.873   5.006   9.728 -0.0456  0.7768 -1.0354
  183SLPC   C2921003   5.011   5.130   9.623  0.8262  0.1121 -0.8460
  183SLPC   H9R21004   5.099   5.064   9.626  0.9565  0.3135  0.0791
  183SLPC  C21021005   5.011   5.235   9.538  0.0956  0.5770 -0.0892
  183SLPC  H10R21006   5.088   5.228   9.460 -2.5110  0.5194 -2.7949
  183SLPC  C21121007   4.920   5.352   9.537  0.0085  0.1872  0.1388
  183SLPC  H11R21008   4.858   5.356   9.629 -0.1724  0.0912  0.0231
  183SLPC  H11S21009   4.848   5.356   9.452 -1.2668 -0.5080  1.1522
  183SLPC  C21221010   4.995   5.485   9.539  0.1236  0.5316 -0.1180
  183SLPC  H12R21011   5.076   5.482   9.614  0.0243 -1.2311 -0.0401
  183SLPC  C21321012   4.978   5.586   9.450 -0.4762  0.1757 -0.2674
  183SLPC  H13R21013   5.047   5.671   9.466 -0.5327 -0.1111  1.8705
  183SLPC  C21421014   4.876   5.592   9.336  0.2530 -0.9049  0.5941
  183SLPC  H14R21015   4.876   5.697   9.302  0.5538 -0.0670  2.9848
  183SLPC  H14S21016   4.767   5.580   9.357  0.1179 -3.0999 -0.9691
  183SLPC  C21521017   4.929   5.519   9.209  0.2074 -0.3005 -0.4903
  183SLPC  H15R21018   4.943   5.410   9.227 -1.0144 -0.2763  0.8177
  183SLPC  H15S21019   5.024   5.566   9.176  0.6211 -1.2115 -0.6311
  183SLPC  C21621020   4.831   5.544   9.091  0.2763 -0.8267  0.1891
  183SLPC  H16R21021   4.821   5.654   9.093  1.5238 -0.6294 -1.8933
  183SLPC  H16S21022   4.729   5.506   9.115 -0.4480  0.0164 -1.3963
  183SLPC  C21721023   4.867   5.487   8.955 -0.1194 -0.5750 -0.4686
  183SLPC  H17R21024   4.870   5.376   8.957 -0.8668 -0.6421 -1.7451
  183SLPC  H17S21025   4.968   5.523   8.928  0.3652 -0.4028  1.4324
  183SLPC  C21821026   4.769   5.538   8.849 -0.1721  0.2192 -0.3868
  183SLPC  H18R21027   4.669   5.496   8.871 -0.9931  1.5884 -1.3318
  183SLPC  H18S21028   4.792   5.491   8.752  0.1930 -0.4068 -0.0054
  183SLPC  H18T21029   4.757   5.648   8.839 -0.5896  0.0419 -2.0264
  183SLPC   C3321030   4.831   5.902   9.985  0.4016 -0.2629  0.2851
  183SLPC   H3X21031   4.793   6.005   9.963 -0.1771 -0.7163 -0.9617
  183SLPC   H3Y21032   4.767   5.866  10.068  0.8765  1.4042  1.4470
  183SLPC   C3421033   4.828   5.825   9.847 -0.9572 -0.0536 -0.1548
  183SLPC   H4X21034   4.723   5.813   9.814 -0.2028 -0.3412 -2.5855
  183SLPC   H4Y21035   4.865   5.721   9.861  1.1514  0.1945 -3.0332
  183SLPC   C3521036   4.904   5.890   9.735  0.7279  0.0954 -0.6381
  183SLPC   H5X21037   4.928   5.810   9.661 -1.6838 -2.6806  1.3663
  183SLPC   H5Y21038   5.007   5.910   9.770  0.5562 -2.4851  1.6773
  183SLPC   C3621039   4.841   6.014   9.671 -0.2947  0.2848 -0.1989
  183SLPC   H6X21040   4.833   6.091   9.751  1.4772  0.8658 -0.5542
  183SLPC   H6Y21041   4.741   5.982   9.635  0.2662 -0.7781 -0.8656
  183SLPC   C3721042   4.929   6.064   9.558 -0.9764  0.3448 -0.0809
  183SLPC   H7X21043   4.963   5.974   9.504 -1.5832 -0.0960  0.2555
  183SLPC   H7Y21044   5.015   6.114   9.608 -2.1918  0.9614  1.4986
  183SLPC   C3821045   4.854   6.160   9.468 -0.1510 -0.5165 -0.1466
  183SLPC   H8X21046   4.835   6.256   9.522 -0.4247 -0.1917 -0.8099
  183SLPC   H8Y21047   4.762   6.113   9.429  0.5168  0.2281 -2.8141
  183SLPC   C3921048   4.941   6.194   9.346  0.1236 -0.1351  0.1151
  183SLPC   H9X21049   4.979   6.103   9.294  0.2461  0.7092 -1.3072
  183SLPC   H9Y21050   5.032   6.254   9.362  0.4643 -0.4196 -0.6824
  183SLPC  C31021051   4.854   6.261   9.243 -0.5540 -0.1059  0.7431
  183SLPC  H10X21052   4.790   6.343   9.282 -2.1031 -1.9037  2.2062
  183SLPC  H10Y21053   4.778   6.191   9.202 -0.0074 -0.1810 -0.1715
  183SLPC  C31121054   4.936   6.314   9.123 -0.1536 -0.6751  0.3707
  183SLPC  H11X21055   4.974   6.227   9.066 -1.4728  0.7055 -2.9174
  183SLPC  H11Y21056   5.021   6.367   9.171  1.0770 -0.4572 -1.9223
  183SLPC  C31221057   4.859   6.409   9.027 -0.2055  0.7863  0.2677
  183SLPC  H12X21058   4.838   6.500   9.089  0.7621  0.8320  0.5396
  183SLPC  H12Y21059   4.765   6.363   8.991  0.7045 -0.4578 -0.5575
  183SLPC  C31321060   4.940   6.436   8.904 -0.0558  0.3203 -0.9381
  183SLPC  H13X21061   4.969   6.349   8.842 -0.2918 -0.2441 -0.2733
  183SLPC  H13Y21062   5.021   6.507   8.933 -0.8829  0.1679  2.1618
  183SLPC  C31421063   4.865   6.526   8.801 -0.0454  0.1842  0.0393
  183SLPC  H14X21064   4.848   6.629   8.841  2.0123 -0.1523  1.9424
  183SLPC  H14Y21065   4.771   6.472   8.776 -0.7923  0.2156  2.4870
  183SLPC  C31521066   4.930   6.533   8.663 -0.6133  0.1546  0.7492
  183SLPC  H15X21067   4.956   6.429   8.632  0.2438  0.3678  0.7360
  183SLPC  H15Y21068   5.027   6.586   8.666  1.2935 -3.0095 -0.1270
  183SLPC  C31621069   4.841   6.594   8.552  0.3728 -0.2912  0.5319
  183SLPC  H16X21070   4.824   6.701   8.576  0.0063 -0.5422  1.4028
  183SLPC  H16Y21071   4.741   6.549   8.564 -1.9654  4.2178  0.3981
  183SLPC  C31721072   4.879   6.581   8.403  0.4542  0.2661 -0.0179
  183SLPC  H17X21073   4.918   6.478   8.385  1.0399  0.2542  1.2215
  183SLPC  H17Y21074   4.970   6.642   8.384  2.5314 -1.5480  3.0395
  183SLPC  C31821075   4.758   6.606   8.307 -0.1976  0.4339  0.1545
  183SLPC  H18X21076   4.692   6.516   8.310 -0.7724  0.8165 -0.4876
  183SLPC  H18Y21077   4.786   6.619   8.200  0.1725 -2.7782 -0.2332
  183SLPC  H18Z21078   4.711   6.702   8.339  0.1847  0.3708  0.9211
  184SLPC     N21079   5.650   3.318  10.711 -0.4091  0.2222 -0.3253
  184SLPC   C1321080   5.689   3.291  10.854 -0.2073  0.7730 -0.1623
  184SLPC  H13A21081   5.739   3.375  10.900 -2.1464  0.5928  2.5228
  184SLPC  H13B21082   5.606   3.290  10.923 -0.8116 -1.3538 -0.8302
  184SLPC  H13C21083   5.732   3.195  10.880  0.5920  1.9593  3.5085
  184SLPC   C1421084   5.563   3.443  10.715 -0.4190 -0.5324  0.5700
  184SLPC  H14A21085   5.525   3.458  10.615 -1.3053  1.1388  1.1151
  184SLPC  H14B21086   5.483   3.421  10.784 -0.9554 -0.2390  0.0481
  184SLPC  H14C21087   5.627   3.527  10.738  1.6480 -2.5969  3.0732
  184SLPC   C1521088   5.572   3.201  10.666  0.4521 -0.1002 -0.2284
  184SLPC  H15A21089   5.628   3.109  10.670  0.3548 -0.1461  0.0646
  184SLPC  H15B21090   5.479   3.197  10.721  0.9483  0.0898  0.6238
  184SLPC  H15C21091   5.539   3.216  10.564 -1.4234  1.1629  0.5160
  184SLPC   C1221092   5.778   3.335  10.627  0.1562  1.4167 -0.4815
  184SLPC  H12A21093   5.758   3.340  10.521  5.4752 -0.6244 -1.9409
  184SLPC  H12B21094   5.841   3.247  10.632  1.7919  2.3061 -3.0293
  184SLPC   C1121095   5.869   3.455  10.665 -0.1354 -0.3181  0.4970
  184SLPC  H11A21096   5.962   3.432  10.610 -0.0839 -2.5025  1.3983
  184SLPC  H11B21097   5.904   3.453  10.770 -0.5712  0.8802  0.6928
  184SLPC     P21098   5.854   3.638  10.478  0.6176  0.1880 -0.2080
  184SLPC   O1321099   5.976   3.717  10.494 -0.0514 -0.5451  0.1159
  184SLPC   O1421100   5.855   3.522  10.393  0.3494 -1.1284 -0.5380
  184SLPC   O1221101   5.807   3.584  10.627 -0.4859 -0.2288 -0.5380
  184SLPC   O1121102   5.735   3.734  10.429 -0.1472 -0.6741 -0.8697
  184SLPC    C121103   5.606   3.702  10.386  0.0120 -0.0611 -0.1462
  184SLPC    HA21104   5.577   3.595  10.398 -2.6304  0.4948 -0.8118
  184SLPC    HB21105   5.535   3.762  10.448  2.2312  1.0801  1.4116
  184SLPC    C221106   5.579   3.728  10.236 -0.2505 -0.2789 -0.8740
  184SLPC    HS21107   5.665   3.679  10.185  0.7057 -0.4310  0.8233
  184SLPC   O2121108   5.586   3.867  10.210 -0.0302 -0.0691 -0.9479
  184SLPC   C2121109   5.604   3.906  10.083  0.2606 -0.2254 -0.4677
  184SLPC   O2221110   5.624   3.829   9.991 -0.6222 -0.2191  0.4009
  184SLPC   C2221111   5.607   4.057  10.072  0.7134 -0.0531 -0.4815
  184SLPC   H2R21112   5.502   4.091  10.083  0.3197 -1.8294  2.0072
  184SLPC   H2S21113   5.669   4.097  10.154 -0.3773  1.8130 -0.5135
  184SLPC    C321114   5.444   3.664  10.186  0.4528 -0.0712  0.1750
  184SLPC    HX21115   5.360   3.728  10.220  1.9898  1.0175  2.1324
  184SLPC    HY21116   5.435   3.564  10.234 -0.1513  0.1044  0.4324
  184SLPC   O3121117   5.436   3.643  10.046 -0.4818 -0.9696  0.2763
  184SLPC   C3121118   5.515   3.546  10.002  0.3484  0.7315  0.4369
  184SLPC   O3221119   5.588   3.469  10.064  0.0733  0.3155 -0.4569
  184SLPC   C3221120   5.524   3.552   9.850 -0.1797 -0.3057 -0.0682
  184SLPC   H2X21121   5.565   3.651   9.822 -0.3389 -0.3931 -0.6229
  184SLPC   H2Y21122   5.422   3.535   9.810 -0.7382 -1.5223  1.7200
  184SLPC   C2321123   5.641   4.108   9.928 -0.4709 -0.5235  0.4814
  184SLPC   H3R21124   5.618   4.216   9.925 -0.2614 -0.4490  1.2346
  184SLPC   H3S21125   5.581   4.064   9.846  0.5759  0.3279 -0.7764
  184SLPC   C2421126   5.792   4.097   9.904  0.4043  0.3803 -0.4731
  184SLPC   H4R21127   5.830   3.992   9.907  0.6417  0.4667  1.7940
  184SLPC   H4S21128   5.844   4.152   9.985 -1.4124 -2.5790  3.0202
  184SLPC   C2521129   5.833   4.164   9.768  0.5016 -0.3521  0.0101
  184SLPC   H5R21130   5.933   4.118   9.749 -0.9516 -2.5804 -2.9145
  184SLPC   H5S21131   5.836   4.275   9.783  0.5542 -0.4514  0.8139
  184SLPC   C2621132   5.751   4.134   9.641 -0.7888  0.3532  0.5819
  184SLPC   H6R21133   5.643   4.155   9.656 -0.7087 -0.2364  2.2070
  184SLPC   H6S21134   5.742   4.023   9.636  0.3914  0.1283  2.6093
  184SLPC   C2721135   5.791   4.213   9.518 -0.6314 -0.0740  0.3849
  184SLPC   H7R21136   5.900   4.193   9.501 -0.0831  0.9465  2.4209
  184SLPC   H7S21137   5.774   4.321   9.538 -1.0249 -0.3314  1.4792
  184SLPC   C2821138   5.724   4.184   9.384  0.2177 -0.4553 -0.7475
  184SLPC   H8R21139   5.747   4.261   9.308  3.7683 -1.7173 -1.1224
  184SLPC   H8S21140   5.614   4.201   9.383  0.4517  1.3479  0.5778
  184SLPC   C2921141   5.758   4.045   9.339 -0.8240 -0.3399  0.5663
  184SLPC   H9R21142   5.789   3.975   9.418 -2.3588 -2.0481 -0.2549
  184SLPC  C21021143   5.726   4.001   9.213 -0.5968 -0.1209  1.3308
  184SLPC  H10R21144   5.746   3.896   9.185  1.0907  0.8247 -1.3015
  184SLPC  C21121145   5.651   4.087   9.113 -0.4526 -0.2321  0.3624
  184SLPC  H11R21146   5.701   4.077   9.014 -1.3695  1.4954 -0.3145
  184SLPC  H11S21147   5.668   4.196   9.133  1.2510  0.0662 -2.2206
  184SLPC  C21221148   5.506   4.058   9.111  0.2090 -1.0264  0.1925
  184SLPC  H12R21149   5.454   4.087   9.204 -1.2222 -2.3676 -0.1477
  184SLPC  C21321150   5.439   4.003   9.012  0.4532  0.5178  0.0695
  184SLPC  H13R21151   5.330   3.998   9.028  0.1871 -1.4047 -1.8522
  184SLPC  C21421152   5.488   3.970   8.871 -0.9251  0.0017  0.9302
  184SLPC  H14R21153   5.592   4.010   8.867 -1.2251  1.0639  2.5683
  184SLPC  H14S21154   5.433   4.023   8.791  2.6157  2.1368 -0.2930
  184SLPC  C21521155   5.487   3.822   8.826 -0.7451  1.3267 -0.4056
  184SLPC  H15R21156   5.525   3.808   8.722 -0.5964  1.2790 -0.3458
  184SLPC  H15S21157   5.383   3.785   8.833 -0.6140  0.7936 -1.0904
  184SLPC  C21621158   5.576   3.740   8.922 -0.2460 -0.3849  0.1955
  184SLPC  H16R21159   5.545   3.743   9.029 -2.6833 -2.5028 -0.3573
  184SLPC  H16S21160   5.679   3.783   8.920 -0.1942 -0.5492 -0.7329
  184SLPC  C21721161   5.599   3.600   8.872 -0.1152  0.0202 -0.7554
  184SLPC  H17R21162   5.667   3.608   8.784  1.0040  1.9260  0.2060
  184SLPC  H17S21163   5.502   3.557   8.842  0.0389 -0.7474 -0.1854
  184SLPC  C21821164   5.668   3.515   8.974  0.0966  0.5079  0.6003
  184SLPC  H18R21165   5.591   3.475   9.044 -0.7579 -2.4390 -1.8069
  184SLPC  H18S21166   5.739   3.573   9.037  1.5360 -0.0842 -0.4253
  184SLPC  H18T21167   5.718   3.432   8.920  0.0604  2.0131 -1.8514
  184SLPC   C3321168   5.621   3.451   9.792 -0.1660 -0.4872  0.1947
  184SLPC   H3X21169   5.717   3.441   9.847  0.5745 -2.7792 -1.3530
  184SLPC   H3Y21170   5.650   3.473   9.687 -2.8450  0.4766 -0.4110
  184SLPC   C3421171   5.574   3.305   9.788 -0.7814  0.4385 -0.0903
  184SLPC   H4X21172   5.488   3.296   9.718 -0.1637  0.9972 -0.9273
  184SLPC   H4Y21173   5.532   3.266   9.884 -3.1922 -0.2941 -1.3610
  184SLPC   C3521174   5.681   3.202   9.740  0.1032  0.3607  0.2225
  184SLPC   H5X21175   5.712   3.221   9.635 -2.0001 -1.5203 -0.8063
  184SLPC   H5Y21176   5.627   3.107   9.723 -0.3000  0.7199 -0.5857
  184SLPC   C3621177   5.781   3.177   9.847  0.4424 -0.4069 -0.2097
  184SLPC   H6X21178   5.728   3.178   9.945 -0.1303  0.5245 -0.5064
  184SLPC   H6Y21179   5.855   3.257   9.866  0.4940 -0.4576 -0.1978
  184SLPC   C3721180   5.849   3.043   9.833 -0.3896 -0.7093  0.1151
  184SLPC   H7X21181   5.776   2.960   9.845 -1.9821  0.8423  1.7315
  184SLPC   H7Y21182   5.927   3.047   9.912 -0.3986 -1.3224  0.1588
  184SLPC   C3821183   5.924   3.031   9.702  0.1666 -0.2722 -0.4393
  184SLPC   H8X21184   5.985   3.123   9.688 -2.5760  2.0062  1.3740
  184SLPC   H8Y21185   5.848   3.023   9.621 -0.1203 -0.9066 -0.1124
  184SLPC   C3921186   6.000   2.901   9.701 -0.5655  0.5745  0.4347
  184SLPC   H9X21187   5.917   2.828   9.717  0.4503 -0.6330  0.4181
  184SLPC   H9Y21188   6.066   2.888   9.789  0.8547  2.3796 -0.3095
  184SLPC  C31021189   6.061   2.859   9.564 -0.2071 -0.2283  0.2583
  184SLPC  H10X21190   6.166   2.896   9.554 -0.0262  0.4079  3.5823
  184SLPC  H10Y21191   6.008   2.919   9.487 -1.6556 -1.4166  0.2849
  184SLPC  C31121192   6.043   2.719   9.518 -0.6745  0.3615  0.4427
  184SLPC  H11X21193   5.938   2.700   9.485 -1.3523  0.2654  2.5200
  184SLPC  H11Y21194   6.062   2.638   9.591 -0.1345 -0.8763 -1.0049
  184SLPC  C31221195   6.127   2.687   9.395 -0.4759 -0.6494 -0.6532
  184SLPC  H12X21196   6.223   2.654   9.439 -0.6563 -0.8695 -0.4184
  184SLPC  H12Y21197   6.144   2.777   9.333 -0.6332 -1.3892 -1.7975
  184SLPC  C31321198   6.084   2.567   9.319  0.3034  0.4245 -0.7784
  184SLPC  H13X21199   5.993   2.604   9.267  0.4862  3.0573  0.6128
  184SLPC  H13Y21200   6.049   2.486   9.386 -1.0452  2.5539  1.2720
  184SLPC  C31421201   6.197   2.509   9.221  0.3343  0.4645 -0.1100
  184SLPC  H14X21202   6.166   2.420   9.163 -1.2106 -0.0667  1.4232
  184SLPC  H14Y21203   6.283   2.486   9.286 -1.6896 -1.5265  2.0474
  184SLPC  C31521204   6.251   2.624   9.134 -0.3735  0.1680 -0.3796
  184SLPC  H15X21205   6.327   2.583   9.064  0.2409 -1.7773  1.3259
  184SLPC  H15Y21206   6.301   2.708   9.187  0.1814 -0.1474 -0.3992
  184SLPC  C31621207   6.148   2.688   9.043 -0.2295  0.6899 -0.7662
  184SLPC  H16X21208   6.197   2.779   9.004  0.7859 -0.4045 -2.2012
  184SLPC  H16Y21209   6.054   2.712   9.097  2.2488  2.0808  3.3464
  184SLPC  C31721210   6.136   2.600   8.918  0.2319 -0.1922  0.3079
  184SLPC  H17X21211   6.072   2.511   8.939  0.1509 -0.0312  0.7545
  184SLPC  H17Y21212   6.229   2.575   8.864 -0.1279  0.1625 -0.4975
  184SLPC  C31821213   6.053   2.677   8.815  0.4471  0.2921 -0.8393
  184SLPC  H18X21214   5.955   2.693   8.865  1.6871  2.7196  1.0365
  184SLPC  H18Y21215   6.050   2.626   8.716 -2.7419 -2.5857  0.5437
  184SLPC  H18Z21216   6.097   2.779   8.812  3.1766 -0.7687  0.2445
  185SLPC     N21217   6.609   4.359   6.153 -1.0330 -0.6698 -1.1934
  185SLPC   C1321218   6.633   4.512   6.134 -0.6742  0.2886  0.1982
  185SLPC  H13A21219   6.577   4.540   6.047 -2.6770  0.3973  1.4731
  185SLPC  H13B21220   6.606   4.564   6.225  0.5362  1.3431 -0.0252
  185SLPC  H13C21221   6.734   4.540   6.108 -0.5967 -0.5211 -0.4152
  185SLPC   C1421222   6.708   4.297   6.254 -0.3866  0.2343 -0.2768
  185SLPC  H14A21223   6.696   4.337   6.354  0.4746 -0.8781  0.2885
  185SLPC  H14B21224   6.688   4.191   6.262  0.2093  0.1303 -0.1498
  185SLPC  H14C21225   6.810   4.320   6.229  0.0670  2.3327  2.8795
  185SLPC   C1521226   6.636   4.309   6.014  0.2361 -0.7119  0.4583
  185SLPC  H15A21227   6.727   4.349   5.971 -0.2988 -0.1617 -0.1828
  185SLPC  H15B21228   6.638   4.201   6.004  0.5135 -0.5729 -1.3360
  185SLPC  H15C21229   6.565   4.351   5.944  0.4381  0.9679  1.2109
  185SLPC   C1221230   6.465   4.339   6.191  0.4676  0.2205 -0.3376
  185SLPC  H12A21231   6.438   4.235   6.180 -0.9974  0.7066 -1.7459
  185SLPC  H12B21232   6.400   4.387   6.119 -2.0450 -0.9684  1.0400
  185SLPC   C1121233   6.423   4.390   6.331 -0.4881 -0.3121  0.8234
  185SLPC  H11A21234   6.487   4.347   6.411 -0.8933 -0.9611  0.7980
  185SLPC  H11B21235   6.324   4.349   6.359 -0.4299 -1.5157 -0.6217
  185SLPC     P21236   6.322   4.628   6.280 -0.2927 -0.5348 -0.3225
  185SLPC   O1321237   6.377   4.761   6.252 -0.5973 -0.1359  0.0933
  185SLPC   O1421238   6.264   4.563   6.160 -0.4275  0.5270 -0.4503
  185SLPC   O1221239   6.433   4.533   6.334 -0.9469 -0.4534  0.1791
  185SLPC   O1121240   6.216   4.629   6.392  0.3220 -0.4725  0.3116
  185SLPC    C121241   6.209   4.728   6.493 -0.4016 -0.2134  0.1309
  185SLPC    HA21242   6.283   4.807   6.469 -0.0818 -0.5676 -0.0572
  185SLPC    HB21243   6.104   4.765   6.490 -0.7101 -1.0713  0.0077
  185SLPC    C221244   6.250   4.679   6.634  0.1062 -0.4542  0.5757
  185SLPC    HS21245   6.169   4.708   6.704 -1.3319  0.4095 -1.3587
  185SLPC   O2121246   6.385   4.730   6.665  0.5546 -0.3413 -1.0427
  185SLPC   C2121247   6.401   4.734   6.800  0.0271  0.4114 -0.3267
  185SLPC   O2221248   6.316   4.708   6.882  0.2325  0.0828 -0.5898
  185SLPC   C2221249   6.543   4.783   6.813  0.0491  0.5909  0.0754
  185SLPC   H2R21250   6.608   4.706   6.765 -1.3320 -0.6638  0.1571
  185SLPC   H2S21251   6.553   4.881   6.761 -2.5122  1.3482  0.8874
  185SLPC    C321252   6.255   4.519   6.640 -0.2892 -0.3902  0.3265
  185SLPC    HX21253   6.354   4.486   6.601  0.3252 -1.6894  2.7560
  185SLPC    HY21254   6.184   4.472   6.570  3.2504 -3.3522 -1.6487
  185SLPC   O3121255   6.237   4.462   6.770  0.1147  0.0675  0.0978
  185SLPC   C3121256   6.107   4.450   6.804  0.1799  0.1819 -0.3040
  185SLPC   O3221257   6.013   4.476   6.735 -0.0915 -0.4139 -0.0290
  185SLPC   C3221258   6.099   4.413   6.950 -0.3599  0.1502 -0.6233
  185SLPC   H2X21259   6.162   4.484   7.006  1.4691  0.1491 -2.5352
  185SLPC   H2Y21260   6.143   4.311   6.953 -0.4319  0.1066 -0.9238
  185SLPC   C2321261   6.602   4.805   6.957  0.5524 -0.2213  0.1533
  185SLPC   H3R21262   6.539   4.883   7.005  1.3840  1.3400 -1.1711
  185SLPC   H3S21263   6.696   4.865   6.944 -1.6704  3.8214  0.9178
  185SLPC   C2421264   6.624   4.692   7.047 -0.1428  0.3399 -0.0397
  185SLPC   H4R21265   6.691   4.615   7.004  0.3551 -0.4867  2.1222
  185SLPC   H4S21266   6.524   4.649   7.069 -0.1534  0.9072  1.0909
  185SLPC   C2521267   6.693   4.718   7.183  0.0475 -0.0602 -0.0599
  185SLPC   H5R21268   6.789   4.772   7.171  0.6963 -1.3844 -1.0333
  185SLPC   H5S21269   6.712   4.619   7.229  0.9732 -0.8290 -1.9879
  185SLPC   C2621270   6.590   4.803   7.268  0.1560  0.2680  0.0137
  185SLPC   H6R21271   6.497   4.744   7.283 -0.4970  0.6613 -2.1342
  185SLPC   H6S21272   6.558   4.885   7.201 -3.7108 -2.1504 -1.4670
  185SLPC   C2721273   6.656   4.857   7.397 -0.4101  0.4731 -0.3416
  185SLPC   H7R21274   6.745   4.921   7.379  0.5097 -0.8296 -0.5772
  185SLPC   H7S21275   6.697   4.771   7.455  0.6063  0.7635 -0.6090
  185SLPC   C2821276   6.546   4.937   7.474  0.1794 -0.7166 -0.3202
  185SLPC   H8R21277   6.471   4.861   7.505 -1.5872  1.2239  0.4222
  185SLPC   H8S21278   6.504   5.012   7.404 -2.1919 -2.2075 -0.6120
  185SLPC   C2921279   6.603   5.008   7.591 -0.0400 -0.2771  0.2846
  185SLPC   H9R21280   6.662   5.101   7.577 -3.8828  2.8166  2.6053
  185SLPC  C21021281   6.571   4.971   7.715  0.1577 -0.4601  0.4357
  185SLPC  H10R21282   6.601   5.045   7.790  0.2430  0.3772 -0.3990
  185SLPC  C21121283   6.474   4.864   7.762 -1.0020  0.0085  0.0130
  185SLPC  H11R21284   6.386   4.869   7.694 -0.7495  3.6769 -0.2484
  185SLPC  H11S21285   6.441   4.905   7.860 -0.3031  1.5460 -0.3672
  185SLPC  C21221286   6.544   4.728   7.776  0.2703 -0.6335  0.1140
  185SLPC  H12R21287   6.538   4.659   7.690 -2.4630  1.3932 -1.5034
  185SLPC  C21321288   6.612   4.690   7.878  0.5217  0.2849 -0.6283
  185SLPC  H13R21289   6.664   4.593   7.869  0.0599 -0.1730  1.2456
  185SLPC  C21421290   6.631   4.770   8.006 -0.3489 -0.0213 -0.0547
  185SLPC  H14R21291   6.555   4.734   8.079 -1.5561 -0.8228 -1.6355
  185SLPC  H14S21292   6.600   4.875   7.992  2.2540  0.8730  0.4257
  185SLPC  C21521293   6.773   4.765   8.055  0.8406 -0.1056 -0.9730
  185SLPC  H15R21294   6.838   4.815   7.979 -1.3835  1.2448 -2.0829
  185SLPC  H15S21295   6.784   4.654   8.062 -0.7579 -0.2398 -0.2361
  185SLPC  C21621296   6.816   4.827   8.196  0.0496 -0.0704  0.1283
  185SLPC  H16R21297   6.849   4.933   8.202 -1.5142  0.4424 -0.0251
  185SLPC  H16S21298   6.912   4.779   8.228 -0.6906 -0.5978  1.6759
  185SLPC  C21721299   6.718   4.795   8.309 -0.1771 -0.1693 -0.0412
  185SLPC  H17R21300   6.738   4.689   8.336  1.3669  0.4359  1.3159
  185SLPC  H17S21301   6.614   4.825   8.284  0.6269  3.4959  0.5098
  185SLPC  C21821302   6.765   4.882   8.430 -0.1197  0.2750 -0.1734
  185SLPC  H18R21303   6.874   4.865   8.439  0.0837  0.3562 -2.0631
  185SLPC  H18S21304   6.722   4.847   8.526  2.0983 -4.1500 -0.5266
  185SLPC  H18T21305   6.756   4.991   8.410  0.8090  0.1572 -1.3910
  185SLPC   C3321306   5.958   4.391   7.010  1.0019 -0.3812 -1.5211
  185SLPC   H3X21307   5.903   4.310   6.958  0.7310  0.1608 -2.0944
  185SLPC   H3Y21308   5.883   4.472   7.007  0.3464 -0.8469  0.8079
  185SLPC   C3421309   5.962   4.346   7.156 -0.1328  0.5741  0.3378
  185SLPC   H4X21310   6.049   4.278   7.165 -0.1100  0.4864 -0.4377
  185SLPC   H4Y21311   5.867   4.294   7.184  2.1550 -3.7013  1.0756
  185SLPC   C3521312   5.984   4.462   7.261  0.1586 -0.8143  0.2964
  185SLPC   H5X21313   5.908   4.542   7.247  0.5149 -0.4714  0.2872
  185SLPC   H5Y21314   6.087   4.502   7.246 -0.6687  1.7720  1.0947
  185SLPC   C3621315   5.960   4.413   7.407 -0.1854 -0.2180 -0.0063
  185SLPC   H6X21316   6.047   4.344   7.403  0.3789  0.5588 -1.8085
  185SLPC   H6Y21317   5.862   4.361   7.421  0.0284 -0.5283  0.3652
  185SLPC   C3721318   5.988   4.526   7.512  0.2400  0.1879 -1.0388
  185SLPC   H7X21319   5.927   4.613   7.479  0.7536  0.1540 -2.1451
  185SLPC   H7Y21320   6.092   4.566   7.510  1.8607 -3.4126  1.0697
  185SLPC   C3821321   5.958   4.497   7.658  1.3595  0.1930 -0.2274
  185SLPC   H8X21322   5.930   4.389   7.665 -3.1326  1.2495  2.6475
  185SLPC   H8Y21323   5.868   4.553   7.693  0.6437 -1.7819  1.3212
  185SLPC   C3921324   6.069   4.532   7.756 -0.2091 -0.5238  0.3342
  185SLPC   H9X21325   6.165   4.504   7.708 -0.2301  0.7985 -0.5105
  185SLPC   H9Y21326   6.068   4.475   7.852 -2.5498 -0.0017  0.6715
  185SLPC  C31021327   6.066   4.681   7.780  0.3667 -0.1119 -0.2148
  185SLPC  H10X21328   5.965   4.728   7.771 -0.1568 -1.0102  0.8179
  185SLPC  H10Y21329   6.134   4.738   7.712  0.0137  1.2919  0.5626
  185SLPC  C31121330   6.104   4.715   7.925 -0.1484 -0.8816  0.5224
  185SLPC  H11X21331   6.204   4.668   7.937 -0.9972 -2.6311  1.1304
  185SLPC  H11Y21332   6.030   4.680   8.001 -1.3360 -0.0630 -0.2281
  185SLPC  C31221333   6.132   4.864   7.956  0.1622  0.1289  0.0570
  185SLPC  H12X21334   6.034   4.915   7.939 -0.3174 -1.1468 -1.1737
  185SLPC  H12Y21335   6.187   4.890   7.863 -0.9501 -1.3227 -1.0546
  185SLPC  C31321336   6.206   4.897   8.088 -1.4627  0.0267 -0.0705
  185SLPC  H13X21337   6.287   4.969   8.065 -1.5564 -0.1851 -1.1026
  185SLPC  H13Y21338   6.277   4.816   8.116  1.9200  2.2842 -1.4389
  185SLPC  C31421339   6.101   4.914   8.198  0.8430 -0.5694 -0.4057
  185SLPC  H14X21340   6.024   4.835   8.194 -1.5092  1.3573  2.2584
  185SLPC  H14Y21341   6.040   5.006   8.183  0.6730 -0.0867  2.5435
  185SLPC  C31521342   6.171   4.931   8.335  0.2929 -0.1594  0.6900
  185SLPC  H15X21343   6.233   4.844   8.363  0.4688 -0.2342  0.0803
  185SLPC  H15Y21344   6.087   4.931   8.408 -0.5847 -0.3333 -0.2919
  185SLPC  C31621345   6.247   5.069   8.354 -0.2283 -0.0314  0.6135
  185SLPC  H16X21346   6.177   5.152   8.329 -0.5517 -1.0970 -2.3539
  185SLPC  H16Y21347   6.325   5.079   8.275  0.6134 -0.0658  1.4311
  185SLPC  C31721348   6.299   5.081   8.498  0.4018  0.2462  0.5661
  185SLPC  H17X21349   6.361   4.993   8.524  2.6926  1.9964  1.3061
  185SLPC  H17Y21350   6.214   5.082   8.570  0.1164 -1.4548  0.3147
  185SLPC  C31821351   6.388   5.208   8.512  0.2225  0.4258 -0.1995
  185SLPC  H18X21352   6.486   5.185   8.466 -0.2575 -1.5445 -0.3043
  185SLPC  H18Y21353   6.399   5.236   8.619  1.6470  0.9955 -0.4713
  185SLPC  H18Z21354   6.344   5.294   8.457  1.8098  0.9536 -0.6773
  186SLPC     N21355   4.946   0.474   6.102 -0.2649 -0.0228  0.9926
  186SLPC   C1321356   4.984   0.423   5.975 -1.0321  1.1838  0.7552
  186SLPC  H13A21357   5.032   0.327   5.983 -4.0132 -0.3445  2.1447
  186SLPC  H13B21358   4.904   0.418   5.902  0.6236 -1.4329 -1.0658
  186SLPC  H13C21359   5.061   0.480   5.926  0.4115 -1.8565 -0.7741
  186SLPC   C1421360   4.850   0.378   6.170 -0.0840 -0.5889 -0.4119
  186SLPC  H14A21361   4.840   0.400   6.275 -1.7558 -0.9852 -0.4684
  186SLPC  H14B21362   4.762   0.375   6.108 -1.4717 -0.1788  1.4608
  186SLPC  H14C21363   4.895   0.280   6.175  1.1320  0.0261  1.7381
  186SLPC   C1521364   4.882   0.601   6.074  0.5170 -0.8081 -0.1405
  186SLPC  H15A21365   4.936   0.657   5.999 -1.5697  1.0641 -0.3383
  186SLPC  H15B21366   4.781   0.591   6.036  0.2576  1.6024 -0.2286
  186SLPC  H15C21367   4.886   0.652   6.168  1.3194 -1.0555 -0.0298
  186SLPC   C1221368   5.072   0.491   6.193 -0.2556  0.5161  0.1586
  186SLPC  H12A21369   5.044   0.554   6.276  2.8608  2.0727  0.1946
  186SLPC  H12B21370   5.150   0.542   6.138 -0.5498  0.5303 -0.2483
  186SLPC   C1121371   5.136   0.362   6.253 -0.0117 -0.3979  0.1149
  186SLPC  H11A21372   5.069   0.323   6.332 -1.1743 -1.7949 -1.4684
  186SLPC  H11B21373   5.233   0.394   6.297  0.1615  0.5843 -0.9425
  186SLPC     P21374   5.136   0.108   6.186 -0.3526 -0.3942  0.0868
  186SLPC   O1321375   5.000   0.104   6.246 -0.7486  0.0618 -0.2542
  186SLPC   O1421376   5.170   0.013   6.082 -0.4903  0.6911 -0.3080
  186SLPC   O1221377   5.173   0.263   6.151 -0.0698 -0.8963 -0.3063
  186SLPC   O1121378   5.240   0.074   6.302 -0.0992 -0.2298 -0.4355
  186SLPC    C121379   5.384   0.112   6.282 -0.2784 -0.5246 -0.1924
  186SLPC    HA21380   5.444   0.033   6.232  1.0015 -0.5670  1.3392
  186SLPC    HB21381   5.401   0.211   6.235 -2.5728  0.2324  0.4257
  186SLPC    C221382   5.448   0.146   6.422  0.1766 -0.5570 -1.1169
  186SLPC    HS21383   5.449   0.055   6.487 -2.5411 -0.8389 -1.3571
  186SLPC   O2121384   5.370   0.259   6.478 -0.1412  0.0156  0.2188
  186SLPC   C2121385   5.290   0.237   6.573 -0.6838  0.0511  0.1357
  186SLPC   O2221386   5.265   0.128   6.619 -0.0107  0.5100  0.4361
  186SLPC   C2221387   5.229   0.365   6.619  0.2364 -0.1698 -0.7155
  186SLPC   H2R21388   5.212   0.427   6.529 -0.9250  1.3329  0.5004
  186SLPC   H2S21389   5.130   0.346   6.666  0.1554  1.6168 -0.0946
  186SLPC    C321390   5.597   0.190   6.408  0.3964 -0.7220  0.1392
  186SLPC    HX21391   5.593   0.299   6.387  1.9913 -0.2737  1.8264
  186SLPC    HY21392   5.650   0.144   6.323  2.1091  3.0360 -1.0318
  186SLPC   O3121393   5.658   0.168   6.540 -0.2724  0.1344  0.6820
  186SLPC   C3121394   5.792   0.145   6.532 -0.1970 -0.8889 -0.7157
  186SLPC   O3221395   5.858   0.162   6.429 -0.0391  0.0822 -0.5241
  186SLPC   C3221396   5.848   0.127   6.672 -0.4671 -0.0707 -0.5150
  186SLPC   H2X21397   5.901   0.029   6.674  1.1256  0.7574 -0.5381
  186SLPC   H2Y21398   5.762   0.131   6.743 -1.2551 -1.3257 -1.3353
  186SLPC   C2321399   5.319   0.454   6.718 -0.1173 -0.1996 -0.1648
  186SLPC   H3R21400   5.272   0.555   6.719 -0.5486 -0.2533 -3.5592
  186SLPC   H3S21401   5.423   0.462   6.680  0.9002 -2.0470  2.0188
  186SLPC   C2421402   5.332   0.394   6.857 -0.2377  0.2693  0.5768
  186SLPC   H4R21403   5.359   0.287   6.855  0.8405  0.5480 -0.5226
  186SLPC   H4S21404   5.227   0.386   6.894  0.2439  0.2504  2.0292
  186SLPC   C2521405   5.425   0.477   6.945  0.0388  0.1632 -1.2747
  186SLPC   H5R21406   5.396   0.584   6.943  1.2005  0.5650  0.3557
  186SLPC   H5S21407   5.528   0.478   6.904  0.6052  1.2266  0.0875
  186SLPC   C2621408   5.447   0.426   7.095 -0.1360 -0.8547  0.8189
  186SLPC   H6R21409   5.490   0.324   7.098  2.2020  0.0703  1.1839
  186SLPC   H6S21410   5.348   0.428   7.145 -0.0910 -2.1009  0.9767
  186SLPC   C2721411   5.546   0.509   7.181  0.5280  1.2686  0.2661
  186SLPC   H7R21412   5.650   0.487   7.151  0.2420 -1.0264  0.7584
  186SLPC   H7S21413   5.534   0.471   7.284 -1.2140 -0.6290 -0.5605
  186SLPC   C2821414   5.526   0.661   7.187 -0.1518 -0.0324  0.3832
  186SLPC   H8R21415   5.526   0.692   7.080 -1.0520  0.2769  0.4625
  186SLPC   H8S21416   5.612   0.707   7.239  0.9363  0.6495 -1.9107
  186SLPC   C2921417   5.393   0.685   7.260 -0.5575 -0.8055  0.8404
  186SLPC   H9R21418   5.308   0.669   7.191  0.7203  2.7436 -1.8850
  186SLPC  C21021419   5.380   0.731   7.383 -0.4889  0.1260 -0.2796
  186SLPC  H10R21420   5.277   0.746   7.418 -0.9751 -0.5960 -1.3384
  186SLPC  C21121421   5.490   0.764   7.480 -0.1713 -0.9168  0.2087
  186SLPC  H11R21422   5.442   0.821   7.562 -0.0500 -0.0839 -0.2891
  186SLPC  H11S21423   5.564   0.829   7.429 -0.0120 -1.6672 -0.5362
  186SLPC  C21221424   5.568   0.635   7.521 -0.0559 -0.1896  0.1694
  186SLPC  H12R21425   5.637   0.599   7.444  1.9566  2.0679  0.7990
  186SLPC  C21321426   5.555   0.572   7.639  0.1733 -0.1687 -0.2559
  186SLPC  H13R21427   5.610   0.481   7.669  0.6847  0.4029  0.5825
  186SLPC  C21421428   5.463   0.631   7.748  0.4340  0.1066  0.0523
  186SLPC  H14R21429   5.434   0.557   7.825 -1.6432 -0.1648 -0.9217
  186SLPC  H14S21430   5.369   0.674   7.706 -1.2522  0.2563  3.5968
  186SLPC  C21521431   5.534   0.747   7.823 -0.4298 -0.4458  0.1361
  186SLPC  H15R21432   5.573   0.822   7.751 -1.5236  0.2808  0.2701
  186SLPC  H15S21433   5.620   0.698   7.873 -0.2602 -0.7804 -0.4757
  186SLPC  C21621434   5.446   0.815   7.924  0.4800 -0.0040 -0.1643
  186SLPC  H16R21435   5.418   0.740   8.002  2.9206  1.1803  2.0320
  186SLPC  H16S21436   5.351   0.856   7.884  0.6580  2.5111  1.6793
  186SLPC  C21721437   5.514   0.921   8.003 -0.3962  0.7208 -0.4827
  186SLPC  H17R21438   5.536   0.992   7.920  2.1143 -0.1870 -0.6687
  186SLPC  H17S21439   5.613   0.891   8.041 -0.5143  0.2663 -0.5307
  186SLPC  C21821440   5.431   0.980   8.119 -0.5882 -0.1604  0.1815
  186SLPC  H18R21441   5.323   0.955   8.110 -0.1008 -2.2260 -0.4168
  186SLPC  H18S21442   5.444   1.091   8.116  2.4415 -0.4577 -0.8462
  186SLPC  H18T21443   5.461   0.928   8.212 -0.3562 -2.5737 -1.1744
  186SLPC   C3321444   5.961   0.227   6.696  0.0217 -0.5790 -0.8570
  186SLPC   H3X21445   5.923   0.330   6.712 -1.2869 -0.8090 -2.2496
  186SLPC   H3Y21446   6.023   0.228   6.603 -0.5959 -0.3468 -1.2729
  186SLPC   C3421447   6.051   0.194   6.811 -0.0115  0.2028 -1.4853
  186SLPC   H4X21448   6.158   0.209   6.785  0.4073 -0.3366 -0.1677
  186SLPC   H4Y21449   6.042   0.086   6.836  0.8495  0.5690  0.6500
  186SLPC   C3521450   6.005   0.269   6.935  0.0188  0.1227  0.1834
  186SLPC   H5X21451   5.986   0.372   6.898 -0.0076 -0.1988 -0.7152
  186SLPC   H5Y21452   6.090   0.273   7.007  0.0296 -1.0093  0.2509
  186SLPC   C3621453   5.880   0.214   7.006 -0.2076  0.3481 -0.2908
  186SLPC   H6X21454   5.897   0.106   7.027 -1.8051  0.3616  1.3297
  186SLPC   H6Y21455   5.796   0.212   6.933 -1.2811  0.3757  0.9007
  186SLPC   C3721456   5.837   0.274   7.144  0.1935 -0.1586  0.7895
  186SLPC   H7X21457   5.745   0.230   7.186  1.3842 -1.3798  2.2417
  186SLPC   H7Y21458   5.822   0.384   7.139  1.4062  0.0091  0.2635
  186SLPC   C3821459   5.940   0.259   7.252  0.3147 -0.1790 -0.0954
  186SLPC   H8X21460   6.038   0.300   7.219  1.3219 -2.2126  0.2225
  186SLPC   H8Y21461   5.946   0.151   7.275 -1.0870 -0.3454 -0.4240
  186SLPC   C3921462   5.905   0.337   7.379  0.1114 -0.1239  0.4556
  186SLPC   H9X21463   5.874   0.440   7.354 -0.8730  0.3891  3.4483
  186SLPC   H9Y21464   6.001   0.351   7.433  0.8780  1.3832 -1.1785
  186SLPC  C31021465   5.808   0.274   7.479 -0.6671 -0.2036  0.3996
  186SLPC  H10X21466   5.727   0.235   7.414  0.6845  0.5239 -1.8253
  186SLPC  H10Y21467   5.771   0.354   7.546  1.2940  0.5051  0.6951
  186SLPC  C31121468   5.866   0.156   7.557  0.2802  0.0219 -0.1309
  186SLPC  H11X21469   5.970   0.183   7.587  0.2060 -1.6141  1.8382
  186SLPC  H11Y21470   5.871   0.061   7.501 -2.2132  0.2339 -0.8133
  186SLPC  C31221471   5.788   0.138   7.685  0.0904 -1.0051 -0.5780
  186SLPC  H12X21472   5.684   0.101   7.667  0.1499 -0.9705 -0.9896
  186SLPC  H12Y21473   5.774   0.234   7.739 -2.7605 -1.9542  0.6120
  186SLPC  C31321474   5.865   0.037   7.783  0.1894 -0.9698  0.3949
  186SLPC  H13X21475   5.963   0.080   7.813  0.2679 -1.3374  0.6658
  186SLPC  H13Y21476   5.888  -0.054   7.723 -0.3851 -0.1369 -1.1721
  186SLPC  C31421477   5.787   0.006   7.913  0.5874  0.1269  0.1920
  186SLPC  H14X21478   5.701  -0.059   7.887  1.0284 -0.2888 -0.2577
  186SLPC  H14Y21479   5.736   0.092   7.962  0.0541 -1.4562  2.5922
  186SLPC  C31521480   5.875  -0.065   8.015 -0.2788 -0.7649 -0.7783
  186SLPC  H15X21481   5.969  -0.016   8.048  0.2973 -0.6813 -2.4752
  186SLPC  H15Y21482   5.900  -0.166   7.977  2.1558 -0.3914 -0.3336
  186SLPC  C31621483   5.785  -0.124   8.128 -0.4874  0.4583  0.9079
  186SLPC  H16X21484   5.698  -0.175   8.082  0.1616  0.5462 -0.4588
  186SLPC  H16Y21485   5.732  -0.039   8.177  0.6001  0.6326  1.8335
  186SLPC  C31721486   5.848  -0.224   8.223 -0.8224 -0.3375  0.1093
  186SLPC  H17X21487   5.948  -0.181   8.247 -0.9135  0.4168 -0.8023
  186SLPC  H17Y21488   5.860  -0.312   8.157 -0.9793  1.4993 -2.5290
  186SLPC  C31821489   5.755  -0.249   8.347  0.3844 -0.5713  0.0410
  186SLPC  H18X21490   5.753  -0.153   8.404 -0.7338  0.1107 -1.1021
  186SLPC  H18Y21491   5.794  -0.326   8.417 -0.7375  0.2052  1.5841
  186SLPC  H18Z21492   5.654  -0.265   8.304  0.4701  0.8418 -0.7553
  187SLPC     N21493   5.483   3.493   6.017  0.3584 -0.7358 -0.5151
  187SLPC   C1321494   5.421   3.623   6.054  0.0217  0.2706 -0.2141
  187SLPC  H13A21495   5.314   3.622   6.060 -0.1258 -1.9853 -1.8567
  187SLPC  H13B21496   5.451   3.652   6.153 -1.4684  0.2851  0.2508
  187SLPC  H13C21497   5.461   3.699   5.988  1.4453 -0.0586  0.2168
  187SLPC   C1421498   5.459   3.449   5.871  0.2176  0.2030 -0.2209
  187SLPC  H14A21499   5.517   3.365   5.835  0.3406 -0.4272  1.3574
  187SLPC  H14B21500   5.355   3.425   5.857  0.3749 -1.6859  1.4487
  187SLPC  H14C21501   5.474   3.536   5.809 -0.6173 -0.2784 -1.1197
  187SLPC   C1521502   5.408   3.394   6.104 -0.6305  0.3649  0.2728
  187SLPC  H15A21503   5.444   3.292   6.094 -2.4328 -0.2922  0.0442
  187SLPC  H15B21504   5.410   3.412   6.210 -0.1979 -1.2287  0.5645
  187SLPC  H15C21505   5.305   3.400   6.072 -0.8633 -1.2403  0.6054
  187SLPC   C1221506   5.633   3.485   6.048  0.1051  0.2915  0.1290
  187SLPC  H12A21507   5.676   3.544   5.968 -0.4304 -0.1759 -0.5201
  187SLPC  H12B21508   5.666   3.384   6.028  0.6980  0.4972  0.0265
  187SLPC   C1121509   5.672   3.529   6.193 -0.0443 -0.4189  0.3059
  187SLPC  H11A21510   5.775   3.502   6.223 -0.8983 -2.7874  1.3829
  187SLPC  H11B21511   5.613   3.478   6.272 -0.0813 -3.0810 -1.3040
  187SLPC     P21512   5.753   3.779   6.176  0.2651  0.0791  0.0048
  187SLPC   O1321513   5.866   3.717   6.099 -0.6019  0.9257 -0.0797
  187SLPC   O1421514   5.677   3.888   6.103 -0.2210 -0.8348 -0.1035
  187SLPC   O1221515   5.648   3.670   6.218  0.1173 -0.2301 -0.1701
  187SLPC   O1121516   5.812   3.837   6.314 -0.2347  0.3944 -0.0378
  187SLPC    C121517   5.823   3.972   6.356  0.2116  0.6460 -0.4500
  187SLPC    HA21518   5.920   4.011   6.320  0.5487  2.2584  1.9406
  187SLPC    HB21519   5.740   4.032   6.313  0.8267  2.2542  0.5279
  187SLPC    C221520   5.810   3.987   6.508 -0.3174  0.1039  0.6500
  187SLPC    HS21521   5.782   4.094   6.520  0.7415  1.0244 -3.3874
  187SLPC   O2121522   5.931   3.946   6.573 -0.2196 -0.0671  0.0353
  187SLPC   C2121523   5.939   4.014   6.692  0.0918 -0.0065  0.4341
  187SLPC   O2221524   5.894   4.127   6.709  0.3385  0.1887  0.5418
  187SLPC   C2221525   5.989   3.921   6.800 -0.4189  1.1819  0.8615
  187SLPC   H2R21526   5.916   3.839   6.809  2.4247 -1.4698  1.4139
  187SLPC   H2S21527   6.084   3.875   6.766 -0.7213  0.0701  1.4975
  187SLPC    C321528   5.694   3.898   6.565  0.3736 -0.2332 -0.8264
  187SLPC    HX21529   5.748   3.802   6.554  0.4151 -0.3672  0.5075
  187SLPC    HY21530   5.610   3.900   6.492  1.2483 -1.6763 -1.9291
  187SLPC   O3121531   5.663   3.943   6.703  0.1155  0.2737  0.1640
  187SLPC   C3121532   5.573   3.859   6.754 -0.5873 -0.0240  0.3590
  187SLPC   O3221533   5.524   3.770   6.691 -0.7289  0.6007 -0.3698
  187SLPC   C3221534   5.530   3.902   6.899 -0.0011  0.3423  0.5512
  187SLPC   H2X21535   5.431   3.858   6.922  0.3250 -0.9112 -0.3877
  187SLPC   H2Y21536   5.517   4.013   6.899  0.6186  0.4228 -0.0732
  187SLPC   C2321537   6.008   3.992   6.938  0.1513  0.0041 -0.2535
  187SLPC   H3R21538   5.917   4.038   6.980  0.5305 -0.3442  1.0097
  187SLPC   H3S21539   6.087   4.069   6.929 -0.0580  0.3054  0.4495
  187SLPC   C2421540   6.048   3.893   7.042 -0.5331  0.0857  0.2788
  187SLPC   H4R21541   6.126   3.824   7.004  0.0156  1.3745 -1.0381
  187SLPC   H4S21542   5.958   3.836   7.074 -0.8552  0.8571  0.8005
  187SLPC   C2521543   6.109   3.969   7.161 -0.2453  0.1668 -0.7854
  187SLPC   H5R21544   6.077   4.075   7.154  2.7501  1.2457  0.1098
  187SLPC   H5S21545   6.220   3.969   7.152  0.1572 -2.6875  2.2569
  187SLPC   C2621546   6.055   3.910   7.300 -0.3289 -0.3077  0.0801
  187SLPC   H6R21547   6.086   3.804   7.313  0.6431 -0.2168 -1.2696
  187SLPC   H6S21548   5.946   3.909   7.283 -0.3632 -1.1455  0.3070
  187SLPC   C2721549   6.074   3.993   7.428 -0.0252 -0.7015 -0.3612
  187SLPC   H7R21550   6.020   3.952   7.516 -1.4510 -0.9681 -1.3203
  187SLPC   H7S21551   6.035   4.096   7.413  2.3486  0.6890  2.1476
  187SLPC   C2821552   6.225   4.021   7.468  0.5082  0.5036 -0.5387
  187SLPC   H8R21553   6.280   4.023   7.372 -0.4463 -2.1900 -1.2119
  187SLPC   H8S21554   6.271   3.939   7.526 -1.1846 -1.5602 -1.9526
  187SLPC   C2921555   6.233   4.149   7.550 -0.8171 -0.5865 -0.3393
  187SLPC   H9R21556   6.222   4.241   7.490 -0.1683  1.8236  2.9387
  187SLPC  C21021557   6.259   4.162   7.681 -0.0406  0.0129  0.2458
  187SLPC  H10R21558   6.261   4.266   7.718  0.0885  0.8291 -1.8990
  187SLPC  C21121559   6.273   4.054   7.784 -0.0727  0.4004 -0.5020
  187SLPC  H11R21560   6.375   4.072   7.824  0.4553 -0.8026 -1.2490
  187SLPC  H11S21561   6.276   3.950   7.747  0.0134  0.4607 -0.6649
  187SLPC  C21221562   6.171   4.074   7.893  0.0220 -0.4982 -0.1391
  187SLPC  H12R21563   6.081   4.011   7.890 -1.1746  1.0485  1.1743
  187SLPC  C21321564   6.178   4.168   7.988 -0.4176  0.4869  0.7550
  187SLPC  H13R21565   6.097   4.167   8.063 -0.5142 -0.2833  0.6443
  187SLPC  C21421566   6.289   4.266   8.013  0.4709  0.0084  0.2866
  187SLPC  H14R21567   6.243   4.367   8.019  1.4116  0.3921  1.2165
  187SLPC  H14S21568   6.358   4.270   7.926  1.9133  1.2735  1.4505
  187SLPC  C21521569   6.356   4.259   8.156 -0.3233 -0.4570 -0.1265
  187SLPC  H15R21570   6.427   4.344   8.154  0.8493 -1.3500 -4.4648
  187SLPC  H15S21571   6.406   4.159   8.158 -2.0724 -1.3865 -0.8036
  187SLPC  C21621572   6.257   4.283   8.271 -1.1415 -0.3526  0.2961
  187SLPC  H16R21573   6.201   4.189   8.292  1.1604 -1.5945  1.3475
  187SLPC  H16S21574   6.185   4.364   8.248  0.1031  1.0059  1.0276
  187SLPC  C21721575   6.334   4.314   8.405 -0.3122  0.0598  0.7130
  187SLPC  H17R21576   6.359   4.422   8.401  1.5436 -0.2688  1.9237
  187SLPC  H17S21577   6.433   4.262   8.409 -0.6137 -0.6745 -0.6278
  187SLPC  C21821578   6.250   4.276   8.522 -0.6162 -0.5595 -0.5602
  187SLPC  H18R21579   6.210   4.173   8.513 -0.9008 -0.9022  2.9615
  187SLPC  H18S21580   6.155   4.334   8.514 -0.6668 -0.3945  0.8771
  187SLPC  H18T21581   6.297   4.289   8.622 -0.0639  1.4163 -1.0402
  187SLPC   C3321582   5.633   3.850   7.007  0.1629  0.0852  0.4896
  187SLPC   H3X21583   5.600   3.888   7.105  1.1182 -0.2861  0.9626
  187SLPC   H3Y21584   5.741   3.874   7.005 -0.1752  1.8630  1.3544
  187SLPC   C3421585   5.634   3.695   7.009 -0.7432  0.0765  0.6470
  187SLPC   H4X21586   5.652   3.653   6.908  0.4034  0.2226  0.7807
  187SLPC   H4Y21587   5.532   3.661   7.038 -0.5401 -1.0994  0.0279
  187SLPC   C3521588   5.745   3.628   7.096  0.0071 -0.0969 -0.5014
  187SLPC   H5X21589   5.844   3.659   7.058  0.1265  1.8839  1.2049
  187SLPC   H5Y21590   5.725   3.519   7.100 -0.6639  0.0303 -0.2576
  187SLPC   C3621591   5.729   3.668   7.239  0.6909 -0.3576 -0.2276
  187SLPC   H6X21592   5.627   3.640   7.273  0.3709 -0.0853 -0.9417
  187SLPC   H6Y21593   5.735   3.779   7.249  0.3092 -0.4795  1.7676
  187SLPC   C3721594   5.837   3.615   7.330  0.6249 -0.2972  0.5128
  187SLPC   H7X21595   5.830   3.505   7.319  0.7270 -0.3178  0.6528
  187SLPC   H7Y21596   5.939   3.646   7.299 -0.3133  0.9439 -1.5516
  187SLPC   C3821597   5.806   3.650   7.476 -0.5689  0.1269 -0.2074
  187SLPC   H8X21598   5.817   3.757   7.504  0.3784 -0.2243  0.8502
  187SLPC   H8Y21599   5.887   3.602   7.535  0.1226  0.6329 -0.7313
  187SLPC   C3921600   5.666   3.611   7.527  0.5042  0.9518  0.2348
  187SLPC   H9X21601   5.634   3.514   7.485  0.4177  0.8731  0.4774
  187SLPC   H9Y21602   5.594   3.687   7.489  0.8361  0.2673 -1.9001
  187SLPC  C31021603   5.655   3.604   7.685 -0.3034 -0.4455  0.1001
  187SLPC  H10X21604   5.683   3.705   7.719 -0.4328 -0.4860  0.3335
  187SLPC  H10Y21605   5.723   3.528   7.729 -1.1632 -0.4493  1.4845
  187SLPC  C31121606   5.519   3.579   7.741  0.2701 -0.0455  0.0679
  187SLPC  H11X21607   5.496   3.474   7.713 -0.0077 -0.2134  0.9127
  187SLPC  H11Y21608   5.439   3.635   7.687  2.4595  1.6334 -1.6586
  187SLPC  C31221609   5.507   3.590   7.886  0.3573 -0.3712 -0.2086
  187SLPC  H12X21610   5.534   3.689   7.928 -0.2793 -0.3598  0.1844
  187SLPC  H12Y21611   5.579   3.515   7.923  2.1905  0.4715 -1.8739
  187SLPC  C31321612   5.376   3.554   7.936  0.6131  0.0936 -0.7393
  187SLPC  H13X21613   5.358   3.446   7.916 -1.1025  0.8573 -3.9219
  187SLPC  H13Y21614   5.296   3.606   7.879 -0.3342 -1.1968 -0.6344
  187SLPC  C31421615   5.370   3.595   8.081  0.0015  0.1814  0.1717
  187SLPC  H14X21616   5.270   3.559   8.114 -1.2612  2.4055 -1.0084
  187SLPC  H14Y21617   5.383   3.705   8.086  2.3264  0.0183 -0.9654
  187SLPC  C31521618   5.482   3.542   8.168 -0.3229  1.2183 -0.0689
  187SLPC  H15X21619   5.582   3.574   8.132 -0.9303  0.7690 -2.2802
  187SLPC  H15Y21620   5.474   3.432   8.158 -2.5661  1.2922  0.5380
  187SLPC  C31621621   5.466   3.575   8.315  0.5771  0.3217  0.7140
  187SLPC  H16X21622   5.358   3.562   8.336  0.0512  0.6664 -1.4783
  187SLPC  H16Y21623   5.479   3.681   8.347  1.6960  0.5101 -0.2780
  187SLPC  C31721624   5.558   3.488   8.398  0.2606  0.1580  1.3404
  187SLPC  H17X21625   5.663   3.525   8.388  0.4313 -0.6964 -0.3563
  187SLPC  H17Y21626   5.559   3.389   8.348  1.0678  1.9985 -2.6689
  187SLPC  C31821627   5.512   3.485   8.542  0.0112 -0.9610 -0.3134
  187SLPC  H18X21628   5.408   3.446   8.544 -0.4402  0.2223  0.4005
  187SLPC  H18Y21629   5.512   3.585   8.591  1.2703 -2.2562  2.5866
  187SLPC  H18Z21630   5.576   3.424   8.609 -0.8101 -0.6299  0.7922
  188SLPC     N21631   0.971   0.952   5.994 -0.7016  0.2088 -0.1572
  188SLPC   C1321632   0.905   0.836   6.052  0.1316  0.2375 -0.6581
  188SLPC  H13A21633   0.823   0.806   5.987  0.8830  1.5454 -2.2860
  188SLPC  H13B21634   0.966   0.747   6.058 -0.4230 -0.1738 -0.9603
  188SLPC  H13C21635   0.873   0.848   6.154  0.4167 -1.6204 -0.3036
  188SLPC   C1421636   1.034   0.912   5.859  0.5056  0.1759 -0.2893
  188SLPC  H14A21637   1.079   0.995   5.806  1.4864 -0.6747 -0.8299
  188SLPC  H14B21638   1.109   0.834   5.862  2.0877  1.6570  0.5793
  188SLPC  H14C21639   0.957   0.872   5.794  0.5092  0.7173 -0.6323
  188SLPC   C1521640   1.092   0.983   6.084  0.1490 -0.0071 -0.2016
  188SLPC  H15A21641   1.070   0.984   6.189 -1.6130 -1.0716 -0.5239
  188SLPC  H15B21642   1.177   0.920   6.063  0.9425 -0.0521  2.7288
  188SLPC  H15C21643   1.134   1.078   6.053  2.0012 -1.1334 -1.3705
  188SLPC   C1221644   0.874   1.062   5.982  0.9565 -0.5077  0.3379
  188SLPC  H12A21645   0.796   1.038   5.912  0.6840  0.6542  0.2093
  188SLPC  H12B21646   0.920   1.154   5.949  2.1032 -0.9304  0.7062
  188SLPC   C1121647   0.789   1.099   6.106 -0.1777 -0.1946 -0.3347
  188SLPC  H11A21648   0.737   1.194   6.078  0.6484  0.3606 -0.0349
  188SLPC  H11B21649   0.868   1.113   6.183  0.8158  0.1287 -1.3844
  188SLPC     P21650   0.627   0.989   6.285 -0.0647  0.2357  0.0825
  188SLPC   O1321651   0.515   1.091   6.281 -0.2856  0.2760  0.0747
  188SLPC   O1421652   0.589   0.851   6.320  0.2785  0.4723  0.0843
  188SLPC   O1221653   0.710   0.991   6.145  0.2695 -0.4908 -0.9050
  188SLPC   O1121654   0.731   1.036   6.394 -0.2754  0.1021 -0.0198
  188SLPC    C121655   0.845   0.966   6.453 -0.0267  0.0194 -0.2281
  188SLPC    HA21656   0.857   0.861   6.421 -1.1707 -0.4359  0.7505
  188SLPC    HB21657   0.932   1.028   6.424 -0.3128  0.7652  0.4691
  188SLPC    C221658   0.843   0.957   6.609 -0.1661 -0.3477  0.2047
  188SLPC    HS21659   0.787   0.864   6.632  1.0375 -1.1337 -0.0176
  188SLPC   O2121660   0.774   1.075   6.669 -0.4460  0.5760  0.5337
  188SLPC   C2121661   0.640   1.070   6.660 -0.2356  0.9789 -0.5720
  188SLPC   O2221662   0.575   0.976   6.621 -0.0299  0.8098  0.0339
  188SLPC   C2221663   0.588   1.189   6.735 -0.1534  0.8469 -0.3463
  188SLPC   H2R21664   0.658   1.247   6.798 -1.5904  2.6830 -0.3722
  188SLPC   H2S21665   0.564   1.261   6.655  0.6983  0.9034 -0.5619
  188SLPC    C321666   0.989   0.936   6.659  0.0135 -0.2791 -0.2282
  188SLPC    HX21667   1.051   1.021   6.622 -0.2894 -0.5563 -1.4034
  188SLPC    HY21668   1.035   0.855   6.599  6.2335  0.7521  2.3667
  188SLPC   O3121669   1.005   0.918   6.800  0.4269  0.2703  0.4145
  188SLPC   C3121670   0.996   0.795   6.845  0.0233  0.4652  0.0086
  188SLPC   O3221671   0.955   0.698   6.780  0.2194  0.4721  0.0429
  188SLPC   C3221672   1.027   0.805   7.001  0.0253  0.6502  0.0225
  188SLPC   H2X21673   0.957   0.882   7.041 -0.5692  1.9785 -3.2622
  188SLPC   H2Y21674   1.129   0.850   7.002  0.3697 -0.0442 -1.3260
  188SLPC   C2321675   0.449   1.171   6.820 -0.4787 -0.5329 -0.2823
  188SLPC   H3R21676   0.363   1.132   6.761 -1.8904  0.2801  1.1846
  188SLPC   H3S21677   0.412   1.272   6.845 -4.0267 -1.2991 -1.7870
  188SLPC   C2421678   0.462   1.094   6.950  0.0681  0.0947  0.3148
  188SLPC   H4R21679   0.383   1.127   7.020  0.1429  0.1833  0.3575
  188SLPC   H4S21680   0.560   1.111   6.999  0.3382 -0.2474 -0.0903
  188SLPC   C2521681   0.427   0.939   6.942  0.0718  0.0798  0.3513
  188SLPC   H5R21682   0.490   0.886   6.867 -1.0169 -0.6047 -0.1077
  188SLPC   H5S21683   0.325   0.932   6.897 -0.7895 -0.8517  2.3604
  188SLPC   C2621684   0.419   0.874   7.080 -0.4279  0.0463  0.8470
  188SLPC   H6R21685   0.355   0.942   7.140  0.3315  0.7154  0.9057
  188SLPC   H6S21686   0.519   0.866   7.126 -0.3519 -0.2219  0.6392
  188SLPC   C2721687   0.337   0.744   7.078 -0.8256 -0.2665  0.3317
  188SLPC   H7R21688   0.240   0.760   7.026 -0.5406  2.4352  0.5221
  188SLPC   H7S21689   0.308   0.708   7.179  1.3745 -0.2380  1.0348
  188SLPC   C2821690   0.405   0.621   6.997 -0.0416 -0.4519  0.2756
  188SLPC   H8R21691   0.407   0.662   6.893 -0.6243 -1.2377 -0.0552
  188SLPC   H8S21692   0.327   0.542   6.995 -1.4592  0.9008 -1.0125
  188SLPC   C2921693   0.542   0.580   7.022  0.2044  0.5435 -0.3825
  188SLPC   H9R21694   0.611   0.604   6.940  1.9529  1.6347  1.3282
  188SLPC  C21021695   0.584   0.525   7.139 -0.2027 -0.0471 -0.4680
  188SLPC  H10R21696   0.691   0.500   7.147 -0.0630  0.4382 -0.7813
  188SLPC  C21121697   0.502   0.486   7.261 -0.3462 -0.0567 -0.2721
  188SLPC  H11R21698   0.444   0.397   7.229  0.8004 -0.9845  0.1305
  188SLPC  H11S21699   0.436   0.568   7.296  1.6630  1.7627 -0.5551
  188SLPC  C21221700   0.586   0.450   7.376 -0.3131  0.5288  0.4294
  188SLPC  H12R21701   0.623   0.347   7.370  1.5341  1.1538  0.6336
  188SLPC  C21321702   0.627   0.529   7.473 -1.0500  0.1246  0.4019
  188SLPC  H13R21703   0.676   0.479   7.558 -2.6494 -0.8137  0.8129
  188SLPC  C21421704   0.592   0.676   7.504 -0.6721 -0.2336  0.0376
  188SLPC  H14R21705   0.541   0.738   7.427 -0.7872  1.8714  1.7272
  188SLPC  H14S21706   0.681   0.739   7.523 -2.4147  2.4063 -0.0760
  188SLPC  C21521707   0.520   0.681   7.638 -0.6113 -0.0306  0.0324
  188SLPC  H15R21708   0.426   0.621   7.636  0.1878 -1.3245 -0.3271
  188SLPC  H15S21709   0.487   0.787   7.642 -1.4972 -0.1319 -2.8246
  188SLPC  C21621710   0.618   0.661   7.756 -0.5628 -0.8380  0.2906
  188SLPC  H16R21711   0.675   0.756   7.755 -2.2715  0.2252 -0.0074
  188SLPC  H16S21712   0.694   0.583   7.732  0.7120  0.2390  0.7027
  188SLPC  C21721713   0.570   0.624   7.901 -0.0950 -0.1677 -0.5014
  188SLPC  H17R21714   0.502   0.537   7.890 -0.0783  0.0681 -3.0958
  188SLPC  H17S21715   0.510   0.711   7.937 -1.0360 -1.2097  0.5402
  188SLPC  C21821716   0.681   0.593   8.000 -0.5234 -0.0545 -0.0948
  188SLPC  H18R21717   0.763   0.539   7.947  0.9207  1.4685  0.5112
  188SLPC  H18S21718   0.649   0.526   8.083 -3.0414 -2.6905 -2.9546
  188SLPC  H18T21719   0.714   0.689   8.045  0.6568 -0.5636  0.1724
  188SLPC   C3321720   1.008   0.671   7.069 -0.8263 -0.5890  0.1026
  188SLPC   H3X21721   1.109   0.626   7.075 -0.5546  0.0345  0.2935
  188SLPC   H3Y21722   0.942   0.609   7.006 -1.2078 -1.2021  1.0774
  188SLPC   C3421723   0.949   0.677   7.211  0.1000 -0.0270 -0.2023
  188SLPC   H4X21724   0.920   0.573   7.237 -0.5844  0.6516  1.9343
  188SLPC   H4Y21725   0.853   0.732   7.206  0.1001  0.0886  0.8582
  188SLPC   C3521726   1.042   0.728   7.321  0.2139 -0.1990 -0.3028
  188SLPC   H5X21727   1.084   0.827   7.293 -0.1206 -0.5806 -2.3215
  188SLPC   H5Y21728   1.124   0.653   7.328  0.1748 -0.2283 -0.1635
  188SLPC   C3621729   0.956   0.749   7.446  0.2523 -0.3300  0.5451
  188SLPC   H6X21730   0.902   0.657   7.481 -2.0094  0.9084  0.4931
  188SLPC   H6Y21731   0.878   0.822   7.415  0.2182 -0.5902  0.0088
  188SLPC   C3721732   1.041   0.802   7.554 -0.4031  0.3588 -0.1291
  188SLPC   H7X21733   1.102   0.887   7.516  1.8850 -0.6553  1.0240
  188SLPC   H7Y21734   1.118   0.724   7.577 -1.3870 -1.1015 -1.5554
  188SLPC   C3821735   0.949   0.836   7.666  0.2643 -0.9292  0.3974
  188SLPC   H8X21736   0.901   0.738   7.691 -1.3500 -0.1669  0.4424
  188SLPC   H8Y21737   0.866   0.908   7.647  1.1392  0.0526  0.2328
  188SLPC   C3921738   1.025   0.891   7.790 -0.2217  0.3484  0.2414
  188SLPC   H9X21739   1.037   1.002   7.785  0.9058  0.2014 -0.6682
  188SLPC   H9Y21740   1.127   0.848   7.788 -0.7219 -0.8815 -1.1935
  188SLPC  C31021741   0.947   0.847   7.912  0.0455 -0.5173  0.8381
  188SLPC  H10X21742   0.915   0.742   7.925  1.5087 -0.8566  2.0104
  188SLPC  H10Y21743   0.851   0.902   7.912 -0.1407 -0.8281 -0.2980
  188SLPC  C31121744   1.024   0.895   8.041 -0.4429  0.0372 -0.2988
  188SLPC  H11X21745   1.036   1.005   8.047 -0.4207 -0.0527  3.2715
  188SLPC  H11Y21746   1.125   0.852   8.051 -1.3633 -2.1691  0.0130
  188SLPC  C31221747   0.949   0.866   8.172 -0.7363  0.2062 -0.4399
  188SLPC  H12X21748   0.915   0.761   8.172 -0.0822 -0.0162 -1.1352
  188SLPC  H12Y21749   0.851   0.919   8.174 -0.4545  0.9439 -2.8040
  188SLPC  C31321750   1.042   0.888   8.297 -0.2934 -0.1890  0.0089
  188SLPC  H13X21751   1.044   0.998   8.311 -2.5427 -0.1782  0.6965
  188SLPC  H13Y21752   1.146   0.857   8.275 -0.1990  0.6988 -0.9066
  188SLPC  C31421753   0.991   0.828   8.431 -0.3432  0.2385 -0.1560
  188SLPC  H14X21754   0.896   0.876   8.464  0.7842  2.2349  0.3505
  188SLPC  H14Y21755   1.064   0.859   8.508  0.3710 -0.5034 -0.5235
  188SLPC  C31521756   0.986   0.677   8.440 -0.7928  0.5902 -0.1586
  188SLPC  H15X21757   1.085   0.633   8.415 -0.4127  0.0923  2.0048
  188SLPC  H15Y21758   0.912   0.643   8.364 -0.0809 -1.6757  0.0923
  188SLPC  C31621759   0.950   0.612   8.580  0.0240 -0.1239 -0.2371
  188SLPC  H16X21760   0.865   0.660   8.632  0.9619 -0.2870  1.5512
  188SLPC  H16Y21761   1.039   0.641   8.640 -0.1484  2.7993 -1.2832
  188SLPC  C31721762   0.936   0.459   8.555 -0.2385  0.1489  0.0618
  188SLPC  H17X21763   1.031   0.427   8.507 -0.2054 -1.0566  0.8996
  188SLPC  H17Y21764   0.849   0.445   8.487 -0.2112  0.7646 -0.1088
  188SLPC  C31821765   0.909   0.388   8.688 -0.1007  0.1330  0.6850
  188SLPC  H18X21766   0.997   0.400   8.754 -0.9754  0.9706  1.7215
  188SLPC  H18Y21767   0.877   0.284   8.664 -2.4511  1.1917 -1.1200
  188SLPC  H18Z21768   0.820   0.433   8.736  2.1545  4.1999  1.4863
  189SLPC     N21769   3.094   5.104   5.891  0.0814  0.0183 -0.1274
  189SLPC   C1321770   3.230   5.174   5.879  0.3849  0.4724 -0.1931
  189SLPC  H13A21771   3.319   5.113   5.873 -0.0391 -0.0983 -0.9911
  189SLPC  H13B21772   3.226   5.228   5.785  0.0524  2.4546  0.9191
  189SLPC  H13C21773   3.236   5.250   5.955 -0.2047  1.2097 -0.8577
  189SLPC   C1421774   3.075   5.016   5.771  0.3543  0.3448 -0.1292
  189SLPC  H14A21775   2.990   4.951   5.784  0.2839  0.0384 -1.8739
  189SLPC  H14B21776   3.051   5.055   5.673 -2.0500 -1.1004 -0.1980
  189SLPC  H14C21777   3.163   4.957   5.749 -0.7417 -1.1737 -0.6558
  189SLPC   C1521778   2.990   5.215   5.908  0.0261 -0.3654 -0.1060
  189SLPC  H15A21779   2.985   5.267   6.002 -1.6331  2.2047 -1.5131
  189SLPC  H15B21780   3.006   5.295   5.837  2.0234  1.2817  2.0516
  189SLPC  H15C21781   2.892   5.171   5.900  0.7535 -2.3304  0.9850
  189SLPC   C1221782   3.073   5.032   6.023  0.1541  0.5005 -0.2544
  189SLPC  H12A21783   2.970   5.035   6.055  0.1531  1.0801 -0.2962
  189SLPC  H12B21784   3.130   5.080   6.102 -0.6905  1.0347  0.0424
  189SLPC   C1121785   3.123   4.884   6.037  0.7200 -0.0635  0.3983
  189SLPC  H11A21786   3.138   4.859   6.144 -0.0557 -0.5084  0.4066
  189SLPC  H11B21787   3.223   4.863   5.993  0.1605 -1.7808 -0.0926
  189SLPC     P21788   2.881   4.777   6.038 -0.2531 -0.3495  0.1907
  189SLPC   O1321789   2.787   4.874   5.973 -0.0894  0.0379 -0.7256
  189SLPC   O1421790   2.841   4.637   6.020  0.2039 -0.2957  0.6763
  189SLPC   O1221791   3.028   4.793   5.972  0.8999  0.6598 -0.1231
  189SLPC   O1121792   2.896   4.796   6.188 -0.3530 -0.7510  0.0895
  189SLPC    C121793   2.843   4.907   6.263  0.2788 -0.0827  0.1799
  189SLPC    HA21794   2.924   4.980   6.283  1.6637 -1.0326 -1.6259
  189SLPC    HB21795   2.763   4.959   6.207 -2.1257 -2.2349  1.3955
  189SLPC    C221796   2.786   4.876   6.402  0.6451  0.6238  0.1726
  189SLPC    HS21797   2.756   4.969   6.455 -2.0054 -0.2749  0.4081
  189SLPC   O2121798   2.880   4.809   6.482 -0.2436  0.2106  0.0223
  189SLPC   C2121799   2.961   4.888   6.546  0.0886 -0.3238 -0.5863
  189SLPC   O2221800   2.950   5.011   6.548  0.2047 -0.2951  0.4019
  189SLPC   C2221801   3.072   4.808   6.624  0.1924  0.1884  0.5195
  189SLPC   H2R21802   3.128   4.754   6.545  0.9192  1.9565 -0.2032
  189SLPC   H2S21803   3.133   4.891   6.666 -1.1309  1.4173  0.0998
  189SLPC    C321804   2.659   4.788   6.388  0.4981  0.1718  0.0809
  189SLPC    HX21805   2.675   4.708   6.313  2.2233 -2.3157  2.8509
  189SLPC    HY21806   2.585   4.855   6.340  0.0377 -0.9192 -0.7493
  189SLPC   O3121807   2.614   4.736   6.512 -0.4681 -0.6352  0.0765
  189SLPC   C3121808   2.587   4.613   6.521 -0.1151 -0.8661 -0.5138
  189SLPC   O3221809   2.578   4.535   6.428  0.5075 -0.0003 -0.7964
  189SLPC   C3221810   2.546   4.568   6.657  0.0895 -0.6413 -0.1814
  189SLPC   H2X21811   2.584   4.466   6.681  0.6451 -0.2579  0.6017
  189SLPC   H2Y21812   2.435   4.564   6.655  0.0134  0.9320 -0.6798
  189SLPC   C2321813   3.019   4.717   6.738 -0.3335 -0.0850 -0.5061
  189SLPC   H3R21814   3.097   4.645   6.770 -0.9175 -0.2601  0.5819
  189SLPC   H3S21815   2.931   4.662   6.699 -0.4424 -0.5397  0.3675
  189SLPC   C2421816   2.982   4.785   6.868  0.0181  0.5279  0.2034
  189SLPC   H4R21817   2.931   4.712   6.934 -1.6414  1.5030  0.0732
  189SLPC   H4S21818   2.904   4.861   6.846  1.2332  2.0614  1.0479
  189SLPC   C2521819   3.095   4.849   6.945 -0.3117 -0.4478  0.1674
  189SLPC   H5R21820   3.154   4.927   6.891 -0.7985 -1.0275 -1.2319
  189SLPC   H5S21821   3.180   4.778   6.958  0.3151 -0.3735 -2.8453
  189SLPC   C2621822   3.041   4.905   7.082  0.1652 -0.5262  0.7599
  189SLPC   H6R21823   2.960   4.840   7.121 -1.4070  0.8839 -0.0125
  189SLPC   H6S21824   2.993   5.001   7.054  0.0847 -1.8775 -4.7488
  189SLPC   C2721825   3.156   4.909   7.187  0.1590 -0.0512  1.2009
  189SLPC   H7R21826   3.145   4.987   7.266  1.0361 -0.7084  1.9974
  189SLPC   H7S21827   3.254   4.940   7.144 -0.2057  1.1839  1.2089
  189SLPC   C2821828   3.169   4.775   7.267 -0.2074 -0.3237  0.0564
  189SLPC   H8R21829   3.273   4.780   7.308  0.1668 -0.7250 -0.8299
  189SLPC   H8S21830   3.181   4.693   7.193  0.2267  0.1889 -0.4504
  189SLPC   C2921831   3.060   4.754   7.367  0.4784 -0.6142 -0.0420
  189SLPC   H9R21832   2.959   4.753   7.323  0.8156 -2.3218 -0.8562
  189SLPC  C21021833   3.079   4.728   7.498  0.1771 -0.2468 -0.3846
  189SLPC  H10R21834   2.990   4.703   7.557 -0.7829  1.0030 -1.2493
  189SLPC  C21121835   3.210   4.715   7.556 -0.2032  0.3179 -0.4468
  189SLPC  H11R21836   3.290   4.717   7.479 -1.2416  1.6189 -1.5389
  189SLPC  H11S21837   3.220   4.621   7.614  0.4402  1.1406  0.8399
  189SLPC  C21221838   3.230   4.820   7.657 -0.0858 -0.1014 -0.5014
  189SLPC  H12R21839   3.294   4.906   7.629 -1.3132  0.8215 -0.5752
  189SLPC  C21321840   3.190   4.822   7.780  0.1899 -0.5103 -0.6052
  189SLPC  H13R21841   3.230   4.900   7.847  1.1442 -1.9891  0.6281
  189SLPC  C21421842   3.122   4.706   7.849 -0.1142  0.6521  0.1590
  189SLPC  H14R21843   3.188   4.667   7.929 -0.1274  0.3390  0.0211
  189SLPC  H14S21844   3.108   4.622   7.778  2.9251  0.9646 -0.9376
  189SLPC  C21521845   2.984   4.754   7.896  0.3037 -0.1258 -0.2196
  189SLPC  H15R21846   2.937   4.665   7.944 -0.1771 -0.4876 -1.3173
  189SLPC  H15S21847   2.923   4.782   7.808  3.2714  0.9517 -2.0782
  189SLPC  C21621848   2.989   4.868   8.004 -0.9620  0.8118 -0.2157
  189SLPC  H16R21849   2.894   4.912   8.042  0.4479  1.6941  2.5863
  189SLPC  H16S21850   3.038   4.951   7.949  0.2679 -0.0952 -0.5226
  189SLPC  C21721851   3.056   4.831   8.135  0.3696 -0.1618 -0.3877
  189SLPC  H17R21852   3.145   4.770   8.109 -0.8815 -1.7674 -1.1026
  189SLPC  H17S21853   2.992   4.766   8.199 -0.0525  1.2801  0.7138
  189SLPC  C21821854   3.105   4.938   8.237 -0.4531 -0.4574 -0.4241
  189SLPC  H18R21855   3.163   5.020   8.189  1.6505  0.3806  3.2114
  189SLPC  H18S21856   3.181   4.903   8.310 -0.6598  1.3048  0.6894
  189SLPC  H18T21857   3.013   4.984   8.277 -0.7338 -0.5776 -0.9194
  189SLPC   C3321858   2.584   4.660   6.779  0.3375 -0.0316  0.2802
  189SLPC   H3X21859   2.543   4.763   6.780 -0.2320 -0.2530  0.7748
  189SLPC   H3Y21860   2.693   4.681   6.790  0.1088  1.2158  0.2815
  189SLPC   C3421861   2.530   4.587   6.905 -0.2158 -0.0410  0.4087
  189SLPC   H4X21862   2.585   4.490   6.913  2.0842  1.2278  0.6791
  189SLPC   H4Y21863   2.421   4.566   6.901  0.2779 -3.1933  0.4228
  189SLPC   C3521864   2.576   4.659   7.031  0.1424  0.4425  0.3027
  189SLPC   H5X21865   2.530   4.759   7.036 -0.2406  0.3326 -0.6475
  189SLPC   H5Y21866   2.685   4.671   7.014  0.6080 -1.7383  1.3558
  189SLPC   C3621867   2.538   4.597   7.160 -0.2621  0.4461 -0.1215
  189SLPC   H6X21868   2.580   4.495   7.159 -2.4118 -0.5871  2.4754
  189SLPC   H6Y21869   2.429   4.577   7.173 -0.3775  1.4665  0.6944
  189SLPC   C3721870   2.592   4.670   7.277  0.4656  0.1880  0.3421
  189SLPC   H7X21871   2.536   4.765   7.293  0.1968  0.2341 -0.8058
  189SLPC   H7Y21872   2.699   4.685   7.254  0.4652 -1.5959 -0.9779
  189SLPC   C3821873   2.575   4.595   7.407  0.8770 -0.0549  0.2203
  189SLPC   H8X21874   2.629   4.498   7.418  0.0934 -0.5332 -0.0648
  189SLPC   H8Y21875   2.467   4.587   7.431  0.6655  2.9309  0.6510
  189SLPC   C3921876   2.638   4.671   7.527  0.0876 -0.4057 -0.5445
  189SLPC   H9X21877   2.573   4.760   7.538 -3.8361 -3.2658  2.1016
  189SLPC   H9Y21878   2.739   4.707   7.498 -0.4718  0.6096 -1.2626
  189SLPC  C31021879   2.624   4.602   7.663 -0.2490 -0.4114  0.5805
  189SLPC  H10X21880   2.711   4.533   7.669  1.7593  2.0076  1.0355
  189SLPC  H10Y21881   2.523   4.555   7.662 -0.7368  0.5219  2.1064
  189SLPC  C31121882   2.618   4.698   7.788  0.5221 -0.3465  0.5675
  189SLPC  H11X21883   2.528   4.762   7.772  1.6861  1.8401  2.1732
  189SLPC  H11Y21884   2.711   4.758   7.790 -0.3817  1.4525 -3.1605
  189SLPC  C31221885   2.583   4.625   7.920  0.2624  0.7040  0.1544
  189SLPC  H12X21886   2.651   4.539   7.935  1.5865  1.9327  1.5239
  189SLPC  H12Y21887   2.478   4.590   7.913  1.1865 -1.9318 -2.5222
  189SLPC  C31321888   2.596   4.707   8.051 -0.1265 -0.2544  0.2389
  189SLPC  H13X21889   2.521   4.789   8.047 -0.3131 -0.4714 -1.6106
  189SLPC  H13Y21890   2.696   4.757   8.048  0.3053 -0.9217  2.1742
  189SLPC  C31421891   2.584   4.614   8.179 -0.3043 -0.1684  0.5526
  189SLPC  H14X21892   2.652   4.527   8.171  0.6750  0.6512 -0.3005
  189SLPC  H14Y21893   2.488   4.558   8.183 -0.0328 -0.7472 -0.7233
  189SLPC  C31521894   2.604   4.687   8.316  0.4436  0.0662  0.1022
  189SLPC  H15X21895   2.614   4.604   8.389  1.5556 -1.5484 -1.7924
  189SLPC  H15Y21896   2.532   4.768   8.340 -0.8926 -0.4604 -1.9376
  189SLPC  C31621897   2.743   4.749   8.319 -0.5490 -0.0365  0.6836
  189SLPC  H16X21898   2.748   4.845   8.263  2.4847 -0.6520 -0.2894
  189SLPC  H16Y21899   2.813   4.682   8.265 -1.0711 -0.8735  1.0311
  189SLPC  C31721900   2.796   4.787   8.459 -0.4835  0.2484  0.0120
  189SLPC  H17X21901   2.725   4.815   8.539  0.6179  1.1093  0.7067
  189SLPC  H17Y21902   2.855   4.880   8.445  0.9574 -0.6294  0.0132
  189SLPC  C31821903   2.887   4.673   8.516  0.5458 -0.1722 -0.1002
  189SLPC  H18X21904   2.830   4.578   8.522 -0.7675  0.6665  1.4926
  189SLPC  H18Y21905   2.917   4.698   8.620 -1.2527 -2.5774  1.0976
  189SLPC  H18Z21906   2.978   4.650   8.457  0.1318  0.5059 -1.0220
  190SLPC     N21907   1.624   4.305   6.123  0.0687 -0.4808  0.4709
  190SLPC   C1321908   1.517   4.407   6.149  0.3807  0.0969 -0.6775
  190SLPC  H13A21909   1.529   4.498   6.092 -1.6097  0.8237 -0.0287
  190SLPC  H13B21910   1.421   4.365   6.124  1.5229 -2.9526 -0.3141
  190SLPC  H13C21911   1.523   4.427   6.255 -0.0047 -3.0135  0.0264
  190SLPC   C1421912   1.623   4.276   5.976  0.3221  0.2810 -0.0396
  190SLPC  H14A21913   1.685   4.191   5.952 -1.4504 -0.8006 -0.9794
  190SLPC  H14B21914   1.519   4.269   5.948  0.7898  1.3033 -2.2629
  190SLPC  H14C21915   1.658   4.359   5.916 -1.3009  1.2256  0.2688
  190SLPC   C1521916   1.581   4.179   6.183  0.3022 -0.0442 -0.6289
  190SLPC  H15A21917   1.636   4.102   6.130 -0.1692 -0.0988 -1.0502
  190SLPC  H15B21918   1.603   4.168   6.288 -4.0794 -0.8667  0.4022
  190SLPC  H15C21919   1.476   4.161   6.164  0.1108 -0.4280  0.7091
  190SLPC   C1221920   1.758   4.356   6.172  0.4073  0.4191 -0.0352
  190SLPC  H12A21921   1.749   4.380   6.277 -1.1864  0.0116 -0.0567
  190SLPC  H12B21922   1.788   4.447   6.121 -0.0949  1.2162  1.0577
  190SLPC   C1121923   1.879   4.258   6.174 -0.2225  0.2919 -0.4672
  190SLPC  H11A21924   1.981   4.297   6.192  0.2012 -2.1280  3.5056
  190SLPC  H11B21925   1.888   4.199   6.080 -0.1535 -0.3499 -0.0577
  190SLPC     P21926   1.932   4.028   6.291 -0.6829  0.2309 -0.4610
  190SLPC   O1321927   1.914   3.960   6.165  0.8964  0.3452 -0.3806
  190SLPC   O1421928   2.077   4.036   6.336 -0.1134  0.1142  0.2886
  190SLPC   O1221929   1.860   4.167   6.286 -0.2692  0.3476  0.5996
  190SLPC   O1121930   1.847   3.951   6.398 -0.5586  0.5474 -0.5748
  190SLPC    C121931   1.851   3.984   6.535 -0.5275  0.2888 -0.6123
  190SLPC    HA21932   1.825   3.902   6.605  1.1154  0.0168 -0.2902
  190SLPC    HB21933   1.956   3.999   6.568 -0.8339  0.1245  0.4761
  190SLPC    C221934   1.759   4.100   6.577 -0.3048 -0.1865  0.5999
  190SLPC    HS21935   1.671   4.095   6.510 -1.9022 -0.8288  2.6154
  190SLPC   O2121936   1.832   4.226   6.567  0.0609 -0.3507  0.5236
  190SLPC   C2121937   1.765   4.336   6.558  0.0530 -0.4020 -0.3562
  190SLPC   O2221938   1.640   4.342   6.549  0.9141  0.2581 -0.0779
  190SLPC   C2221939   1.855   4.459   6.579  0.8371  0.5096 -0.2041
  190SLPC   H2R21940   1.876   4.470   6.687  1.3735  0.2627 -0.2770
  190SLPC   H2S21941   1.941   4.439   6.510  0.8852  1.9061 -0.5939
  190SLPC    C321942   1.705   4.085   6.720 -0.1143 -0.2044  0.9834
  190SLPC    HX21943   1.639   3.996   6.723  1.1513 -1.1812  0.6200
  190SLPC    HY21944   1.643   4.173   6.750 -1.6732 -1.0577  0.3932
  190SLPC   O3121945   1.805   4.058   6.822 -0.0868 -0.2040  0.2218
  190SLPC   C3121946   1.745   4.039   6.940 -0.4526 -0.4167  0.1428
  190SLPC   O3221947   1.629   4.042   6.959  0.4211 -0.1032 -0.2169
  190SLPC   C3221948   1.851   4.015   7.048  0.5702  0.3556 -0.9925
  190SLPC   H2X21949   1.853   4.103   7.114 -4.0472 -0.6844  0.9609
  190SLPC   H2Y21950   1.950   3.989   7.006  0.4809  1.1602 -1.7374
  190SLPC   C2321951   1.780   4.586   6.532 -0.0864 -0.6553 -0.1626
  190SLPC   H3R21952   1.698   4.598   6.606  0.1910 -0.1274  0.0636
  190SLPC   H3S21953   1.732   4.576   6.432  0.2627 -1.5646 -0.2509
  190SLPC   C2421954   1.865   4.716   6.556  0.1670  0.0494 -0.0481
  190SLPC   H4R21955   1.892   4.717   6.663 -2.7764 -2.1436  0.8280
  190SLPC   H4S21956   1.802   4.805   6.535 -0.5693  0.1441  2.3525
  190SLPC   C2521957   1.989   4.723   6.463 -0.1066 -1.0217 -0.7592
  190SLPC   H5R21958   1.958   4.759   6.363 -1.5730 -0.4786 -0.1363
  190SLPC   H5S21959   2.047   4.628   6.465  0.0649 -0.9381 -1.4902
  190SLPC   C2621960   2.100   4.821   6.526  0.5446 -0.1759 -0.5747
  190SLPC   H6R21961   2.054   4.917   6.556  1.5430  0.3801 -0.7573
  190SLPC   H6S21962   2.177   4.854   6.453  0.8712  1.5437  0.4775
  190SLPC   C2721963   2.157   4.771   6.653 -0.4059  0.1301  0.4290
  190SLPC   H7R21964   2.200   4.669   6.648 -1.8638 -0.5175  0.6385
  190SLPC   H7S21965   2.084   4.755   6.735 -0.9761  2.0996  0.3433
  190SLPC   C2821966   2.264   4.866   6.703  0.0032 -0.5821 -0.7079
  190SLPC   H8R21967   2.341   4.894   6.629 -1.0091  2.3002 -0.7781
  190SLPC   H8S21968   2.312   4.807   6.784 -0.7138  1.7577  1.5467
  190SLPC   C2921969   2.214   4.998   6.752  0.2064 -0.2003  0.3538
  190SLPC   H9R21970   2.213   5.075   6.673  0.0662 -0.1198  0.4356
  190SLPC  C21021971   2.167   5.028   6.875 -0.8814 -0.7094  0.1269
  190SLPC  H10R21972   2.140   5.132   6.897  2.2500 -0.0891  1.5620
  190SLPC  C21121973   2.150   4.930   6.988  0.3619 -0.9329  1.0296
  190SLPC  H11R21974   2.148   4.824   6.954  0.4499  0.1842 -2.9525
  190SLPC  H11S21975   2.045   4.935   7.022  0.4993  1.5305  1.2707
  190SLPC  C21221976   2.243   4.979   7.100  0.0933 -0.0215  0.2441
  190SLPC  H12R21977   2.339   5.017   7.061 -0.8839  1.7438 -0.5659
  190SLPC  C21321978   2.230   4.966   7.233  0.0181 -0.9009  0.5111
  190SLPC  H13R21979   2.312   5.016   7.286 -1.4562  2.3687 -0.0277
  190SLPC  C21421980   2.116   4.899   7.300  0.0128  0.5767 -0.6561
  190SLPC  H14R21981   2.057   4.822   7.246  0.2038  0.2996 -0.4721
  190SLPC  H14S21982   2.040   4.977   7.318 -0.5072 -0.1631  0.5020
  190SLPC  C21521983   2.171   4.837   7.430 -0.2245  0.3872 -0.7620
  190SLPC  H15R21984   2.228   4.912   7.490  0.9936 -0.3032 -1.0098
  190SLPC  H15S21985   2.248   4.767   7.389 -0.1361  0.4375 -0.6829
  190SLPC  C21621986   2.062   4.765   7.512  0.2367  0.4866 -0.2606
  190SLPC  H16R21987   2.116   4.700   7.585 -0.3043  0.2050 -0.1081
  190SLPC  H16S21988   1.978   4.711   7.464 -0.6505  0.5060  1.2006
  190SLPC  C21721989   1.976   4.856   7.600 -0.3564 -0.5164  0.6286
  190SLPC  H17R21990   1.911   4.910   7.528  1.2725 -0.2111 -0.6601
  190SLPC  H17S21991   2.033   4.937   7.652 -0.9603 -0.6057  1.4558
  190SLPC  C21821992   1.908   4.779   7.709 -0.6497  0.0519  0.1848
  190SLPC  H18R21993   1.826   4.830   7.764 -0.7436  0.8836 -0.6947
  190SLPC  H18S21994   1.987   4.750   7.782 -0.8937  0.4266  0.6024
  190SLPC  H18T21995   1.851   4.696   7.663  0.0345  0.6884 -1.9589
  190SLPC   C3321996   1.805   3.899   7.146 -0.7183 -0.7732  0.3952
  190SLPC   H3X21997   1.780   3.807   7.090 -1.5049 -0.9610  1.0482
  190SLPC   H3Y21998   1.716   3.932   7.203 -1.1564  0.4072 -0.9310
  190SLPC   C3421999   1.908   3.871   7.249  0.9756 -0.4153 -0.5494
  190SLPC   H4X22000   1.934   3.968   7.296 -1.8956  1.1095 -1.8209
  190SLPC   H4Y22001   2.004   3.842   7.201  0.8113  0.2303 -1.2951
  190SLPC   C3522002   1.868   3.770   7.354 -0.1060  0.2498 -0.2752
  190SLPC   H5X22003   1.844   3.677   7.298  1.5036 -0.6237  0.4242
  190SLPC   H5Y22004   1.777   3.805   7.407  1.9017  2.9298  1.6343
  190SLPC   C3622005   1.979   3.750   7.464  0.0898  0.0515  0.1104
  190SLPC   H6X22006   1.976   3.832   7.539  0.2365 -1.1824  1.4975
  190SLPC   H6Y22007   2.076   3.762   7.411 -0.1855 -1.2865 -0.7375
  190SLPC   C3722008   1.980   3.617   7.545 -0.1603  0.1638  0.1286
  190SLPC   H7X22009   2.020   3.541   7.474  1.0687  0.4762  0.4677
  190SLPC   H7Y22010   1.888   3.586   7.598 -0.0303  1.7482  1.3407
  190SLPC   C3822011   2.096   3.627   7.645 -0.1069 -0.3831 -0.0079
  190SLPC   H8X22012   2.088   3.724   7.699  0.6782 -1.4422  2.1450
  190SLPC   H8Y22013   2.194   3.620   7.593  0.3596 -0.2294  0.8194
  190SLPC   C3922014   2.102   3.526   7.765 -0.1667 -0.0878 -0.4473
  190SLPC   H9X22015   2.021   3.550   7.838  0.9437 -2.7863  1.8244
  190SLPC   H9Y22016   2.192   3.546   7.827 -0.6480 -2.3457  1.0926
  190SLPC  C31022017   2.106   3.377   7.729  0.6617 -0.2917 -0.3059
  190SLPC  H10X22018   2.191   3.373   7.658 -0.5126  2.9956 -2.1295
  190SLPC  H10Y22019   2.019   3.353   7.665  0.0838 -1.2470  0.8125
  190SLPC  C31122020   2.107   3.293   7.856  0.3815 -0.0609 -0.2845
  190SLPC  H11X22021   2.180   3.339   7.927 -1.8778 -1.2420  3.0982
  190SLPC  H11Y22022   2.147   3.195   7.823 -0.8345 -1.3670  1.8503
  190SLPC  C31222023   1.961   3.273   7.906  0.0676 -0.3397 -0.1679
  190SLPC  H12X22024   1.917   3.204   7.830  1.1796 -0.4896 -0.7000
  190SLPC  H12Y22025   1.912   3.372   7.915  0.6019 -0.2480  2.4571
  190SLPC  C31322026   1.959   3.208   8.044 -0.4700 -0.2090  0.2224
  190SLPC  H13X22027   2.020   3.275   8.108  2.3026 -1.5970 -0.7884
  190SLPC  H13Y22028   1.998   3.104   8.034  0.3430  0.3462 -5.2413
  190SLPC  C31422029   1.811   3.199   8.080  0.3863 -0.9119 -0.0603
  190SLPC  H14X22030   1.764   3.151   7.992  3.4775 -1.7760 -1.3500
  190SLPC  H14Y22031   1.769   3.302   8.092  0.7755 -0.9567  2.0630
  190SLPC  C31522032   1.791   3.138   8.214 -0.2102  0.6269 -0.1821
  190SLPC  H15X22033   1.884   3.148   8.274 -1.0771 -0.4381  1.4027
  190SLPC  H15Y22034   1.766   3.030   8.205  1.0786  0.3751 -1.1718
  190SLPC  C31622035   1.683   3.214   8.295 -0.0566  0.0374 -0.2444
  190SLPC  H16X22036   1.587   3.213   8.238 -0.5993 -1.1497  0.6465
  190SLPC  H16Y22037   1.720   3.318   8.307  1.0888  0.0508 -3.1334
  190SLPC  C31722038   1.656   3.154   8.435 -0.5951  0.2835 -0.1066
  190SLPC  H17X22039   1.592   3.224   8.493  1.2003  0.5199  1.6971
  190SLPC  H17Y22040   1.748   3.143   8.497 -0.0459  2.0517 -0.5413
  190SLPC  C31822041   1.590   3.021   8.437  0.1166  0.2144  0.3741
  190SLPC  H18X22042   1.494   3.016   8.381  0.0349 -2.4598  0.6047
  190SLPC  H18Y22043   1.568   2.987   8.541 -2.3294 -1.0339 -0.4734
  190SLPC  H18Z22044   1.663   2.947   8.399 -0.5938  0.8710 -2.4808
  191SLPC     N22045   6.362   1.333   6.008 -0.1437 -0.3799  0.9007
  191SLPC   C1322046   6.344   1.244   5.894  0.4033 -0.1310  0.1520
  191SLPC  H13A22047   6.435   1.233   5.838  0.3423 -0.1249  0.0500
  191SLPC  H13B22048   6.322   1.143   5.923 -1.2305  0.5196  1.4124
  191SLPC  H13C22049   6.273   1.284   5.823  0.3172  0.2513  0.4438
  191SLPC   C1422050   6.405   1.245   6.125 -0.1690  0.0282  0.2792
  191SLPC  H14A22051   6.343   1.157   6.141  1.4309 -1.2775 -0.4148
  191SLPC  H14B22052   6.505   1.220   6.094 -0.4196  2.5080 -3.1463
  191SLPC  H14C22053   6.390   1.307   6.213 -2.7273  0.4044 -0.3436
  191SLPC   C1522054   6.232   1.403   6.040  0.9913  0.2351  0.9319
  191SLPC  H15A22055   6.155   1.335   6.070  1.0592  0.1725  0.9636
  191SLPC  H15B22056   6.247   1.475   6.120 -1.0585  0.5773  1.0625
  191SLPC  H15C22057   6.202   1.460   5.953  1.0490  0.4487  1.0510
  191SLPC   C1222058   6.466   1.444   5.983  0.0349 -0.3877 -0.1488
  191SLPC  H12A22059   6.484   1.494   6.076  0.0998 -0.3231 -0.1962
  191SLPC  H12B22060   6.429   1.519   5.914 -0.6660 -0.7330 -0.1632
  191SLPC   C1122061   6.612   1.414   5.927  0.8622  0.2711 -0.3977
  191SLPC  H11A22062   6.658   1.514   5.907 -1.8675  1.4861 -1.1063
  191SLPC  H11B22063   6.596   1.368   5.827 -0.4571  1.1005 -0.6048
  191SLPC     P22064   6.758   1.368   6.144  0.1562 -0.5541  0.0680
  191SLPC   O1322065   6.763   1.248   6.232  0.2519 -0.2691 -0.3646
  191SLPC   O1422066   6.894   1.422   6.111  0.5720 -0.3212  0.1463
  191SLPC   O1222067   6.687   1.328   6.006  0.4245  0.0913 -0.4422
  191SLPC   O1122068   6.673   1.478   6.210  0.7918  0.2299 -0.4600
  191SLPC    C122069   6.729   1.552   6.314 -0.3444 -0.1908  0.4923
  191SLPC    HA22070   6.736   1.482   6.400 -1.1371 -2.0608 -0.9178
  191SLPC    HB22071   6.826   1.600   6.286 -0.0622 -0.4757  0.9696
  191SLPC    C222072   6.642   1.678   6.358  0.3020  0.1055 -0.4364
  191SLPC    HS22073   6.655   1.757   6.281 -1.1582  0.1337 -0.6737
  191SLPC   O2122074   6.687   1.716   6.495 -0.5971  0.3665 -0.7715
  191SLPC   C2122075   6.786   1.806   6.488 -0.3853 -1.2369  0.0296
  191SLPC   O2222076   6.818   1.868   6.388  0.3577  0.4554  0.4796
  191SLPC   C2222077   6.850   1.831   6.621 -0.7750 -0.2106  0.0097
  191SLPC   H2R22078   6.946   1.883   6.598 -1.9164  1.9206 -0.1663
  191SLPC   H2S22079   6.785   1.893   6.686  0.9162 -0.3517  1.9253
  191SLPC    C322080   6.489   1.646   6.357 -0.0333 -0.4344 -0.7785
  191SLPC    HX22081   6.463   1.651   6.249  0.3718  1.6685 -0.8303
  191SLPC    HY22082   6.429   1.728   6.401  4.4280  1.1126  3.4514
  191SLPC   O3122083   6.461   1.511   6.410 -0.0325  0.2450  0.0150
  191SLPC   C3122084   6.409   1.513   6.525  0.2388  0.7013  0.2550
  191SLPC   O3222085   6.377   1.617   6.589 -0.2627  1.2462  0.1081
  191SLPC   C3222086   6.372   1.376   6.566  0.5822  0.4953 -0.0821
  191SLPC   H2X22087   6.271   1.349   6.528  0.7605  1.0825 -1.0022
  191SLPC   H2Y22088   6.378   1.375   6.677 -0.8052  3.9692  0.1396
  191SLPC   C2322089   6.889   1.693   6.691  0.6757  0.6599  0.4396
  191SLPC   H3R22090   6.936   1.635   6.609 -1.6980  2.3173 -2.3117
  191SLPC   H3S22091   6.805   1.628   6.725 -1.3415  3.4208  1.1540
  191SLPC   C2422092   6.983   1.716   6.808  0.3471  0.2596  0.3552
  191SLPC   H4R22093   7.060   1.790   6.776 -0.4771  1.1805  0.4296
  191SLPC   H4S22094   7.042   1.622   6.812  1.5869  0.9916  0.0083
  191SLPC   C2522095   6.902   1.754   6.931  0.9787  0.2128  0.6195
  191SLPC   H5R22096   6.827   1.677   6.961  0.2941  0.7044  0.1882
  191SLPC   H5S22097   6.850   1.848   6.907  0.7109 -0.1025 -0.0460
  191SLPC   C2622098   6.995   1.769   7.052  0.3405  0.4512 -0.5428
  191SLPC   H6R22099   7.071   1.846   7.029 -0.4616  1.2596 -0.5284
  191SLPC   H6S22100   7.045   1.674   7.081  2.7862  2.4074  2.3104
  191SLPC   C2722101   6.920   1.829   7.172 -0.2451 -0.1355 -0.1784
  191SLPC   H7R22102   6.830   1.771   7.199 -2.1528  3.0458  0.8713
  191SLPC   H7S22103   6.886   1.930   7.140  1.7134  1.6645  2.9324
  191SLPC   C2822104   7.015   1.850   7.289 -0.2318 -0.4013  0.1189
  191SLPC   H8R22105   7.113   1.876   7.244  0.5179 -4.3078 -0.8154
  191SLPC   H8S22106   7.042   1.751   7.332  2.0138  0.5546  1.0595
  191SLPC   C2922107   6.968   1.934   7.403 -0.3175 -0.0784 -0.2672
  191SLPC   H9R22108   6.880   1.997   7.385  0.5900  1.1021 -0.7274
  191SLPC  C21022109   7.044   1.937   7.518  1.0566 -0.0297  0.4366
  191SLPC  H10R22110   7.005   1.996   7.602  3.7314 -1.0766  2.5374
  191SLPC  C21122111   7.175   1.876   7.553  0.4983 -0.0790  0.6966
  191SLPC  H11R22112   7.251   1.949   7.588  0.4576  0.7825 -0.8854
  191SLPC  H11S22113   7.227   1.840   7.461  0.5300  3.3283 -0.7754
  191SLPC  C21222114   7.154   1.771   7.655  0.3003 -0.1901  0.2563
  191SLPC  H12R22115   7.186   1.673   7.616 -4.1550 -1.7179 -0.0724
  191SLPC  C21322116   7.107   1.781   7.780  0.4126  0.4545  0.4757
  191SLPC  H13R22117   7.103   1.690   7.841  2.0185  0.2269  0.2842
  191SLPC  C21422118   7.068   1.902   7.850 -0.1893 -0.0209  0.1759
  191SLPC  H14R22119   7.103   1.994   7.799 -0.3501  0.2431  0.5377
  191SLPC  H14S22120   7.116   1.902   7.950 -0.2323  0.6732  0.1971
  191SLPC  C21522121   6.910   1.908   7.859 -0.3786 -0.3151 -0.0213
  191SLPC  H15R22122   6.869   1.806   7.875 -1.2927 -0.9614 -4.9384
  191SLPC  H15S22123   6.875   1.934   7.757  0.8191 -1.2830 -0.7218
  191SLPC  C21622124   6.859   2.004   7.962  0.1664 -0.4851 -0.0465
  191SLPC  H16R22125   6.751   2.016   7.939  0.0378 -0.5234  0.5153
  191SLPC  H16S22126   6.911   2.102   7.951 -2.0679  0.7233 -0.4113
  191SLPC  C21722127   6.874   1.964   8.111 -0.5345  0.1319  0.8756
  191SLPC  H17R22128   6.963   1.898   8.119  0.4651  1.4170  0.8288
  191SLPC  H17S22129   6.782   1.913   8.145 -0.9703 -0.3990 -0.9527
  191SLPC  C21822130   6.897   2.082   8.213 -0.0916  0.1662 -0.0049
  191SLPC  H18R22131   6.805   2.143   8.229 -1.2223 -1.7990  1.2802
  191SLPC  H18S22132   6.986   2.141   8.181  1.5993 -0.6824  2.8053
  191SLPC  H18T22133   6.931   2.048   8.313  0.6365  0.3088 -0.1968
  191SLPC   C3322134   6.481   1.268   6.521  0.0218  0.1735 -0.4956
  191SLPC   H3X22135   6.483   1.271   6.410 -3.5958 -2.2293 -0.8205
  191SLPC   H3Y22136   6.450   1.164   6.543  0.5091  0.3152  0.9422
  191SLPC   C3422137   6.623   1.286   6.573 -0.7144  0.4457 -0.0668
  191SLPC   H4X22138   6.653   1.392   6.569  0.4196  0.1924  1.0983
  191SLPC   H4Y22139   6.698   1.229   6.513  0.3495  0.4654  1.2055
  191SLPC   C3522140   6.646   1.255   6.724  0.7881 -0.5359 -0.0867
  191SLPC   H5X22141   6.629   1.148   6.751  0.1843 -0.4145  0.0439
  191SLPC   H5Y22142   6.580   1.317   6.788  2.1900  0.4482  0.4553
  191SLPC   C3622143   6.788   1.281   6.755 -1.0163  0.6867  0.4222
  191SLPC   H6X22144   6.806   1.385   6.719  0.4065 -0.1372 -1.3673
  191SLPC   H6Y22145   6.854   1.221   6.689 -1.5737  1.2803 -0.7031
  191SLPC   C3722146   6.826   1.268   6.903 -0.0597  0.1069  0.5787
  191SLPC   H7X22147   6.792   1.170   6.942 -1.1935 -0.1707 -0.9949
  191SLPC   H7Y22148   6.784   1.352   6.964  1.6898  0.7554  0.9354
  191SLPC   C3822149   6.979   1.284   6.930 -0.1875 -0.2281 -0.1521
  191SLPC   H8X22150   7.019   1.360   6.860 -0.7489 -0.0265 -0.2558
  191SLPC   H8Y22151   7.024   1.183   6.927  1.8939  0.6121  0.8240
  191SLPC   C3922152   7.024   1.326   7.073  0.5721  0.1788  0.3531
  191SLPC   H9X22153   6.979   1.427   7.089  0.9869  0.5591 -0.7900
  191SLPC   H9Y22154   7.133   1.344   7.082  0.5795  0.0847  0.4442
  191SLPC  C31022155   6.986   1.231   7.184  0.1941  0.3154 -0.9503
  191SLPC  H10X22156   7.041   1.136   7.171  0.3843  0.3638 -0.5075
  191SLPC  H10Y22157   6.878   1.204   7.190  0.4546 -0.4349  3.2485
  191SLPC  C31122158   7.019   1.287   7.323 -0.0275 -0.4648 -0.5273
  191SLPC  H11X22159   7.126   1.313   7.335 -0.8633  2.5261  1.3279
  191SLPC  H11Y22160   6.991   1.208   7.396 -0.7668  2.2406  2.3374
  191SLPC  C31222161   6.937   1.412   7.368  0.8760 -0.4285  0.3291
  191SLPC  H12X22162   6.835   1.369   7.375  0.2099  0.4669 -2.4801
  191SLPC  H12Y22163   6.930   1.503   7.303 -1.3722 -1.8250 -1.5490
  191SLPC  C31322164   6.968   1.478   7.504 -0.2731 -0.7866 -0.0531
  191SLPC  H13X22165   6.883   1.539   7.542  0.2350 -0.9838  1.4481
  191SLPC  H13Y22166   7.067   1.528   7.500  0.4560 -2.0155  1.5409
  191SLPC  C31422167   6.971   1.368   7.613  0.1074 -0.3209 -0.4398
  191SLPC  H14X22168   7.053   1.297   7.586  0.2515  0.4200 -2.1190
  191SLPC  H14Y22169   6.878   1.307   7.615 -0.8711  1.1091 -0.8750
  191SLPC  C31522170   6.979   1.425   7.758 -0.2386  0.4609  0.1075
  191SLPC  H15X22171   6.908   1.510   7.750 -0.6793 -0.0106 -1.3630
  191SLPC  H15Y22172   7.084   1.461   7.769  0.8887 -2.8139  1.2816
  191SLPC  C31622173   6.947   1.332   7.870  0.1730  0.2057 -0.1526
  191SLPC  H16X22174   6.993   1.232   7.850 -2.4063 -1.1501  0.2901
  191SLPC  H16Y22175   6.839   1.306   7.873  0.2603 -0.3099 -1.0949
  191SLPC  C31722176   6.997   1.364   8.012 -0.4765  1.0695  0.4501
  191SLPC  H17X22177   6.942   1.448   8.059  0.4891  1.9435  0.0779
  191SLPC  H17Y22178   7.100   1.403   7.993 -0.1291 -0.0201  0.0162
  191SLPC  C31822179   7.001   1.246   8.113 -0.2045  0.6983  0.0262
  191SLPC  H18X22180   7.030   1.151   8.064  1.0021  0.8134  0.4813
  191SLPC  H18Y22181   6.906   1.226   8.166 -0.0713  0.3115  0.1230
  191SLPC  H18Z22182   7.076   1.265   8.193  0.0769 -0.6048  0.0858
  192SLPC     N22183   6.848   3.786   6.193 -0.4106 -0.0177 -0.1237
  192SLPC   C1322184   6.895   3.910   6.256  0.3675  0.3066 -0.5705
  192SLPC  H13A22185   7.002   3.913   6.263  0.2700  0.4025  2.7885
  192SLPC  H13B22186   6.854   3.984   6.189 -1.5999  1.5450  1.8072
  192SLPC  H13C22187   6.846   3.935   6.350  0.0182  0.9332 -0.9098
  192SLPC   C1422188   6.918   3.680   6.276 -0.6950  0.3501  0.3079
  192SLPC  H14A22189   7.024   3.693   6.266 -0.8367  0.1814 -1.6557
  192SLPC  H14B22190   6.901   3.676   6.383 -0.4612  1.7380  0.4264
  192SLPC  H14C22191   6.888   3.583   6.240  1.0101  0.3648 -1.2708
  192SLPC   C1522192   6.895   3.784   6.046 -0.5759  0.0018 -0.5467
  192SLPC  H15A22193   6.878   3.683   6.010 -1.0963 -0.1162  0.0046
  192SLPC  H15B22194   6.832   3.852   5.992 -1.2595  0.4597  0.7681
  192SLPC  H15C22195   6.997   3.819   6.037 -1.6771  3.4107 -1.1916
  192SLPC   C1222196   6.699   3.781   6.190  0.9546  0.1404  0.0621
  192SLPC  H12A22197   6.647   3.748   6.278  0.8082 -1.4031 -0.5768
  192SLPC  H12B22198   6.664   3.704   6.123 -1.1227 -0.9208  2.2414
  192SLPC   C1122199   6.625   3.910   6.147  0.6844  0.1032  0.4677
  192SLPC  H11A22200   6.522   3.887   6.111 -0.0311 -0.5306  2.7374
  192SLPC  H11B22201   6.667   3.972   6.065  0.8066 -0.5785  0.0089
  192SLPC     P22202   6.483   3.969   6.351 -0.4442  0.1047 -0.0247
  192SLPC   O1322203   6.370   4.042   6.284 -0.3446  0.2590 -1.0785
  192SLPC   O1422204   6.462   3.828   6.382  0.4371  0.2577 -0.0180
  192SLPC   O1222205   6.619   3.975   6.274  0.4540 -0.5915 -0.3672
  192SLPC   O1122206   6.521   4.036   6.486 -1.4013  0.1788 -0.3161
  192SLPC    C122207   6.651   4.028   6.542  0.2259 -0.9917  0.4986
  192SLPC    HA22208   6.703   3.932   6.521 -0.2154 -0.9217 -1.0692
  192SLPC    HB22209   6.708   4.108   6.488 -2.7108 -0.3683 -1.9540
  192SLPC    C222210   6.649   4.072   6.691 -0.4052  0.3023 -0.2425
  192SLPC    HS22211   6.756   4.050   6.714 -1.0074 -0.0922  2.4579
  192SLPC   O2122212   6.555   4.001   6.780 -0.3316 -0.2032  0.3641
  192SLPC   C2122213   6.604   3.878   6.814 -0.2196  0.5525  0.0996
  192SLPC   O2222214   6.721   3.837   6.798 -0.1152 -0.1915  1.0159
  192SLPC   C2222215   6.500   3.790   6.882  0.5258  0.2511 -0.2868
  192SLPC   H2R22216   6.410   3.786   6.817  2.3020 -1.1484 -2.8198
  192SLPC   H2S22217   6.532   3.684   6.886  1.5481  0.5344 -0.7668
  192SLPC    C322218   6.616   4.225   6.700  0.1754 -0.6141 -0.4033
  192SLPC    HX22219   6.528   4.255   6.640 -0.6264 -1.3478  0.3730
  192SLPC    HY22220   6.701   4.282   6.656  1.6503 -0.3956  2.4596
  192SLPC   O3122221   6.609   4.270   6.837 -0.2714 -0.6137 -0.2821
  192SLPC   C3122222   6.491   4.262   6.901 -0.2253 -0.0656  0.4002
  192SLPC   O3222223   6.390   4.215   6.850  0.1056  0.5474 -0.3348
  192SLPC   C3222224   6.511   4.317   7.041 -0.3090  0.0290  0.2821
  192SLPC   H2X22225   6.479   4.423   7.049 -2.0662 -0.3984 -0.5134
  192SLPC   H2Y22226   6.620   4.310   7.058 -0.6335 -0.0021  2.7344
  192SLPC   C2322227   6.458   3.847   7.023 -0.3226 -1.0798 -0.0063
  192SLPC   H3R22228   6.351   3.832   7.050 -0.5698  3.3618  2.5155
  192SLPC   H3S22229   6.473   3.957   7.021 -2.9361 -0.6635  0.1477
  192SLPC   C2422230   6.539   3.780   7.130  0.2607  0.6466  0.0958
  192SLPC   H4R22231   6.643   3.783   7.091 -1.0281  0.1584 -3.8201
  192SLPC   H4S22232   6.510   3.675   7.148 -0.7373  1.0573  0.9692
  192SLPC   C2522233   6.523   3.854   7.261 -0.0764  0.1041 -0.4288
  192SLPC   H5R22234   6.420   3.843   7.301 -0.5426  0.3418 -1.5185
  192SLPC   H5S22235   6.551   3.958   7.237 -0.1507 -0.5094 -3.6103
  192SLPC   C2622236   6.625   3.807   7.371 -0.1523  0.6588 -0.9609
  192SLPC   H6R22237   6.731   3.825   7.343 -0.0595  2.2045  0.2572
  192SLPC   H6S22238   6.611   3.699   7.390 -0.1763  1.1140  2.1450
  192SLPC   C2722239   6.594   3.883   7.496 -0.3369 -0.2505  0.1817
  192SLPC   H7R22240   6.492   3.875   7.540 -0.4393 -0.5515 -0.1074
  192SLPC   H7S22241   6.605   3.990   7.470 -1.0508 -0.8713 -3.0830
  192SLPC   C2822242   6.694   3.846   7.605 -0.5285 -0.3794  0.5743
  192SLPC   H8R22243   6.678   3.911   7.693  1.1838 -1.3412  1.6622
  192SLPC   H8S22244   6.794   3.871   7.562  0.2911 -0.8974  2.0905
  192SLPC   C2922245   6.678   3.704   7.652 -0.0377 -0.3134  0.2660
  192SLPC   H9R22246   6.709   3.624   7.584  0.2706  0.5482 -0.6307
  192SLPC  C21022247   6.639   3.660   7.772  0.5670  0.2188 -0.4706
  192SLPC  H10R22248   6.627   3.551   7.779 -0.9122  0.2626 -1.7241
  192SLPC  C21122249   6.599   3.739   7.892  0.2393 -0.3784 -0.4070
  192SLPC  H11R22250   6.490   3.735   7.915 -0.1039  0.3629 -1.7822
  192SLPC  H11S22251   6.609   3.848   7.874  0.0360 -0.3456 -0.3262
  192SLPC  C21222252   6.689   3.687   8.004 -0.5221 -0.5220 -0.8317
  192SLPC  H12R22253   6.790   3.729   8.008 -0.5117 -0.5667  1.8576
  192SLPC  C21322254   6.649   3.615   8.111 -0.0955 -0.6550  0.0091
  192SLPC  H13R22255   6.721   3.584   8.189  0.5109  1.8008  0.5114
  192SLPC  C21422256   6.508   3.572   8.137  0.2702 -0.2461  0.4338
  192SLPC  H14R22257   6.487   3.470   8.099  1.0103 -1.2398  2.5405
  192SLPC  H14S22258   6.432   3.636   8.086  0.4977  0.7142  1.2600
  192SLPC  C21522259   6.461   3.547   8.283  0.4181  0.1886  0.0488
  192SLPC  H15R22260   6.486   3.624   8.359 -0.7068 -0.4985  1.1660
  192SLPC  H15S22261   6.516   3.462   8.328 -0.6050 -0.5842 -0.1016
  192SLPC  C21622262   6.317   3.516   8.303  0.5544  0.2628 -0.6230
  192SLPC  H16R22263   6.248   3.586   8.251 -1.3314 -1.2624 -0.2984
  192SLPC  H16S22264   6.293   3.522   8.411 -1.0037 -1.4049 -0.8300
  192SLPC  C21722265   6.268   3.383   8.238  0.0293  0.0883 -0.3829
  192SLPC  H17R22266   6.300   3.386   8.131 -1.0046  1.0618 -0.6927
  192SLPC  H17S22267   6.335   3.303   8.275  1.4429  1.0161 -0.8389
  192SLPC  C21822268   6.122   3.340   8.244  0.0972 -0.1115  0.1450
  192SLPC  H18R22269   6.093   3.309   8.347 -3.3759  3.7131  0.5690
  192SLPC  H18S22270   6.088   3.257   8.178  1.0208 -1.2276  1.0197
  192SLPC  H18T22271   6.055   3.425   8.220  0.2631  0.5331  1.7919
  192SLPC   C3322272   6.436   4.236   7.150  0.1488  0.4854  0.0661
  192SLPC   H3X22273   6.416   4.131   7.120 -0.6667  0.6542  0.0032
  192SLPC   H3Y22274   6.335   4.279   7.166 -0.1639  0.7008 -2.1437
  192SLPC   C3422275   6.513   4.235   7.278  0.0997  0.2117  0.0265
  192SLPC   H4X22276   6.615   4.196   7.261 -0.3984 -1.5784  0.8613
  192SLPC   H4Y22277   6.465   4.171   7.355 -0.8460  1.6616  0.6925
  192SLPC   C3522278   6.528   4.367   7.343 -0.6206  0.1410 -0.4423
  192SLPC   H5X22279   6.435   4.410   7.385  0.0715  1.2996 -0.0520
  192SLPC   H5Y22280   6.571   4.447   7.279  2.3995 -2.6820 -2.2451
  192SLPC   C3622281   6.635   4.359   7.462  0.9547  0.1352 -0.8904
  192SLPC   H6X22282   6.659   4.464   7.487 -0.9022  0.3784  0.0234
  192SLPC   H6Y22283   6.731   4.314   7.430  2.3371  1.0379  1.7669
  192SLPC   C3722284   6.581   4.287   7.589 -0.4335 -0.1165 -0.1306
  192SLPC   H7X22285   6.550   4.183   7.565  2.3527 -0.9041 -0.6439
  192SLPC   H7Y22286   6.501   4.350   7.635 -0.0878  0.9445 -0.9229
  192SLPC   C3822287   6.685   4.277   7.702 -0.0835  0.3714  0.3193
  192SLPC   H8X22288   6.726   4.370   7.745  2.8898 -1.9192  2.8559
  192SLPC   H8Y22289   6.765   4.214   7.657 -1.0620 -1.1012  0.5515
  192SLPC   C3922290   6.628   4.199   7.825 -0.0867 -0.5055  0.1916
  192SLPC   H9X22291   6.610   4.092   7.801 -0.4919 -0.7896  1.6496
  192SLPC   H9Y22292   6.538   4.241   7.875 -0.5270 -1.9985  0.7220
  192SLPC  C31022293   6.725   4.220   7.943 -0.2002  0.7486 -0.6218
  192SLPC  H10X22294   6.676   4.179   8.034  2.1357  0.0823  0.4385
  192SLPC  H10Y22295   6.749   4.327   7.960  0.2570  0.5520  0.0699
  192SLPC  C31122296   6.851   4.127   7.933  0.1514 -0.3655  0.1362
  192SLPC  H11X22297   6.929   4.188   7.884 -0.3525  0.6285  0.5392
  192SLPC  H11Y22298   6.825   4.043   7.865  1.1808  0.3316 -1.1391
  192SLPC  C31222299   6.901   4.058   8.060  0.0119 -0.0947  0.1767
  192SLPC  H12X22300   6.977   3.984   8.030  0.8218  1.3475 -1.5349
  192SLPC  H12Y22301   6.806   4.016   8.100 -0.2883 -0.2776 -0.6993
  192SLPC  C31322302   6.965   4.166   8.154  0.0885  0.2748  0.7909
  192SLPC  H13X22303   6.883   4.237   8.179 -0.7465  0.7074 -2.6919
  192SLPC  H13Y22304   7.039   4.226   8.097  1.9325 -1.9289  0.6910
  192SLPC  C31422305   7.034   4.101   8.273 -0.3213  0.3196 -0.4275
  192SLPC  H14X22306   7.093   4.015   8.236  1.4066  2.0080 -1.7835
  192SLPC  H14Y22307   6.960   4.056   8.342  0.0946  0.4711  0.1260
  192SLPC  C31522308   7.116   4.193   8.365  0.0103 -0.7885  0.7688
  192SLPC  H15X22309   7.162   4.127   8.442 -2.3538 -3.5330  0.0220
  192SLPC  H15Y22310   7.043   4.263   8.410  0.1541  1.9381 -2.8397
  192SLPC  C31622311   7.222   4.293   8.306  0.5262 -0.3600 -0.0414
  192SLPC  H16X22312   7.178   4.350   8.220  0.2539 -0.2655  0.1580
  192SLPC  H16Y22313   7.305   4.229   8.270  2.8727  0.6397  3.1558
  192SLPC  C31722314   7.262   4.403   8.405  0.2196 -0.3965 -0.3263
  192SLPC  H17X22315   7.169   4.446   8.447  1.7502  0.6435  2.2046
  192SLPC  H17Y22316   7.324   4.477   8.348  1.0152 -0.0660  0.9367
  192SLPC  C31822317   7.346   4.354   8.523  0.2009 -0.0738  0.5647
  192SLPC  H18X22318   7.402   4.438   8.571  0.6489 -0.5453  0.8821
  192SLPC  H18Y22319   7.436   4.303   8.483  0.6483  1.7705 -0.9537
  192SLPC  H18Z22320   7.297   4.292   8.601 -1.1339 -0.0749 -0.2531
  193SOD    SOD22321   4.585   4.074   2.423  0.0088  0.2527  0.5269
  194SOD    SOD22322   6.016   2.238   3.567  0.0439 -0.3178  0.2115
  195SOD    SOD22323   4.046   3.424  11.782  0.3571 -0.5404  0.4851
  196SOD    SOD22324   5.584   3.608   5.224  0.1007  0.0576 -0.4422
  197SOD    SOD22325   5.833   0.241  12.632 -0.6853  0.2952  0.0089
  198SOD    SOD22326   5.513   6.593  16.441 -0.0047  0.3890  0.1788
  199SOD    SOD22327   0.706   0.775   3.995 -0.3824 -0.2193  0.1068
  200SOD    SOD22328   3.600   3.742   5.652 -0.1522  0.1095  0.0401
  201SOD    SOD22329   1.471   5.705  11.656 -0.1406 -0.1190 -0.0965
  202SOD    SOD22330   0.498   3.163  12.598 -0.6113  0.0559  0.2506
  203SOD    SOD22331   4.606   2.063  10.580 -0.0424 -0.3977 -0.5712
  204SOD    SOD22332   2.462   5.551   3.584  0.0660  0.2535  0.1954
  205SOD    SOD22333   2.110   6.596  12.354 -0.0496 -0.0077  0.6442
  206SOD    SOD22334   6.646   5.104   6.460  0.4730 -0.1754  0.3065
  207SOD    SOD22335   3.553   1.471   5.023 -0.3623 -0.7285  0.3312
  208SOD    SOD22336   4.818   6.595  15.752  0.4279  0.3031 -0.2213
  209SOD    SOD22337   2.135   0.933   6.258 -0.0246  0.5397 -0.2076
  210SOD    SOD22338   1.955   6.625  14.797  0.5501  0.3870 -0.6702
  211SOD    SOD22339   0.093   6.403  13.290 -0.3634  0.2115  0.4309
  212SOD    SOD22340   5.346   6.456  14.335 -0.0734 -0.4201  0.4729
  213SOD    SOD22341   0.018   2.823   2.025 -0.0421 -0.2803 -0.0480
  214SOD    SOD22342   5.285   0.603   5.586 -0.4154  0.2393 -0.2212
  215SOD    SOD22343   5.054   1.011  13.751  0.1502  0.2929 -0.0216
  216SOD    SOD22344   3.912   4.870  11.028 -0.0276  0.4711  0.1503
  217SOD    SOD22345   2.426   0.907  15.722 -0.1817  0.0946 -0.5229
  218SOD    SOD22346   6.691   6.799  16.672  0.1706  0.3855 -0.3191
  219SOD    SOD22347   5.850   4.599  15.252 -0.0891 -0.2086 -0.0230
  220SOD    SOD22348   1.260   6.322   1.334  0.2621 -0.7059 -0.4569
  221SOD    SOD22349   6.049   3.102   6.002  0.7822 -0.5661  0.3743
  222SOD    SOD22350   3.444   2.287  10.665  0.2304 -0.3717  0.0732
  223SOD    SOD22351   1.204   5.871   3.581 -0.5787  0.1012 -0.0451
  224SOD    SOD22352   1.911   0.099   3.325 -0.2705 -0.2226  0.1874
  225SOD    SOD22353   1.990   2.938   4.372  0.3406  0.1277 -0.0334
  226SOD    SOD22354   4.074   4.972  12.068  0.1832  0.3139 -0.0897
  227SOD    SOD22355   3.093   4.720   1.494 -0.2582 -0.0046  0.0260
  228SOD    SOD22356   4.379   4.630   2.822  0.3202  0.4419  0.2297
  229SOD    SOD22357   3.814   6.440  16.236 -0.5657 -0.2534  0.2228
  230SOD    SOD22358   0.818   6.469  15.618 -0.5218  0.1939  0.0551
  231SOD    SOD22359   1.307   2.356  11.567  0.3704 -0.0759  0.2435
  232SOD    SOD22360   3.017   5.348   0.194  0.3476  0.2497  0.0147
  233SOD    SOD22361   0.748   3.682   2.579  0.3622  0.4306  0.0185
  234SOD    SOD22362   0.214   4.328   5.245  0.4767  0.0849  0.1503
  235SOD    SOD22363   0.717   1.473  15.238  0.2327 -0.1450  0.0909
  236SOD    SOD22364   4.272   0.536  10.537 -0.3628  0.1572 -0.3207
  237SOD    SOD22365   2.861   0.284   2.790  0.6002 -0.5340  0.5234
  238SOD    SOD22366   1.258   4.748   0.668  0.5924  0.0303 -0.3885
  239SOD    SOD22367   4.285   6.543   0.393 -0.5818 -0.4268  0.2033
  240SOD    SOD22368   3.893   4.093  16.776  0.0833 -0.3872  0.1064
  241SOD    SOD22369   5.268   5.571  12.926  0.5536 -0.1515  0.0197
  242SOD    SOD22370   4.429   0.942  12.013 -0.2458 -0.2932 -0.0352
  243SOD    SOD22371   5.993   4.498  11.235 -0.2997 -0.1071  0.0011
  244SOD    SOD22372   2.639   5.674  11.716  0.4276  0.4156 -0.3716
  245SOD    SOD22373   4.207   4.681  12.542  0.3500  0.0995  0.0391
  246SOD    SOD22374   5.218   3.186   1.040  0.2504  0.1016 -0.2607
  247SOD    SOD22375   6.059   2.702   3.104 -0.0622  0.3943  0.2708
  248SOD    SOD22376   6.105   4.587   4.554  0.4385  0.1259  0.0317
  249SOD    SOD22377   2.657   1.886   0.901  0.3270  0.1322  0.2296
  250SOD    SOD22378   5.676   1.852  12.223 -0.2307 -0.3377  0.3696
  251SOD    SOD22379   1.049   5.085  15.305 -0.1508  0.0476  0.2206
  252SOD    SOD22380   5.980   6.167  11.757  0.0968  0.2984 -0.2317
  253SOD    SOD22381   3.333   2.402   5.190  0.2215 -0.0853  0.3264
  254SOD    SOD22382   5.639   6.379  11.247  0.0532 -0.1903  0.2397
  255SOD    SOD22383   0.348   1.737   3.183 -0.1659 -0.0290  0.0435
  256SOD    SOD22384   6.062   0.244   3.514 -0.4334 -0.3881  0.3738
  257SOD    SOD22385   1.101   1.964  16.128 -0.1362  0.3928  0.4224
  258SOD    SOD22386   4.789   2.415  16.954 -0.7830 -0.3523  0.5621
  259SOD    SOD22387   3.445   3.535   2.370  0.4166 -0.0324 -0.2305
  260SOD    SOD22388   1.938   1.954   3.638 -0.4185 -0.4403  0.1194
  261SOD    SOD22389   1.163   0.358   5.390  0.4695 -0.1246 -0.1526
  262SOD    SOD22390   2.589   0.382   5.156 -0.2100  0.2146 -0.3831
  263SOD    SOD22391   4.955   2.143  14.431  0.5678 -0.2894 -0.1859
  264SOD    SOD22392   2.617   4.368   6.286 -0.3869 -0.3828 -0.0873
  265SOD    SOD22393   5.913   3.071  10.313  0.1137 -0.1985  0.3342
  266CLA    CLA22394   6.664   4.622  11.791 -0.1642 -0.0978 -0.1699
  267CLA    CLA22395   6.315   1.493  12.318 -0.2429  0.4988  0.4185
  268CLA    CLA22396   4.255   2.486   2.531 -0.2003  0.1651  0.1752
  269CLA    CLA22397   0.309   3.689   2.707  0.1740 -0.0059 -0.0415
  270CLA    CLA22398   0.939   6.595   1.674 -0.0422  0.1171 -0.4285
  271CLA    CLA22399   3.593   1.591   1.337  0.2449 -0.2158 -0.2091
  272CLA    CLA22400   0.908   4.364   1.222  0.0387 -0.2386 -0.0071
  273CLA    CLA22401   1.737   6.572   5.362  0.0889  0.0803  0.3644
  274CLA    CLA22402   2.297   3.129   3.407  0.5741 -0.0948  0.2841
  275CLA    CLA22403   6.772   2.348   3.925 -0.1457  0.1000  0.0321
  276CLA    CLA22404   6.629   5.366  13.811 -0.3287 -0.2674 -0.1496
  277CLA    CLA22405   2.531   1.011   3.510  0.2324  0.0908  0.7873
  278CLA    CLA22406   3.018   4.475   1.445 -0.3896  0.4296 -0.1238
  279CLA    CLA22407   5.683   0.063  13.741 -0.1231  0.1182 -0.0990
  280CLA    CLA22408   4.089   0.620   4.284 -0.5296  0.0118 -0.2600
  281CLA    CLA22409   4.268   2.862   4.806 -0.4152  0.2947  0.1091
  282CLA    CLA22410   2.717   1.306  12.118 -0.2545  0.0690 -0.0747
  283CLA    CLA22411   5.725   5.517   3.998  0.2481  0.5051  0.3347
  284CLA    CLA22412   5.387   3.667  15.052  0.2359  0.1851 -0.2372
  285CLA    CLA22413   0.551   4.491   0.059  0.3354  0.3108  0.0377
  286CLA    CLA22414   1.423   6.007  16.840 -0.0020 -0.0946 -0.0598
  287CLA    CLA22415   1.809   2.662   4.727 -0.4150 -0.3988 -0.4894
  288CLA    CLA22416   2.731   0.141   3.907  0.1527  0.1640 -0.1314
  289CLA    CLA22417   0.010   3.219  13.927 -0.2977 -0.3637  0.1205
  290CLA    CLA22418   2.859   5.496   3.475 -0.0557  0.2661 -0.1170
  291CLA    CLA22419   5.651   2.472   2.393 -0.3189  0.3826  0.4485
  292CLA    CLA22420   1.400   0.184  11.558 -0.0107  0.1078 -0.0129
  293CLA    CLA22421   0.521   6.785  17.095 -0.1038 -0.1841 -0.2522
  294CLA    CLA22422   3.287   4.789  14.647  0.2251 -0.0243  0.1289
  295CLA    CLA22423   6.718   6.464  17.091 -0.3221 -0.4771  0.1725
  296CLA    CLA22424   1.814   1.054  16.839 -0.6464 -0.2854 -0.0964
  297CLA    CLA22425   5.388   3.106   1.464 -0.5421  0.0123 -0.0262
  298CLA    CLA22426   3.780   3.858  16.719  0.1956  0.5100 -0.1691
  299CLA    CLA22427   3.728   0.338  15.031 -0.0106 -0.0138 -0.2320
  300CLA    CLA22428   4.421   0.737  14.692 -0.0164  0.1673  0.0082
  301CLA    CLA22429   2.201   1.503   2.939  0.1140 -0.0206 -0.2892
  302CLA    CLA22430   3.748   6.176   1.190 -0.1955 -0.6023  0.0195
  303CLA    CLA22431   4.093   6.057  15.738  0.2556  0.4917  0.0223
  304CLA    CLA22432   5.013   3.858  14.038 -0.5438 -0.1873  0.2618
  305CLA    CLA22433   2.069   6.131  14.859  0.0461  0.1477 -0.6064
  306CLA    CLA22434   6.612   2.575   0.705 -0.2005  0.1086  0.1173
  307CLA    CLA22435   2.444   6.542  13.758 -0.2515  0.1143  0.2310
  308CLA    CLA22436   0.149   1.539  11.601  0.0547  0.2239  0.1590
  309CLA    CLA22437   0.527   0.632   0.308 -0.0129  0.0563 -0.2894
  310CLA    CLA22438   5.283   2.048  12.352  0.0072  0.1185 -0.4057
  311CLA    CLA22439   5.368   3.078  12.734  0.2554 -0.2269 -0.2351
  312CLA    CLA22440   5.200   1.982  16.184 -0.0143 -0.0262  0.4066
  313CLA    CLA22441   0.515   1.242  14.297  0.3622  0.3819 -0.2312
  314CLA    CLA22442   2.668   4.596  12.340  0.5313 -0.6531  0.0996
  315CLA    CLA22443   2.838   6.079  11.741 -0.1638 -0.1863 -0.5975
  316CLA    CLA22444   2.978   0.659   0.326 -0.0313 -0.2144  0.3153
  317CLA    CLA22445   2.311   6.347   3.361  0.1013  0.2936  0.0546
  318CLA    CLA22446   0.554   4.744  16.427  0.3713 -0.4441  0.1122
  319TIP3   OH222447   2.221   1.586   2.590  0.1261  0.8333 -0.0859
  319TIP3    H122448   2.195   1.616   2.677  0.1080 -1.1343  0.6573
  319TIP3    H222449   2.174   1.503   2.579  2.0172 -0.1862 -0.9033
  320TIP3   OH222450   0.718   2.711  13.630  0.2495  0.7818 -0.3910
  320TIP3    H122451   0.777   2.636  13.635  1.4436  1.6104 -1.5335
  320TIP3    H222452   0.631   2.672  13.621  0.6008 -0.4530  1.2584
  321TIP3   OH222453   0.344   5.153   2.803  0.3815 -0.5096 -0.1677
  321TIP3    H122454   0.266   5.181   2.756 -0.1210 -0.5708  0.6083
  321TIP3    H222455   0.352   5.059   2.783 -0.1835 -0.6757  0.3413
  322TIP3   OH222456   5.896   5.193   4.774 -0.1263  0.3522 -0.0457
  322TIP3    H122457   5.834   5.247   4.725 -1.1325  0.5434  1.3907
  322TIP3    H222458   5.899   5.233   4.861 -0.7331 -1.7427  1.0024
  323TIP3   OH222459   0.208   5.134  16.123 -0.5403  0.3109 -0.2217
  323TIP3    H122460   0.275   5.088  16.174 -0.4895 -0.7547 -1.2168
  323TIP3    H222461   0.187   5.075  16.051 -0.2236  1.9677 -1.7596
  324TIP3   OH222462   2.285   1.755   1.057  0.5089  0.1918  0.3000
  324TIP3    H122463   2.258   1.675   1.103  1.2721 -0.0365  0.3755
  324TIP3    H222464   2.228   1.760   0.981  0.4975 -0.4707  0.2580
  325TIP3   OH222465   5.655   4.587  14.554  0.1091  0.2345  0.8053
  325TIP3    H122466   5.630   4.607  14.463  1.0056  1.3055  0.7747
  325TIP3    H222467   5.691   4.499  14.550 -0.0827  0.1749  0.1660
  326TIP3   OH222468   2.013   5.976  12.075 -0.2745  0.0459 -0.4952
  326TIP3    H122469   2.048   5.904  12.023  1.7652  0.8026 -0.2650
  326TIP3    H222470   1.942   6.012  12.022  0.5783 -0.3118 -1.9181
  327TIP3   OH222471   6.820   4.000   4.830 -0.2571  0.2452  0.6169
  327TIP3    H122472   6.784   4.020   4.916 -0.2023 -0.7334  0.8735
  327TIP3    H222473   6.892   3.940   4.846  1.0992  1.6386  0.0473
  328TIP3   OH222474   5.905   6.514  12.095 -0.2181  0.7345  0.1842
  328TIP3    H122475   5.980   6.477  12.142  0.7344 -0.3623 -2.0221
  328TIP3    H222476   5.830   6.497  12.151  0.6543 -1.7782  0.6900
  329TIP3   OH222477   6.610   4.420   2.662  0.0129  0.3589 -0.7321
  329TIP3    H122478   6.564   4.422   2.579 -1.5524  0.6687  0.1112
  329TIP3    H222479   6.682   4.358   2.648 -1.4283 -1.1788 -1.7168
  330TIP3   OH222480   0.540   4.647  15.716  0.0694  0.4684 -0.1507
  330TIP3    H122481   0.446   4.630  15.709 -0.1293  1.4627 -0.0031
  330TIP3    H222482   0.581   4.582  15.658 -0.7678  0.6867 -1.0018
  331TIP3   OH222483   3.414   5.009  13.505  0.8228 -0.8270 -0.1655
  331TIP3    H122484   3.425   4.933  13.562 -1.2997 -0.3387  0.9995
  331TIP3    H222485   3.496   5.057  13.512  0.7982 -1.0507  2.1353
  332TIP3   OH222486   1.308   3.913   1.936  0.1654  0.1981 -0.1930
  332TIP3    H122487   1.268   3.839   1.889 -0.2593  0.2373  0.1033
  332TIP3    H222488   1.371   3.950   1.873 -1.8525  1.5443 -1.5657
  333TIP3   OH222489   1.190   3.283  14.368 -0.0472 -0.5272 -0.0532
  333TIP3    H122490   1.267   3.273  14.313  0.9110 -0.5009  1.2477
  333TIP3    H222491   1.123   3.318  14.309  0.8985 -0.6268 -1.2234
  334TIP3   OH222492   0.387   2.372   2.851  0.1725 -0.2654  0.2083
  334TIP3    H122493   0.457   2.437   2.841 -1.9324  2.4094  1.5531
  334TIP3    H222494   0.347   2.366   2.764 -0.2948  1.1568  0.3022
  335TIP3   OH222495   3.402   2.613  11.739  0.4562  0.1246  0.1080
  335TIP3    H122496   3.358   2.531  11.761  0.1348  0.5413  1.0732
  335TIP3    H222497   3.429   2.649  11.823  0.4107  1.1100 -0.2847
  336TIP3   OH222498   0.768   0.982   3.558 -0.0611  0.2080 -0.2220
  336TIP3    H122499   0.808   1.060   3.520 -0.7978  0.2971 -0.8278
  336TIP3    H222500   0.675   1.002   3.562 -0.1480 -0.2899  0.4813
  337TIP3   OH222501   0.265   1.757   6.448  0.0914  0.0458  0.6763
  337TIP3    H122502   0.286   1.848   6.469  0.3396 -0.0401  0.8008
  337TIP3    H222503   0.252   1.757   6.353  0.3155  0.1662  0.6450
  338TIP3   OH222504   5.628   3.242  11.980  0.2240 -0.1743 -0.2200
  338TIP3    H122505   5.619   3.238  12.075  1.8391 -0.2137 -0.0514
  338TIP3    H222506   5.649   3.334  11.962  1.0210 -0.3889 -0.4219
  339TIP3   OH222507   4.655   6.761  14.519  0.0502 -0.2382 -0.6214
  339TIP3    H122508   4.577   6.813  14.498 -0.2467 -1.4542 -2.8792
  339TIP3    H222509   4.648   6.684  14.463  1.1774 -2.0750  1.5901
  340TIP3   OH222510   3.333   6.025  12.791 -0.6321  0.6653  0.9306
  340TIP3    H122511   3.370   6.045  12.705 -0.8180 -1.0512  0.4133
  340TIP3    H222512   3.372   6.090  12.850  0.5858  0.9897 -0.1958
  341TIP3   OH222513   5.518   0.111   3.716 -0.6006  0.1133 -0.5905
  341TIP3    H122514   5.425   0.129   3.732 -0.9808 -2.4187  0.4007
  341TIP3    H222515   5.543   0.048   3.784  1.6109  0.0321 -1.3988
  342TIP3   OH222516   4.010   3.720   3.089  0.3264  0.5214 -0.5411
  342TIP3    H122517   3.931   3.754   3.130  0.4671 -0.1931  0.3707
  342TIP3    H222518   3.996   3.626   3.083  1.5582  0.2099  0.7444
  343TIP3   OH222519   1.383   2.857  13.721  0.4508  0.0790  0.1815
  343TIP3    H122520   1.292   2.849  13.749  0.1595  0.9553 -0.4564
  343TIP3    H222521   1.379   2.853  13.625  1.2240 -1.0639  0.1617
  344TIP3   OH222522   6.091   0.785   1.927 -0.1066 -0.7145  0.2112
  344TIP3    H122523   6.146   0.753   1.856 -2.0509 -0.2750 -1.6126
  344TIP3    H222524   6.056   0.706   1.968 -0.5502 -0.9998 -0.6766
  345TIP3   OH222525   6.297   4.412  13.867  0.2961  0.4856 -0.0014
  345TIP3    H122526   6.342   4.349  13.922  0.1799 -0.1361 -0.6123
  345TIP3    H222527   6.355   4.425  13.792 -1.1563 -1.5283 -1.6117
  346TIP3   OH222528   2.367   0.583  11.348  0.0566 -0.0873  0.4814
  346TIP3    H122529   2.323   0.580  11.263  0.7499  0.8803  0.0677
  346TIP3    H222530   2.440   0.521  11.339  0.8122  0.8580 -0.0459
  347TIP3   OH222531   2.403   3.135  10.946  0.2690 -0.4996  0.0691
  347TIP3    H122532   2.353   3.114  11.024 -0.6136  1.3016  0.0439
  347TIP3    H222533   2.451   3.215  10.969  0.4753 -0.2908 -1.0203
  348TIP3   OH222534   3.446   3.945  15.505  0.0295 -0.2850 -0.5644
  348TIP3    H122535   3.451   3.960  15.411  1.7725 -2.8377 -0.9502
  348TIP3    H222536   3.422   3.853  15.514 -1.0892  0.1519  1.5265
  349TIP3   OH222537   0.433   4.155  11.492 -0.1561  0.1586 -0.4421
  349TIP3    H122538   0.355   4.114  11.455  1.4276 -1.5517 -2.1246
  349TIP3    H222539   0.457   4.100  11.566 -0.3776  0.5388 -0.0803
  350TIP3   OH222540   4.455   1.898   4.832  0.2450  0.0417 -0.4753
  350TIP3    H122541   4.541   1.938   4.847  0.7275 -0.7212 -1.1202
  350TIP3    H222542   4.420   1.884   4.920  0.0579  1.8479 -0.2144
  351TIP3   OH222543   0.525   3.202   4.064 -0.4182  0.5272  0.0460
  351TIP3    H122544   0.477   3.206   4.147 -1.3898 -0.5511 -0.4344
  351TIP3    H222545   0.459   3.220   3.997  0.0142 -0.1967 -0.5900
  352TIP3   OH222546   1.683   3.687  13.784 -0.6695  0.2711  0.6509
  352TIP3    H122547   1.593   3.716  13.798 -1.6455 -0.7712 -2.4914
  352TIP3    H222548   1.725   3.760  13.737  0.2552  0.8452  2.2998
  353TIP3   OH222549   0.686   5.280  14.190  0.3103  0.3750 -0.5018
  353TIP3    H122550   0.721   5.271  14.279 -0.0899  0.2168 -0.3544
  353TIP3    H222551   0.631   5.202  14.179  0.3090  0.4270 -0.8666
  354TIP3   OH222552   1.716   0.529  14.319  0.0293 -0.1438 -0.1677
  354TIP3    H122553   1.717   0.576  14.403  5.8072  0.2935 -0.1276
  354TIP3    H222554   1.773   0.580  14.262  2.3019 -4.1928 -1.8947
  355TIP3   OH222555   2.501   5.925  15.780  0.9746  0.3659 -0.8085
  355TIP3    H122556   2.536   5.964  15.700  3.3165  0.2178  0.0568
  355TIP3    H222557   2.493   5.999  15.841  3.7340 -0.0947  0.2642
  356TIP3   OH222558   1.302   1.777  14.294  0.3472  0.4890  0.2041
  356TIP3    H122559   1.375   1.809  14.348 -1.0831  1.1976  1.7956
  356TIP3    H222560   1.313   1.682  14.296  2.1204  0.6242 -0.9228
  357TIP3   OH222561   2.951   4.266  16.761 -0.3326 -0.5310 -0.2291
  357TIP3    H122562   2.865   4.278  16.719 -0.2906  2.8190  0.3342
  357TIP3    H222563   2.945   4.318  16.841  1.5154 -2.0994  0.9870
  358TIP3   OH222564   0.964   2.901   4.464 -0.0755 -0.4514  0.2718
  358TIP3    H122565   0.984   2.847   4.388 -0.0774  0.7798 -0.6356
  358TIP3    H222566   1.015   2.863   4.535 -0.2240 -1.7374 -0.2879
  359TIP3   OH222567   1.489   6.241   4.537  0.0621 -0.5393 -0.1153
  359TIP3    H122568   1.524   6.222   4.450 -2.7094  3.1078 -2.3039
  359TIP3    H222569   1.411   6.186   4.543  0.3623 -0.9377  0.1856
  360TIP3   OH222570   3.051   2.890   2.987  0.7548  0.5874  0.3200
  360TIP3    H122571   3.116   2.960   2.992  2.3009 -0.7783  0.5096
  360TIP3    H222572   3.012   2.887   3.074  0.4821  1.3682  0.2335
  361TIP3   OH222573   6.559   4.433  16.437 -0.2481 -0.1779 -0.4184
  361TIP3    H122574   6.510   4.510  16.465 -1.1855 -0.2295 -1.7988
  361TIP3    H222575   6.550   4.371  16.509 -1.4028  0.1868 -0.2356
  362TIP3   OH222576   1.824   1.428   1.640 -0.4759 -0.2142  0.1350
  362TIP3    H122577   1.838   1.415   1.734  0.2184  1.2836  0.2701
  362TIP3    H222578   1.796   1.520   1.633  2.0561  0.5218 -1.3280
  363TIP3   OH222579   3.996   1.832   4.549 -0.5141  0.6846 -0.1283
  363TIP3    H122580   4.014   1.866   4.636 -1.1631 -0.1040  0.3383
  363TIP3    H222581   4.082   1.823   4.508 -0.0160 -0.6103  1.0956
  364TIP3   OH222582   1.136   3.276  14.905 -0.4784  0.2524  0.2909
  364TIP3    H122583   1.103   3.336  14.972 -2.5193 -0.6253  0.1741
  364TIP3    H222584   1.088   3.300  14.826 -1.7121 -1.7719  0.3591
  365TIP3   OH222585   0.433   6.667   3.738  0.5737  0.4959 -0.7302
  365TIP3    H122586   0.366   6.736   3.736 -1.0901 -0.9773  1.1123
  365TIP3    H222587   0.384   6.586   3.726  1.7534 -0.7565  2.1760
  366TIP3   OH222588   6.772   6.292  16.519  0.4685  0.0819  0.5027
  366TIP3    H122589   6.717   6.339  16.456 -1.1101 -2.2052  0.0334
  366TIP3    H222590   6.839   6.250  16.465 -0.4722 -1.3098  0.3473
  367TIP3   OH222591   2.704   4.451   2.514 -0.0167  0.7932  0.2284
  367TIP3    H122592   2.692   4.526   2.571  1.3688  0.1863  1.3574
  367TIP3    H222593   2.751   4.387   2.567 -1.1835 -0.9111 -0.6791
  368TIP3   OH222594   5.782   5.905  16.638 -0.2905 -0.2155  0.5442
  368TIP3    H122595   5.799   6.000  16.637  0.8412 -0.3699  2.3918
  368TIP3    H222596   5.834   5.871  16.565 -1.2982  0.6468 -0.6174
  369TIP3   OH222597   5.031   4.747  11.145 -0.1690 -0.1229 -0.0109
  369TIP3    H122598   5.014   4.840  11.160  2.5320  0.3396  0.7122
  369TIP3    H222599   5.057   4.742  11.053 -0.0368 -0.1184  0.0261
  370TIP3   OH222600   3.039   4.735  13.265  0.0151  0.2402  0.0774
  370TIP3    H122601   3.109   4.670  13.256  0.5531  0.3570  2.6094
  370TIP3    H222602   2.961   4.685  13.285 -0.1307  0.2366 -0.4967
  371TIP3   OH222603   6.236   0.332   1.212  0.7571  0.0228  0.1709
  371TIP3    H122604   6.275   0.247   1.235 -0.2021 -0.0979  1.4864
  371TIP3    H222605   6.311   0.390   1.200  1.4405 -1.0070 -0.8209
  372TIP3   OH222606   1.627   6.784   5.066 -0.5794 -0.0072 -0.1933
  372TIP3    H122607   1.616   6.689   5.078 -0.5214  0.0001 -0.0743
  372TIP3    H222608   1.666   6.813   5.149 -0.4703  0.0989 -0.2823
  373TIP3   OH222609   1.300   3.772   3.845  0.2208 -0.4573 -0.3216
  373TIP3    H122610   1.296   3.781   3.940  0.1915 -1.1566 -0.2525
  373TIP3    H222611   1.230   3.710   3.824  1.1064 -1.3748 -0.6527
  374TIP3   OH222612   3.821   4.501   1.168 -0.0072  0.0097  0.0532
  374TIP3    H122613   3.789   4.509   1.078 -0.2938 -0.9560  0.0581
  374TIP3    H222614   3.814   4.589   1.203 -0.0263  0.3734 -0.8264
  375TIP3   OH222615   4.828   0.666  16.898 -0.4058 -0.0375 -0.4120
  375TIP3    H122616   4.838   0.591  16.958 -0.9608  0.4994  0.3624
  375TIP3    H222617   4.771   0.633  16.829  0.3380 -0.7043 -0.7255
  376TIP3   OH222618   0.880   1.606   4.205  0.4658 -0.3993  0.2145
  376TIP3    H122619   0.888   1.554   4.285 -1.3802 -0.6461  0.2978
  376TIP3    H222620   0.929   1.685   4.222  1.4642 -1.1559  0.9502
  377TIP3   OH222621   3.130   3.602  11.419 -0.1757  0.4746  0.0474
  377TIP3    H122622   3.098   3.638  11.502 -3.5880  1.2529 -1.4424
  377TIP3    H222623   3.092   3.514  11.415  1.5371 -0.3022  0.0880
  378TIP3   OH222624   3.273   4.347   1.307 -0.3570 -0.1777  0.0508
  378TIP3    H122625   3.264   4.314   1.217 -2.5369  0.0440  0.1342
  378TIP3    H222626   3.193   4.397   1.322  1.1688  2.1004  1.2220
  379TIP3   OH222627   4.001   3.565  11.603  0.2227 -0.1192 -0.0580
  379TIP3    H122628   3.951   3.643  11.579  0.8270 -0.0541 -1.2015
  379TIP3    H222629   4.093   3.592  11.593  0.4413 -1.1254 -1.0523
  380TIP3   OH222630   0.006   2.726   5.242  0.2153 -0.0199 -0.0472
  380TIP3    H122631   0.066   2.666   5.199  0.6385  1.1261 -1.0987
  380TIP3    H222632  -0.022   2.680   5.321  2.1164 -0.7540  0.2335
  381TIP3   OH222633   2.430   1.501   4.580 -0.8798  0.6806  0.2396
  381TIP3    H122634   2.356   1.491   4.640 -0.2481  0.9245  1.0715
  381TIP3    H222635   2.507   1.477   4.631 -0.5206 -1.5413 -1.1840
  382TIP3   OH222636   2.880   0.405   1.220  0.0529  0.0642  0.3207
  382TIP3    H122637   2.941   0.340   1.257  1.3321  0.4426 -1.0510
  382TIP3    H222638   2.797   0.358   1.214  0.8614 -1.3487 -0.2895
  383TIP3   OH222639   3.167   2.750  13.352  0.0289  0.2696 -0.5371
  383TIP3    H122640   3.133   2.671  13.394  0.8264  0.5370  0.6882
  383TIP3    H222641   3.091   2.791  13.313 -0.4330 -0.9908 -1.0152
  384TIP3   OH222642   5.792   6.077   0.384 -0.3808  0.5705  0.1693
  384TIP3    H122643   5.775   5.991   0.421  0.1832  0.5807  0.4570
  384TIP3    H222644   5.742   6.137   0.440 -0.1194  0.5137  0.4605
  385TIP3   OH222645   5.504   1.291  13.238 -0.3254  0.7370 -0.1594
  385TIP3    H122646   5.566   1.363  13.226 -0.0886  0.3690 -1.3296
  385TIP3    H222647   5.560   1.214  13.252 -0.5372  0.5281 -0.4531
  386TIP3   OH222648   5.251   5.498  11.297 -0.2095  0.4492  0.5774
  386TIP3    H122649   5.346   5.510  11.300  0.0654 -1.5161  0.8376
  386TIP3    H222650   5.229   5.501  11.204 -0.1855  2.5876  0.5828
  387TIP3   OH222651   3.742   4.444   2.507 -0.6120  0.5247  0.3560
  387TIP3    H122652   3.695   4.473   2.430 -1.8534  0.0379  0.8972
  387TIP3    H222653   3.816   4.394   2.473 -0.3326  1.5086 -0.5140
  388TIP3   OH222654   5.625   1.808   1.007 -0.7978  0.7330  0.1861
  388TIP3    H122655   5.685   1.796   1.080  0.1434  1.2925 -0.4688
  388TIP3    H222656   5.631   1.727   0.957  0.3215  1.2047 -0.4990
  389TIP3   OH222657   5.524   2.890  14.225 -0.3540  0.1995 -0.5758
  389TIP3    H122658   5.613   2.926  14.233 -0.4019  0.2055 -0.0469
  389TIP3    H222659   5.500   2.867  14.314 -0.7880 -0.0431 -0.7561
  390TIP3   OH222660   0.987   0.842  15.557 -0.5072  0.2149  0.3011
  390TIP3    H122661   1.024   0.910  15.502  1.4604 -0.5910  0.5432
  390TIP3    H222662   1.003   0.872  15.647 -1.6450  0.4528  0.4428
  391TIP3   OH222663   3.864   4.239  13.877  0.3254 -0.2061 -0.1371
  391TIP3    H122664   3.956   4.265  13.872  1.0726 -2.6445 -0.3526
  391TIP3    H222665   3.849   4.189  13.797 -1.2051  0.1651 -0.1076
  392TIP3   OH222666   4.230   2.337   3.514  0.3360  0.5084  0.0890
  392TIP3    H122667   4.138   2.363   3.508  0.2864  0.6315  1.2169
  392TIP3    H222668   4.268   2.363   3.430 -0.8437 -0.3313 -0.7311
  393TIP3   OH222669   4.391   3.145   2.779  0.0467 -0.0529 -0.0957
  393TIP3    H122670   4.344   3.103   2.850  0.1172 -0.8134 -0.4879
  393TIP3    H222671   4.475   3.100   2.775  0.4588  0.6923  0.0182
  394TIP3   OH222672   0.556   2.119   5.796 -0.1027 -0.5279 -1.0044
  394TIP3    H122673   0.592   2.135   5.709 -1.7233  0.5446 -1.5183
  394TIP3    H222674   0.492   2.049   5.783 -0.7391  0.0062 -0.8042
  395TIP3   OH222675   2.965   3.462   3.776  0.4164  0.1765  0.3480
  395TIP3    H122676   2.917   3.398   3.829 -1.0338  0.5632 -0.4577
  395TIP3    H222677   2.969   3.424   3.689 -0.9591  1.3889 -0.2851
  396TIP3   OH222678   3.024   1.174  15.270  0.7794  0.6387  0.2216
  396TIP3    H122679   2.989   1.099  15.318  1.6326  0.2900  0.3343
  396TIP3    H222680   3.065   1.228  15.338 -1.2632  2.0946  0.3832
  397TIP3   OH222681   3.375   0.366   2.617  0.4368 -0.0849  0.3701
  397TIP3    H122682   3.340   0.278   2.602  0.8463 -0.0330 -1.0362
  397TIP3    H222683   3.465   0.362   2.584  0.5040  0.8143  0.4325
  398TIP3   OH222684   5.108   6.270  12.331 -0.1841  0.3488  0.6057
  398TIP3    H122685   5.153   6.197  12.373  1.2012  0.7881 -0.0769
  398TIP3    H222686   5.040   6.228  12.278  0.1953 -0.4130  0.7031
  399TIP3   OH222687   4.043   2.305  13.962 -0.1086 -0.2030 -0.2852
  399TIP3    H122688   4.111   2.371  13.952 -1.3228  1.1878  0.3395
  399TIP3    H222689   4.065   2.260  14.043 -0.9640  1.5773  1.0003
  400TIP3   OH222690   0.462   0.338   5.650  0.3446 -0.2032  0.0814
  400TIP3    H122691   0.512   0.369   5.726  1.7643  0.0812 -0.9247
  400TIP3    H222692   0.514   0.365   5.574 -1.6242  0.5722 -1.0605
  401TIP3   OH222693   4.715   5.501   1.064 -0.1990  0.2366 -0.3813
  401TIP3    H122694   4.688   5.454   0.985  0.0874 -0.7561  0.0981
  401TIP3    H222695   4.807   5.522   1.049  0.1980 -1.0091  0.1639
  402TIP3   OH222696   6.244   5.347   1.315  0.0728 -0.3528  0.1169
  402TIP3    H122697   6.150   5.357   1.332  0.1804  2.9066 -0.6389
  402TIP3    H222698   6.248   5.311   1.226 -0.6424  3.4352 -1.6518
  403TIP3   OH222699   3.623   4.438  15.695  0.0634 -0.1888  0.4118
  403TIP3    H122700   3.555   4.488  15.740  0.2598  0.0250  0.4742
  403TIP3    H222701   3.576   4.390  15.627  0.0837  1.4448 -0.8371
  404TIP3   OH222702   5.107   2.995  11.163  0.8262  0.7131  0.2072
  404TIP3    H122703   5.082   2.958  11.078  0.1934  0.7230  0.3849
  404TIP3    H222704   5.082   2.928  11.227 -0.3123  1.4267  0.5301
  405TIP3   OH222705   5.944   1.262  14.091  0.5610  0.0042 -0.0394
  405TIP3    H122706   6.002   1.284  14.164  0.3520  0.0790  0.1044
  405TIP3    H222707   5.937   1.167  14.093 -0.2002  0.0655  0.6246
  406TIP3   OH222708   3.626   4.543  13.499 -0.0760 -0.8908  0.6829
  406TIP3    H122709   3.692   4.476  13.480  0.1777 -0.0882 -1.5875
  406TIP3    H222710   3.672   4.626  13.485 -1.7961 -0.2929 -2.2805
  407TIP3   OH222711   2.141   3.834  12.176  0.2411 -0.1393  0.6924
  407TIP3    H122712   2.137   3.918  12.130  0.6176  1.4457  3.3595
  407TIP3    H222713   2.080   3.778  12.129 -1.4123  2.1817 -0.1151
  408TIP3   OH222714   4.522   6.616  12.903  0.0099 -0.3368  0.1316
  408TIP3    H122715   4.444   6.673  12.903  0.7537  0.7187  1.1101
  408TIP3    H222716   4.589   6.668  12.859  1.2026  0.3073  2.5783
  409TIP3   OH222717   2.765   4.436   5.067  0.5158 -0.3969 -0.1378
  409TIP3    H122718   2.752   4.370   5.135 -0.4108 -1.1244 -0.9911
  409TIP3    H222719   2.687   4.491   5.072  0.7580 -0.0526 -0.1741
  410TIP3   OH222720   4.780   4.097  13.016 -0.1753 -0.2195 -0.2685
  410TIP3    H122721   4.846   4.081  12.949 -0.9953  1.4855 -1.5548
  410TIP3    H222722   4.807   4.179  13.056 -0.7817 -0.2160  0.1399
  411TIP3   OH222723   6.593   1.210  10.849  0.1013 -0.3474 -0.1734
  411TIP3    H122724   6.621   1.261  10.774 -0.4883 -2.2323 -1.7792
  411TIP3    H222725   6.497   1.217  10.849 -0.1625 -2.6496 -1.4839
  412TIP3   OH222726   5.030   4.173   5.226  0.3532 -0.0590  0.7819
  412TIP3    H122727   5.090   4.112   5.269 -0.5934 -0.3465  1.7376
  412TIP3    H222728   5.036   4.253   5.280  0.6059  0.2580  0.2957
  413TIP3   OH222729   4.544   3.407  14.516  0.8007  0.0209  0.0898
  413TIP3    H122730   4.507   3.348  14.583  1.3571  0.9598  1.2656
  413TIP3    H222731   4.585   3.477  14.567 -1.0781  2.2075 -1.2721
  414TIP3   OH222732   0.491   4.915  11.283 -0.1909 -0.2801  0.0194
  414TIP3    H122733   0.513   4.823  11.270 -2.4793 -0.6236 -2.5209
  414TIP3    H222734   0.546   4.962  11.221  0.7479  0.0497  1.0887
  415TIP3   OH222735   4.182   5.012  15.510  0.2060  0.4917 -0.0640
  415TIP3    H122736   4.110   4.986  15.452  0.0105 -0.1140  0.4504
  415TIP3    H222737   4.199   4.935  15.564  0.4490  1.0178  0.6232
  416TIP3   OH222738   6.067   1.753  16.459  0.8168 -0.6013  0.1123
  416TIP3    H122739   6.005   1.680  16.463 -0.8062  0.6693 -0.6229
  416TIP3    H222740   6.022   1.820  16.408  2.7214  0.4972 -0.2494
  417TIP3   OH222741   1.696   1.474   1.030 -0.6449  0.1872  0.1965
  417TIP3    H122742   1.634   1.500   0.961 -0.6226  0.2716  0.2079
  417TIP3    H222743   1.771   1.438   0.983 -0.8131 -0.1640  0.1897
  418TIP3   OH222744   4.891   4.607  17.037  0.6095  0.3459 -0.2986
  418TIP3    H122745   4.942   4.576  16.962 -2.0516  0.5411 -2.3128
  418TIP3    H222746   4.865   4.696  17.014 -0.0220  0.5221  0.9970
  419TIP3   OH222747   2.874   2.846  11.161  0.2497 -0.5934  0.2468
  419TIP3    H122748   2.797   2.888  11.123 -0.2705  0.0129  1.9093
  419TIP3    H222749   2.945   2.866  11.099 -1.0916 -2.2028 -1.9609
  420TIP3   OH222750   2.852   2.814   0.027 -0.2869  0.6503  0.3938
  420TIP3    H122751   2.819   2.758   0.097 -0.6175  2.1496  1.4884
  420TIP3    H222752   2.775   2.859  -0.007 -0.5025 -1.6548 -2.5283
  421TIP3   OH222753   4.939   4.919   1.108  0.8853  0.2948  0.5606
  421TIP3    H122754   5.005   4.856   1.138  1.1363  0.0222 -0.5121
  421TIP3    H222755   4.857   4.870   1.108  1.0432  0.0195 -0.0602
  422TIP3   OH222756   0.369   4.043   0.938 -0.5437  0.5560 -0.0040
  422TIP3    H122757   0.370   3.954   0.905 -0.5333  1.0354 -1.3603
  422TIP3    H222758   0.457   4.057   0.972  0.2285  0.7939 -1.9578
  423TIP3   OH222759   0.517   5.372  15.177 -0.6623 -0.1135 -0.4373
  423TIP3    H122760   0.560   5.292  15.206 -0.3776  0.1649 -0.0888
  423TIP3    H222761   0.574   5.443  15.207 -1.5120  0.2813  0.3035
  424TIP3   OH222762   5.088   2.864  14.238 -0.1427 -0.2870 -0.3897
  424TIP3    H122763   5.022   2.933  14.239 -0.1821 -0.3273  0.2189
  424TIP3    H222764   5.048   2.792  14.288  0.3077 -0.3534 -0.1125
  425TIP3   OH222765   4.704   0.183   5.016 -0.8311  0.2399 -0.0098
  425TIP3    H122766   4.779   0.125   5.010 -1.8650 -1.1088 -0.4240
  425TIP3    H222767   4.682   0.184   5.109 -1.4089 -0.8703 -0.1150
  426TIP3   OH222768   0.006   1.907   3.465  0.0059  0.7353 -0.1611
  426TIP3    H122769   0.017   1.981   3.524  1.5485  0.1043  0.4149
  426TIP3    H222770  -0.045   1.844   3.515  1.6064  0.0573  0.7146
  427TIP3   OH222771   6.499   3.264   2.279 -0.0606  0.4947 -0.2454
  427TIP3    H122772   6.407   3.243   2.261  0.1921 -0.5265 -0.4089
  427TIP3    H222773   6.533   3.297   2.195 -0.4931  1.7462  0.0453
  428TIP3   OH222774   0.924   6.777   2.669 -0.1110  0.6230  0.2571
  428TIP3    H122775   0.935   6.692   2.626 -0.6002  1.2021 -1.0559
  428TIP3    H222776   0.861   6.759   2.739  0.2940 -0.2283  0.4230
  429TIP3   OH222777   6.711   2.983   3.093  0.6488  0.2112  0.4958
  429TIP3    H122778   6.641   2.933   3.049  2.0149 -2.0822  0.7976
  429TIP3    H222779   6.746   3.039   3.024 -1.0691  0.9789  0.1931
  430TIP3   OH222780   6.769   5.857  16.600  0.2832  0.0943  0.0599
  430TIP3    H122781   6.828   5.783  16.613 -0.3784 -0.2834  0.9927
  430TIP3    H222782   6.702   5.847  16.667 -0.4422  0.9229 -0.5129
  431TIP3   OH222783   4.549   3.737  16.847  0.2136 -0.6676  0.1966
  431TIP3    H122784   4.578   3.828  16.837 -1.2909 -0.0195  1.3279
  431TIP3    H222785   4.619   3.696  16.897 -0.5398  0.8012  2.6664
  432TIP3   OH222786   5.111   2.357   0.074 -0.0092  0.5091  0.3863
  432TIP3    H122787   5.188   2.313   0.037  0.0668  0.4575  0.6071
  432TIP3    H222788   5.138   2.385   0.161 -1.0473 -1.8183  1.5387
  433TIP3   OH222789   6.727   5.404   4.979  0.1045 -0.3705 -0.3355
  433TIP3    H122790   6.762   5.491   5.000 -0.3840 -0.0202 -0.9221
  433TIP3    H222791   6.765   5.346   5.044  2.4191 -0.1545 -1.3925
  434TIP3   OH222792   3.186   1.467   1.819  0.2997 -0.5972 -0.3246
  434TIP3    H122793   3.242   1.390   1.812  1.8336  0.3991  0.4907
  434TIP3    H222794   3.189   1.506   1.731  0.5803 -0.7456 -0.3814
  435TIP3   OH222795   1.522   4.101   4.405  0.1310  0.5266 -0.4230
  435TIP3    H122796   1.585   4.047   4.452 -1.8934 -1.0382  0.6465
  435TIP3    H222797   1.532   4.188   4.443  0.9382  0.0765  0.4186
  436TIP3   OH222798   5.664   4.851  13.995  0.4994  0.2408 -0.2446
  436TIP3    H122799   5.637   4.940  14.018 -0.3511 -0.0257 -0.1739
  436TIP3    H222800   5.748   4.862  13.951  0.7167  1.0220  0.3376
  437TIP3   OH222801   0.429   2.643   4.536 -0.1186 -0.1652  0.8249
  437TIP3    H122802   0.361   2.665   4.599 -0.2550  1.0496  0.2802
  437TIP3    H222803   0.410   2.553   4.511 -2.7117  0.6948 -0.7338
  438TIP3   OH222804   3.087   3.185   4.717 -0.1560 -0.0592  0.0036
  438TIP3    H122805   3.083   3.265   4.769 -0.5269  1.1937 -1.8625
  438TIP3    H222806   3.106   3.215   4.628 -1.7942 -1.9046 -1.0443
  439TIP3   OH222807   1.887   3.722  15.544 -0.9417  0.0376 -0.0688
  439TIP3    H122808   1.976   3.696  15.520 -1.3606  0.0854 -1.8104
  439TIP3    H222809   1.862   3.661  15.613  0.3788 -0.0700  0.3357
  440TIP3   OH222810   6.313   1.989  11.147 -0.1167 -0.7727 -0.0643
  440TIP3    H122811   6.395   1.964  11.189  0.1105  2.9296  2.0902
  440TIP3    H222812   6.337   2.002  11.055  1.6188 -0.3231  0.4100
  441TIP3   OH222813   6.727   4.382  13.087 -0.4347 -0.0232  0.3220
  441TIP3    H122814   6.666   4.334  13.029 -1.4589  0.3818  1.0484
  441TIP3    H222815   6.809   4.333  13.080 -0.3624  0.2958 -1.8673
  442TIP3   OH222816   5.391   1.992   3.390 -0.0326 -0.4797  0.2287
  442TIP3    H122817   5.406   1.909   3.345 -1.4168 -0.4232 -0.3964
  442TIP3    H222818   5.296   1.994   3.405  0.0765  0.6606  0.8924
  443TIP3   OH222819   0.885   6.040   6.233  0.8981  1.0659 -0.2528
  443TIP3    H122820   0.866   5.991   6.313  2.3482 -0.6557 -0.8889
  443TIP3    H222821   0.935   6.117   6.262 -1.6728  2.4488  0.7968
  444TIP3   OH222822   0.184   4.927   3.418 -0.8683  0.4196  0.7475
  444TIP3    H122823   0.089   4.929   3.407 -0.5946  0.1425 -3.0545
  444TIP3    H222824   0.213   5.016   3.397 -0.1355 -0.2641 -1.3493
  445TIP3   OH222825   0.006   5.068   0.588  0.4961 -0.0773 -0.1767
  445TIP3    H122826  -0.034   5.030   0.666  3.8882  1.8310  2.8517
  445TIP3    H222827   0.077   5.009   0.565  1.6163  0.9980  0.3813
  446TIP3   OH222828   5.485   5.327  16.947 -0.1782  0.0574  0.1005
  446TIP3    H122829   5.417   5.386  16.915  1.7163  1.6048 -1.3088
  446TIP3    H222830   5.533   5.379  17.012  0.8319 -0.2908 -0.3481
  447TIP3   OH222831   0.082   3.797  10.638  0.3981  0.0236  0.5942
  447TIP3    H122832  -0.008   3.798  10.607  0.5324 -0.1450  0.1896
  447TIP3    H222833   0.106   3.704  10.637  0.9916  0.1782 -0.5265
  448TIP3   OH222834   4.767   4.136   3.842  0.0378  0.0813 -0.1694
  448TIP3    H122835   4.755   4.131   3.937 -0.5069 -1.6737 -0.2986
  448TIP3    H222836   4.814   4.056   3.819 -0.7029 -0.0077 -1.4962
  449TIP3   OH222837   1.804   2.066  11.186 -0.4342  0.4114  0.2419
  449TIP3    H122838   1.753   2.076  11.105  3.6660 -0.0380 -2.7207
  449TIP3    H222839   1.829   2.155  11.209 -0.3190  0.4149  0.1031
  450TIP3   OH222840   0.978   4.608   1.762  0.1638  0.4740  0.0591
  450TIP3    H122841   0.922   4.580   1.690 -0.6081  1.2365  0.3346
  450TIP3    H222842   0.995   4.529   1.812 -1.2112  0.3116  0.3163
  451TIP3   OH222843   4.522   4.166  16.799 -0.3786 -0.4688 -0.5675
  451TIP3    H122844   4.576   4.088  16.813  1.0041  0.7291  1.1001
  451TIP3    H222845   4.542   4.193  16.709 -2.4378 -3.1154 -1.9511
  452TIP3   OH222846   4.503   2.054  11.112 -0.1242 -0.0132  0.1420
  452TIP3    H122847   4.535   2.138  11.145 -0.0194  0.0136 -0.0232
  452TIP3    H222848   4.476   2.006  11.190  2.8926 -1.1345  0.6382
  453TIP3   OH222849   6.300   3.376   4.523  0.1240  0.1376  0.4878
  453TIP3    H122850   6.259   3.289   4.526  0.7803 -0.1585  1.2355
  453TIP3    H222851   6.385   3.364   4.564 -0.1146  1.3152  1.3968
  454TIP3   OH222852   6.334   1.248  13.462 -0.2280 -0.4095 -0.1733
  454TIP3    H122853   6.303   1.318  13.520 -0.1162  1.9619 -2.7567
  454TIP3    H222854   6.255   1.198  13.441 -0.5209 -0.3851  0.8122
  455TIP3   OH222855   6.417   0.941   5.597  0.3870 -0.3300  0.3832
  455TIP3    H122856   6.384   0.853   5.579  1.7610 -0.2801 -3.2577
  455TIP3    H222857   6.339   0.996   5.601 -0.3614 -1.3518  0.1236
  456TIP3   OH222858   2.474   0.942  12.973  0.3366 -0.5152 -0.5737
  456TIP3    H122859   2.526   0.998  12.915  1.2216  0.2719  0.9213
  456TIP3    H222860   2.407   0.904  12.916  0.5424  1.0151 -1.9120
  457TIP3   OH222861   0.742   3.437   4.753 -0.3431 -0.0194 -0.5449
  457TIP3    H122862   0.726   3.403   4.665  0.4021  0.7170 -0.9809
  457TIP3    H222863   0.833   3.413   4.772 -0.3765  0.1684 -0.1300
  458TIP3   OH222864   5.773   2.883  13.299 -0.3063 -0.2748 -0.8500
  458TIP3    H122865   5.767   2.931  13.217 -0.2065 -2.7301 -2.4029
  458TIP3    H222866   5.715   2.931  13.359  0.0546  1.9016 -2.1419
  459TIP3   OH222867   0.104   1.035   3.604  0.4119  0.2186  0.4749
  459TIP3    H122868   0.133   0.946   3.624 -1.4414 -0.2800  1.2317
  459TIP3    H222869   0.089   1.034   3.509 -1.4927 -0.9572  0.7260
  460TIP3   OH222870   3.462   0.616   4.211 -0.5141 -0.0415 -0.5960
  460TIP3    H122871   3.417   0.555   4.152 -1.2664  0.7093 -0.8214
  460TIP3    H222872   3.552   0.619   4.177 -0.0442 -2.0929  0.2846
  461TIP3   OH222873   1.455   3.299  16.232 -0.2424 -0.4932 -0.3349
  461TIP3    H122874   1.386   3.293  16.299 -0.3704 -2.9791 -0.6193
  461TIP3    H222875   1.510   3.372  16.262 -0.9382 -0.7871  1.8625
  462TIP3   OH222876   6.027   2.050  13.001  0.2732  0.0090 -0.0216
  462TIP3    H122877   5.984   1.986  13.058 -1.2804 -0.1183 -1.2652
  462TIP3    H222878   5.972   2.128  13.009  2.1187  1.2394  1.4429
  463TIP3   OH222879   2.741   5.144  11.872  0.4342  0.4770 -0.4715
  463TIP3    H122880   2.702   5.059  11.853 -0.7014  1.1332 -1.1765
  463TIP3    H222881   2.770   5.137  11.963 -1.3369 -0.0624  0.0920
  464TIP3   OH222882   0.643   4.826  12.282 -0.0194  0.4344 -0.8034
  464TIP3    H122883   0.703   4.840  12.355 -0.2656 -0.9600 -0.3162
  464TIP3    H222884   0.699   4.801  12.209 -0.0596 -2.4489  0.0618
  465TIP3   OH222885   5.450   5.755  15.651  0.8352  0.0356 -0.2290
  465TIP3    H122886   5.384   5.691  15.678 -0.3246  0.5345 -1.7309
  465TIP3    H222887   5.510   5.706  15.595  0.5436  0.0331 -0.5400
  466TIP3   OH222888   0.458   4.289  14.748 -0.2931 -0.8891 -0.0881
  466TIP3    H122889   0.516   4.348  14.700 -2.6174  2.4793  0.9321
  466TIP3    H222890   0.390   4.265  14.684 -0.5581 -0.6259  0.0929
  467TIP3   OH222891   4.174   0.638  11.337 -0.4056 -0.1060  0.7132
  467TIP3    H122892   4.195   0.681  11.254  0.5033 -1.3554  0.2723
  467TIP3    H222893   4.204   0.700  11.404 -1.5342  1.1029  0.1444
  468TIP3   OH222894   0.908   2.731   3.741  0.5981 -0.0796  0.1061
  468TIP3    H122895   0.913   2.636   3.750 -1.1128 -0.2115 -0.0384
  468TIP3    H222896   0.833   2.746   3.684  0.3874  1.3780  0.7167
  469TIP3   OH222897   2.143   3.348  11.767  0.6919 -0.3465  0.7512
  469TIP3    H122898   2.192   3.410  11.821  0.9216  0.7182 -0.6171
  469TIP3    H222899   2.082   3.306  11.828 -0.5313  2.2993  1.4997
  470TIP3   OH222900   6.709   1.777   2.118 -0.1908  0.7229  0.1651
  470TIP3    H122901   6.703   1.683   2.100 -0.7250  0.6340  0.7766
  470TIP3    H222902   6.632   1.796   2.171 -0.5907  1.6963 -0.7408
  471TIP3   OH222903   2.909   4.795  11.703 -0.5645 -0.5075 -0.1575
  471TIP3    H122904   2.970   4.757  11.766  1.2989  0.7142 -1.1488
  471TIP3    H222905   2.929   4.751  11.621 -1.7058 -0.7676 -0.3106
  472TIP3   OH222906   1.261   3.820  16.268  0.6252  0.0434 -0.0177
  472TIP3    H122907   1.279   3.785  16.355  0.2149 -1.8028 -0.6203
  472TIP3    H222908   1.223   3.746  16.220  2.9153  0.2877 -2.4542
  473TIP3   OH222909   3.906   4.408   3.874  0.0316 -0.7060 -0.0444
  473TIP3    H122910   3.822   4.446   3.847  0.0621 -1.4928 -1.2943
  473TIP3    H222911   3.884   4.357   3.953 -0.4311  0.0100  0.3093
  474TIP3   OH222912   5.984   4.792   5.520 -0.1988 -0.1714 -0.0092
  474TIP3    H122913   6.028   4.822   5.441  0.7395 -1.3416  0.0407
  474TIP3    H222914   5.945   4.708   5.496  1.3613 -1.2817  1.1213
  475TIP3   OH222915   0.843   6.440   1.430  0.0717  0.1508  0.0400
  475TIP3    H122916   0.844   6.526   1.388 -1.4235 -0.0207 -0.4196
  475TIP3    H222917   0.854   6.459   1.524 -0.1929  0.8426 -0.0617
  476TIP3   OH222918   6.620   3.985  11.708 -0.2746  0.3604 -0.0056
  476TIP3    H122919   6.574   4.025  11.782 -2.4013 -0.9960 -0.5091
  476TIP3    H222920   6.655   4.059  11.658 -2.6807  1.5654 -0.0466
  477TIP3   OH222921   4.808   4.932  15.701  0.1012 -0.0566 -0.2530
  477TIP3    H122922   4.776   4.853  15.744 -0.4420  0.4138  0.2218
  477TIP3    H222923   4.743   4.952  15.635  1.0668 -0.9269 -1.5150
  478TIP3   OH222924   4.640   0.860   0.075 -0.0320 -0.2708 -0.5672
  478TIP3    H122925   4.689   0.943   0.076  1.3931 -1.0820  0.8471
  478TIP3    H222926   4.551   0.885   0.097  0.5667  0.8157  0.8174
  479TIP3   OH222927   6.277   1.924  12.248  0.3814 -0.2806 -0.0943
  479TIP3    H122928   6.223   1.973  12.186 -1.0375 -1.4201  0.1699
  479TIP3    H222929   6.330   1.867  12.194 -1.1771 -1.5956 -0.3170
  480TIP3   OH222930   6.701   2.855   4.597  0.0937  0.2659  0.0468
  480TIP3    H122931   6.763   2.853   4.525 -1.3424  0.7835 -1.2663
  480TIP3    H222932   6.724   2.779   4.651  2.3379  0.9018  0.0795
  481TIP3   OH222933   1.003   5.367   4.205  0.3393 -1.0269  0.2736
  481TIP3    H122934   1.096   5.370   4.229  0.2982 -0.9167  0.4217
  481TIP3    H222935   0.957   5.353   4.288  0.0492  1.4193  0.6284
  482TIP3   OH222936   5.367   2.704   1.045 -0.2077  0.4843  0.0004
  482TIP3    H122937   5.278   2.678   1.024 -1.6863  4.6040  0.3445
  482TIP3    H222938   5.409   2.719   0.960  0.7136 -2.6205 -0.2096
  483TIP3   OH222939   2.486   4.196   1.047  0.5915 -0.3914 -0.4160
  483TIP3    H122940   2.499   4.260   1.117 -0.8003  0.0942 -0.5782
  483TIP3    H222941   2.575   4.168   1.024  1.2127  1.1394 -0.0211
  484TIP3   OH222942   1.778   6.216  14.749 -0.4324 -0.4831  0.9231
  484TIP3    H122943   1.855   6.192  14.800  0.0076  0.3199  0.6463
  484TIP3    H222944   1.757   6.136  14.699 -0.2068 -0.9206  1.5154
  485TIP3   OH222945   4.966   1.080  14.772  0.9907  0.4687 -0.0601
  485TIP3    H122946   4.950   0.991  14.802  0.2977  0.0640 -1.5666
  485TIP3    H222947   4.886   1.127  14.793  1.1257  0.5933  0.1836
  486TIP3   OH222948   4.172   3.707   6.593  0.2532 -0.2077  0.0553
  486TIP3    H122949   4.260   3.724   6.559 -0.2526 -0.0607 -1.2448
  486TIP3    H222950   4.186   3.645   6.664  1.5854  1.2190  1.1285
  487TIP3   OH222951   3.602   5.665  11.096 -0.2404 -0.2123  0.2772
  487TIP3    H122952   3.634   5.682  11.185  0.3455  1.2424 -0.1959
  487TIP3    H222953   3.646   5.584  11.071  0.9037  0.2503  0.7055
  488TIP3   OH222954   1.279   3.821  12.106 -0.2263  0.3470 -0.1987
  488TIP3    H122955   1.370   3.832  12.133 -0.5552 -1.6519  2.1442
  488TIP3    H222956   1.230   3.819  12.188 -1.9528 -1.7229 -1.1740
  489TIP3   OH222957   0.492   6.228   0.115 -0.0731 -0.2413 -0.4620
  489TIP3    H122958   0.478   6.165   0.044 -0.4435  2.4988 -3.0084
  489TIP3    H222959   0.412   6.282   0.115  1.2380  1.7983 -0.1220
  490TIP3   OH222960   4.654   1.612  13.386 -0.0863 -0.0103 -0.0127
  490TIP3    H122961   4.572   1.661  13.379  1.5218  3.2022  1.1711
  490TIP3    H222962   4.677   1.590  13.295 -1.8422 -0.2956 -0.4188
  491TIP3   OH222963   6.813   3.185  16.656  0.1247  0.3765 -0.0215
  491TIP3    H122964   6.895   3.221  16.691  0.9565 -0.1733 -1.2971
  491TIP3    H222965   6.819   3.201  16.562 -1.1982  0.2217 -0.1415
  492TIP3   OH222966   3.090   6.067   5.497 -0.2122 -0.3979 -0.0249
  492TIP3    H122967   3.011   6.120   5.501  0.2341  0.4286 -1.3008
  492TIP3    H222968   3.105   6.053   5.403  1.0993 -0.5933  0.1859
  493TIP3   OH222969   3.538   2.114   3.360 -0.0948 -0.1046 -0.4702
  493TIP3    H122970   3.475   2.080   3.424 -0.1568  0.8828  0.0044
  493TIP3    H222971   3.510   2.076   3.277  0.5897 -2.2347  0.2093
  494TIP3   OH222972   3.555   4.712   4.894 -0.0565  0.1979  0.0485
  494TIP3    H122973   3.628   4.764   4.859 -0.2483 -0.2186 -1.0243
  494TIP3    H222974   3.526   4.659   4.820 -0.4906 -0.7362  0.8671
  495TIP3   OH222975   3.025   0.973   5.408  0.1802 -0.6255  0.0518
  495TIP3    H122976   3.006   1.005   5.319  0.6197 -0.4999 -0.0005
  495TIP3    H222977   3.019   1.052   5.462  2.9170 -0.0553 -0.3141
  496TIP3   OH222978   2.691   1.162  15.168  0.3266  0.1875 -0.7056
  496TIP3    H122979   2.734   1.225  15.110  1.2827 -1.3209 -1.7295
  496TIP3    H222980   2.597   1.175  15.152  0.3484  2.6934  0.6539
  497TIP3   OH222981   2.224   1.278  16.465 -0.0966  0.3457 -0.1274
  497TIP3    H122982   2.181   1.284  16.380 -1.0219  1.4073  0.3960
  497TIP3    H222983   2.167   1.219  16.516  0.1631  0.1441 -0.0692
  498TIP3   OH222984   5.234   1.935  15.470  0.0293  0.2018 -0.4230
  498TIP3    H122985   5.153   1.905  15.429 -0.4355 -0.3190  0.7984
  498TIP3    H222986   5.218   1.924  15.564  0.9454  1.5458 -0.0714
  499TIP3   OH222987   6.338   0.476   0.825 -0.5248  0.2494 -0.7127
  499TIP3    H122988   6.275   0.463   0.895  0.6363 -2.2714 -0.0003
  499TIP3    H222989   6.351   0.571   0.820  0.0790  0.5076  3.2015
  500TIP3   OH222990   5.387   1.759   1.643  0.7953 -0.2188  0.1897
  500TIP3    H122991   5.365   1.831   1.701 -1.2865 -0.6883  0.0691
  500TIP3    H222992   5.393   1.799   1.556 -0.8067 -0.2351  0.0558
  501TIP3   OH222993   0.670   3.192   4.918 -0.0111 -0.1027  0.5593
  501TIP3    H122994   0.754   3.174   4.876 -0.4723 -0.3697 -0.2641
  501TIP3    H222995   0.633   3.265   4.869 -0.3031 -0.0464  0.8579
  502TIP3   OH222996   0.725   4.882   0.148  0.0972 -0.2011 -0.3987
  502TIP3    H122997   0.734   4.922   0.062  1.2417  0.9493  0.2225
  502TIP3    H222998   0.631   4.864   0.156 -0.1022  0.1823 -1.6519
  503TIP3   OH222999   1.304   5.760   1.197 -0.5226 -0.2565  0.0669
  503TIP3    H123000   1.246   5.833   1.177  1.2587  1.6419  1.4018
  503TIP3    H223001   1.311   5.711   1.115 -3.3187 -0.1597 -0.3449
  504TIP3   OH223002   1.926   4.409   5.134  0.1361  0.6267 -0.0385
  504TIP3    H123003   1.907   4.499   5.108 -0.1470  0.3970 -0.6652
  504TIP3    H223004   1.850   4.383   5.186 -0.1727  0.4961 -0.5367
  505TIP3   OH223005   2.444   6.177   1.560  1.0446  0.9479 -0.7217
  505TIP3    H123006   2.528   6.160   1.602  0.7465  2.3237  0.4935
  505TIP3    H223007   2.456   6.259   1.513  0.4152  1.0973 -0.6312
  506TIP3   OH223008   0.713   0.808  14.214 -0.0808  0.1564  0.1893
  506TIP3    H123009   0.753   0.891  14.187 -0.3734  0.7056  1.3600
  506TIP3    H223010   0.659   0.782  14.140 -0.7464  1.5333  0.1560
  507TIP3   OH223011   5.402   0.848  12.854 -0.3542  0.3231 -1.1603
  507TIP3    H123012   5.459   0.909  12.807 -0.5506  1.5611  0.1174
  507TIP3    H223013   5.375   0.897  12.932 -0.9774 -1.2198 -0.3708
  508TIP3   OH223014   1.329   6.719   2.061 -0.5289  0.2411  0.0999
  508TIP3    H123015   1.289   6.777   2.125 -0.0815 -1.5907  2.1695
  508TIP3    H223016   1.402   6.679   2.108 -0.9036 -2.0852 -1.1739
  509TIP3   OH223017   6.393   4.081   4.937 -0.4705 -0.0341  0.2473
  509TIP3    H123018   6.391   4.020   4.863  2.6316 -1.7309  1.4100
  509TIP3    H223019   6.467   4.140   4.918  1.2886 -1.3634  2.5168
  510TIP3   OH223020   2.487   4.829   2.402 -0.2015 -0.3842  0.1692
  510TIP3    H123021   2.442   4.834   2.317 -2.4000  0.0507  1.2946
  510TIP3    H223022   2.534   4.912   2.409 -0.7844 -0.0146 -0.2246
  511TIP3   OH223023   5.541   1.149   2.338 -0.1203  0.3818  0.3857
  511TIP3    H123024   5.461   1.099   2.322  1.6885 -2.1406 -1.6139
  511TIP3    H223025   5.533   1.180   2.428 -2.0078 -2.3645  1.2718
  512TIP3   OH223026   3.805   2.569   2.715 -0.6474 -0.2162  0.1884
  512TIP3    H123027   3.738   2.551   2.782  1.3332 -0.5176  2.2197
  512TIP3    H223028   3.879   2.603   2.765  2.1724 -3.5249 -1.3088
  513TIP3   OH223029   0.970   1.163  12.526  0.6180  0.4757 -1.1173
  513TIP3    H123030   1.037   1.116  12.576 -2.4457 -1.8097  1.2300
  513TIP3    H223031   0.922   1.094  12.480 -0.6061  1.9094 -2.0670
  514TIP3   OH223032   2.749   1.166  15.468  0.1592 -0.2430 -0.0599
  514TIP3    H123033   2.704   1.176  15.384  0.8617 -1.8490 -0.6726
  514TIP3    H223034   2.823   1.109  15.449  1.3553  0.7785  1.3295
  515TIP3   OH223035   1.610   3.732   6.688 -0.2364 -0.2983 -0.2555
  515TIP3    H123036   1.640   3.642   6.699 -0.0783 -0.3097 -0.7302
  515TIP3    H223037   1.518   3.725   6.664 -0.7474 -0.2475  1.5953
  516TIP3   OH223038   3.998   3.843   2.831 -0.1771  0.6050  0.8420
  516TIP3    H123039   3.911   3.846   2.791  0.1396  1.4305  0.1824
  516TIP3    H223040   3.986   3.789   2.910 -0.8145 -1.0754 -0.3423
  517TIP3   OH223041   5.507   5.368  11.922 -0.1241  0.1446 -0.9513
  517TIP3    H123042   5.475   5.350  12.010 -0.4180 -0.2174 -1.1313
  517TIP3    H223043   5.584   5.311  11.912  0.3005  0.6594 -0.6970
  518TIP3   OH223044   5.493   0.542   4.890 -0.6340  0.5772 -0.6805
  518TIP3    H123045   5.561   0.605   4.915  1.5441 -1.9466  0.2281
  518TIP3    H223046   5.440   0.533   4.970  1.1982 -1.2322  0.4218
  519TIP3   OH223047   1.085   2.454   2.013 -0.2393  0.1265 -0.4516
  519TIP3    H123048   1.158   2.503   2.050  0.3643 -0.4189 -0.8954
  519TIP3    H223049   1.008   2.485   2.061 -0.1479  2.7194 -1.8001
  520TIP3   OH223050   2.479   6.164  16.538 -0.2425  0.4142  0.6721
  520TIP3    H123051   2.551   6.222  16.516  0.0135  0.1740  0.8668
  520TIP3    H223052   2.435   6.147  16.455  2.2779 -2.5902 -0.2485
  521TIP3   OH223053   0.644   2.519  11.815  0.1618 -0.7223 -0.4310
  521TIP3    H123054   0.600   2.600  11.790  1.0090  0.5292  1.8192
  521TIP3    H223055   0.575   2.465  11.852 -0.3070 -0.8165 -1.4076
  522TIP3   OH223056   6.828   6.583   1.690 -0.0681  1.0302  0.8507
  522TIP3    H123057   6.922   6.570   1.686 -0.3800 -1.4757 -1.0887
  522TIP3    H223058   6.808   6.641   1.616 -0.1495  0.2446  0.2314
  523TIP3   OH223059   5.618   6.102   2.403 -0.2994  0.7582 -0.6905
  523TIP3    H123060   5.642   6.087   2.494 -1.1328  1.1050 -0.3991
  523TIP3    H223061   5.668   6.038   2.353  2.4226  2.4433 -0.2909
  524TIP3   OH223062   3.732   5.519   6.122 -0.3262  0.0783  0.2417
  524TIP3    H123063   3.723   5.522   6.217  1.2554 -1.2836  0.4919
  524TIP3    H223064   3.824   5.495   6.108 -0.6231 -0.1040 -1.6228
  525TIP3   OH223065   3.452   1.310   6.009 -0.2189  0.2856 -0.6816
  525TIP3    H123066   3.446   1.404   6.023  1.1533  0.1954  0.9409
  525TIP3    H223067   3.364   1.277   6.027 -0.3713  1.1244  0.2131
  526TIP3   OH223068   1.020   5.932   3.396 -0.5174  0.3620  0.6090
  526TIP3    H123069   0.993   5.903   3.309  0.8871  0.6949  0.0289
  526TIP3    H223070   0.938   5.939   3.446 -1.3378  0.0912 -0.6554
  527TIP3   OH223071   0.148   1.778  13.934 -0.4019  0.5207 -0.3109
  527TIP3    H123072   0.227   1.803  13.886 -0.5513  0.1288 -0.7717
  527TIP3    H223073   0.118   1.859  13.976 -0.5973  1.0043 -1.3549
  528TIP3   OH223074   5.898   2.875  11.721  0.2895 -0.5707 -0.0710
  528TIP3    H123075   5.935   2.930  11.791 -0.4316  0.9295 -0.8094
  528TIP3    H223076   5.939   2.790  11.733 -1.1024 -0.9371  3.2759
  529TIP3   OH223077   3.964   0.443   3.674  0.2334  0.1195  0.3264
  529TIP3    H123078   4.013   0.365   3.697 -0.6250 -1.5844 -3.0460
  529TIP3    H223079   3.888   0.411   3.625 -0.3277  3.0402 -0.9322
  530TIP3   OH223080   4.461   6.566  14.093 -0.4657  0.1385  0.0365
  530TIP3    H123081   4.454   6.491  14.153  3.8043 -0.2452  0.3846
  530TIP3    H223082   4.415   6.538  14.014  0.0544 -2.4819  0.5559
  531TIP3   OH223083   6.509   2.942  13.044 -0.0817 -0.1730 -0.2226
  531TIP3    H123084   6.584   2.921  13.100  0.7792  0.8874 -0.9259
  531TIP3    H223085   6.437   2.958  13.105  0.9810  1.5320  0.6609
  532TIP3   OH223086   0.460   1.074  16.004  0.2339  0.3658  0.1029
  532TIP3    H123087   0.473   1.057  15.911 -2.4856 -2.0480  0.0498
  532TIP3    H223088   0.468   1.170  16.012  0.4501  0.6507 -2.5805
  533TIP3   OH223089   5.034   4.810  16.030  0.2437  0.1732 -0.2809
  533TIP3    H123090   5.049   4.859  15.949 -1.2073 -0.1424 -0.7755
  533TIP3    H223091   5.039   4.876  16.099 -0.8196  0.8802 -0.8527
  534TIP3   OH223092   6.726   5.729  14.652 -0.5803  0.1091 -0.1546
  534TIP3    H123093   6.806   5.715  14.602  0.4529  1.8062  0.9041
  534TIP3    H223094   6.735   5.818  14.687 -3.7162  1.0635 -1.4149
  535TIP3   OH223095   0.637   6.152   2.703  0.2067  0.3487 -0.1142
  535TIP3    H123096   0.589   6.111   2.631  0.1858 -1.0901  0.6800
  535TIP3    H223097   0.729   6.135   2.683  0.3476  1.9249 -0.9375
  536TIP3   OH223098   4.053   5.841  11.704  0.2725 -0.4071  0.2506
  536TIP3    H123099   4.057   5.869  11.795 -0.4652  0.3100  0.0689
  536TIP3    H223100   4.087   5.916  11.654 -3.0064  0.8554 -0.3514
  537TIP3   OH223101   3.904   1.332   1.239 -0.2353 -0.7460 -0.0246
  537TIP3    H123102   3.933   1.414   1.279 -0.1870 -1.0782  0.6464
  537TIP3    H223103   3.820   1.353   1.198  0.0319 -0.2381 -0.3134
  538TIP3   OH223104   5.428   4.555   6.359  0.2433  1.2746  0.0639
  538TIP3    H123105   5.393   4.625   6.414 -0.8590 -0.7747  2.1816
  538TIP3    H223106   5.485   4.505   6.417 -2.4296 -2.1125  0.1001
  539TIP3   OH223107   5.610   5.653   2.745  0.5869 -0.2403  0.4053
  539TIP3    H123108   5.683   5.707   2.712 -1.8118  3.3660  0.4794
  539TIP3    H223109   5.651   5.594   2.808  3.7053  0.2249 -0.9777
  540TIP3   OH223110   6.800   2.519   4.397  0.5195 -0.1081 -0.0701
  540TIP3    H123111   6.778   2.558   4.482  0.8674 -1.2767  0.5669
  540TIP3    H223112   6.760   2.579   4.333 -1.8788 -0.4854  0.9479
  541TIP3   OH223113   0.837   2.891  13.447 -0.2361  0.0839  0.5954
  541TIP3    H123114   0.800   2.866  13.532 -1.2013  2.6180  0.9918
  541TIP3    H223115   0.776   2.854  13.383 -1.0249  0.4710  1.1123
  542TIP3   OH223116   5.075   2.957  16.740  0.0258 -0.2407  0.1560
  542TIP3    H123117   5.149   2.898  16.725  1.3282  1.3492  0.0698
  542TIP3    H223118   5.067   2.961  16.835 -0.4604 -1.0195  0.1514
  543TIP3   OH223119   1.617   4.762   6.233  0.0481  0.2871  0.0319
  543TIP3    H123120   1.534   4.733   6.271  0.8438  0.5281  2.1113
  543TIP3    H223121   1.638   4.843   6.279  2.4936 -0.9253  1.2464
  544TIP3   OH223122   0.533   3.595   3.791  0.0450  0.1638  0.3852
  544TIP3    H123123   0.540   3.507   3.755 -0.1891  0.0282  0.6654
  544TIP3    H223124   0.623   3.627   3.796  0.0448  0.4171 -0.8802
  545TIP3   OH223125   0.292   0.311  13.517 -0.3568  0.4463 -0.0599
  545TIP3    H123126   0.316   0.255  13.591  2.7551  0.5643 -0.8381
  545TIP3    H223127   0.239   0.380  13.556  1.8958  0.9941  2.3362
  546TIP3   OH223128   6.136   4.127  15.382  0.4345  0.4552 -0.4732
  546TIP3    H123129   6.054   4.140  15.431  0.0327  0.1022 -1.0360
  546TIP3    H223130   6.201   4.177  15.431 -0.5058  2.3489 -1.0806
  547TIP3   OH223131   3.655   3.417   5.223 -0.1138 -0.5894 -0.0120
  547TIP3    H123132   3.743   3.385   5.204  1.0638  1.9758  0.6312
  547TIP3    H223133   3.599   3.373   5.159  2.1661  0.3069 -2.8367
  548TIP3   OH223134   6.558   2.242  16.242 -0.5733  0.8002  0.2048
  548TIP3    H123135   6.472   2.228  16.203 -0.1705 -0.5969 -0.2282
  548TIP3    H223136   6.553   2.330  16.280 -1.9399  1.0281 -0.4438
  549TIP3   OH223137   0.527   0.437   4.294 -0.3936  0.4696 -0.2527
  549TIP3    H123138   0.577   0.357   4.310 -1.9588 -0.4421  0.3642
  549TIP3    H223139   0.511   0.473   4.381 -0.1752  1.1507 -0.4947
  550TIP3   OH223140   1.584   1.405  17.067 -0.4275  0.1134  0.0125
  550TIP3    H123141   1.602   1.423  16.974 -0.9810 -0.0699 -0.1335
  550TIP3    H223142   1.551   1.488  17.101 -1.8733 -0.2723 -0.3797
  551TIP3   OH223143   0.769   4.182  16.553  0.5143  0.4230 -0.2793
  551TIP3    H123144   0.755   4.277  16.547 -0.3142  0.3636  0.4718
  551TIP3    H223145   0.785   4.166  16.646 -1.6775 -0.4396  0.0101
  552TIP3   OH223146   3.305   1.251   2.448  0.4033  0.6074  0.3384
  552TIP3    H123147   3.254   1.277   2.371  0.7386  1.1372  0.2860
  552TIP3    H223148   3.246   1.266   2.522  0.6516  1.7461  0.3266
  553TIP3   OH223149   5.370   5.003  15.829  0.2424 -0.0469  0.1159
  553TIP3    H123150   5.321   5.053  15.765  0.0827  0.9559  0.9875
  553TIP3    H223151   5.394   5.067  15.897  1.6118 -0.7746  0.3668
  554TIP3   OH223152   3.058   1.840  14.571  0.7396 -0.3212  0.0927
  554TIP3    H123153   3.039   1.933  14.580 -1.3624 -0.4989 -1.7779
  554TIP3    H223154   3.148   1.837  14.538  0.6948  1.0514 -0.2209
  555TIP3   OH223155   4.846   3.914  12.138  0.2697 -0.1677  0.0642
  555TIP3    H123156   4.761   3.883  12.169  0.0958 -0.3972 -0.6290
  555TIP3    H223157   4.898   3.835  12.126 -0.1819 -0.2501 -1.7280
  556TIP3   OH223158   6.020   1.968   1.526  0.2672 -0.1125  0.2572
  556TIP3    H123159   6.047   1.997   1.439  1.6534 -1.8583  0.0422
  556TIP3    H223160   5.966   1.891   1.510 -1.6633  1.0452  0.8839
  557TIP3   OH223161   0.977   0.130  13.480  0.0636 -0.4617 -0.3770
  557TIP3    H123162   0.892   0.141  13.521  0.5378 -1.0393  0.7917
  557TIP3    H223163   0.957   0.092  13.394 -0.9300  0.6800 -0.6694
  558TIP3   OH223164   2.658   1.683  14.422  0.0762 -0.0573 -0.1973
  558TIP3    H123165   2.642   1.622  14.494  0.7868 -1.5288 -1.2497
  558TIP3    H223166   2.570   1.706  14.390 -0.4257  2.4906  2.5449
  559TIP3   OH223167   2.340   5.636  15.623 -0.0426  0.6751  0.6220
  559TIP3    H123168   2.344   5.609  15.532 -0.3105 -0.4136  0.9259
  559TIP3    H223169   2.353   5.731  15.620 -3.0541  1.1747 -0.8257
  560TIP3   OH223170   0.847   3.182   4.697  0.7460  0.2596  0.5031
  560TIP3    H123171   0.902   3.116   4.738  0.5311  0.1040  0.5415
  560TIP3    H223172   0.890   3.202   4.614 -0.0906 -1.1670 -0.3055
  561TIP3   OH223173   2.654   6.765  12.286 -0.6494  0.1044  0.7200
  561TIP3    H123174   2.593   6.707  12.239  0.6848 -0.2263 -0.6966
  561TIP3    H223175   2.675   6.833  12.222  0.5056  0.1621  1.1496
  562TIP3   OH223176   4.443   0.124   1.249 -0.1005  0.0214 -1.0069
  562TIP3    H123177   4.484   0.201   1.211  2.5071 -1.1169 -0.7082
  562TIP3    H223178   4.381   0.094   1.181 -0.1921  1.5896 -1.6528
  563TIP3   OH223179   0.635   6.298  16.293  0.1615  0.2933 -0.2071
  563TIP3    H123180   0.631   6.202  16.294 -1.8590  0.3272  0.8083
  563TIP3    H223181   0.723   6.318  16.264  1.3964 -1.9022  1.6518
  564TIP3   OH223182   1.079   6.698  14.493  0.1725 -0.3441  0.0181
  564TIP3    H123183   1.006   6.755  14.471 -0.1132 -1.0733 -0.9992
  564TIP3    H223184   1.145   6.757  14.530  0.2882  0.8371 -1.9248
  565TIP3   OH223185   5.365   4.704   4.108 -0.5004  0.2086  0.1579
  565TIP3    H123186   5.339   4.779   4.054 -2.1886 -0.4379  0.0082
  565TIP3    H223187   5.458   4.720   4.127 -0.0567  0.9285 -2.1729
  566TIP3   OH223188   2.499   2.230   3.766 -0.5459  0.6201 -0.0276
  566TIP3    H123189   2.575   2.185   3.802 -0.0263 -0.2184 -2.0485
  566TIP3    H223190   2.519   2.323   3.779  1.6732  0.5023 -2.0005
  567TIP3   OH223191   3.630   6.728   1.483 -0.5321 -0.4382  0.1321
  567TIP3    H123192   3.623   6.636   1.506 -0.7486 -0.3230  0.5425
  567TIP3    H223193   3.602   6.775   1.562  1.0209 -0.0009  0.4586
  568TIP3   OH223194   6.657   1.086  14.986  0.1728  0.0903  0.5905
  568TIP3    H123195   6.729   1.072  14.924 -1.5161  1.4672 -1.8610
  568TIP3    H223196   6.637   0.999  15.020  1.2054 -0.7194 -0.7714
  569TIP3   OH223197   5.788   1.694   4.481  0.1052  0.7362 -0.1301
  569TIP3    H123198   5.875   1.733   4.487 -0.8176  2.7896  0.9223
  569TIP3    H223199   5.744   1.744   4.412 -0.6448  0.6027  0.2381
  570TIP3   OH223200   0.896   1.261   2.670 -0.1099 -0.4784  0.4487
  570TIP3    H123201   0.820   1.218   2.632  0.7964 -0.8273 -1.0432
  570TIP3    H223202   0.971   1.222   2.625  0.8857  0.7832  0.9522
  571TIP3   OH223203   0.158   4.461   1.889 -0.1734 -0.1577 -0.1743
  571TIP3    H123204   0.238   4.507   1.863  0.3719 -0.5728  0.7083
  571TIP3    H223205   0.088   4.522   1.869  0.5284  1.0781  0.9487
  572TIP3   OH223206   1.859   3.441   4.357  0.0071  0.0816  0.5643
  572TIP3    H123207   1.778   3.484   4.384 -2.1088 -3.0688 -0.2158
  572TIP3    H223208   1.881   3.483   4.274 -0.7688  1.0009  0.7943
  573TIP3   OH223209   2.162   3.390  12.417 -0.1819 -0.2506 -0.7006
  573TIP3    H123210   2.068   3.401  12.409 -0.1013 -0.0855 -1.5361
  573TIP3    H223211   2.182   3.310  12.369 -0.0279 -0.9141  0.4299
  574TIP3   OH223212   3.497   2.819  11.580  0.4807 -0.6928 -0.3060
  574TIP3    H123213   3.591   2.802  11.581  0.5086 -0.5952 -0.9837
  574TIP3    H223214   3.460   2.755  11.641  1.1125  0.0978  0.9485
  575TIP3   OH223215   3.591   5.574  14.453  0.5580  0.0047 -0.1364
  575TIP3    H123216   3.624   5.631  14.384  0.8128  0.9343  0.7286
  575TIP3    H223217   3.557   5.497  14.407 -1.7291  1.7298 -1.5248
  576TIP3   OH223218   2.205   6.781  13.708 -0.1142 -0.2174  0.1779
  576TIP3    H123219   2.199   6.798  13.614 -2.2108 -1.6097 -0.0127
  576TIP3    H223220   2.259   6.702  13.715 -0.8250 -0.7353  0.0139
  577TIP3   OH223221   1.688   1.992  10.316  0.3014 -0.3759 -0.2500
  577TIP3    H123222   1.737   1.988  10.234  0.5530 -1.0211 -0.0780
  577TIP3    H223223   1.599   2.016  10.290  0.1489 -1.4858 -0.8247
  578TIP3   OH223224   0.621   3.773   2.868 -0.1258 -0.3517 -0.3521
  578TIP3    H123225   0.590   3.834   2.935  0.4841 -0.9018  0.4526
  578TIP3    H223226   0.561   3.785   2.795  0.2140  1.5270 -0.3855
  579TIP3   OH223227   3.023   6.232  16.240 -0.2151 -0.3662  0.0427
  579TIP3    H123228   2.942   6.252  16.193 -0.0034 -0.2484 -0.2802
  579TIP3    H223229   3.032   6.304  16.303 -0.0290 -0.0292 -0.3622
  580TIP3   OH223230   3.219   2.541  12.392  0.0728 -0.2825 -0.4533
  580TIP3    H123231   3.242   2.626  12.355  1.9281 -0.4960  0.0842
  580TIP3    H223232   3.216   2.482  12.316  1.4556 -0.2418 -0.5719
  581TIP3   OH223233   0.536   3.543  14.678 -0.0617  0.7283  0.3452
  581TIP3    H123234   0.491   3.563  14.596 -1.5272  2.9329  1.5715
  581TIP3    H223235   0.466   3.543  14.743  0.8004 -2.6313  1.4461
  582TIP3   OH223236   4.094   4.693  10.937  0.1999  0.2789 -0.0455
  582TIP3    H123237   4.040   4.614  10.939 -1.1846  1.1223 -1.3091
  582TIP3    H223238   4.155   4.679  10.864 -0.6094  0.6879 -0.8210
  583TIP3   OH223239   4.218   6.569   1.393 -0.9929 -0.9418 -0.0595
  583TIP3    H123240   4.268   6.647   1.416 -1.7706 -1.1153  2.5202
  583TIP3    H223241   4.177   6.590   1.310  0.8348  0.3909 -0.6828
  584TIP3   OH223242   3.526   3.325  15.559  0.0587 -0.1996 -0.0438
  584TIP3    H123243   3.552   3.399  15.504  3.7901  0.0390  1.7209
  584TIP3    H223244   3.516   3.252  15.497 -2.7414  1.4178 -1.7035
  585TIP3   OH223245   4.841   1.444   3.893  0.2995 -0.1051  0.2261
  585TIP3    H123246   4.930   1.440   3.859  0.5370 -1.6445  0.9467
  585TIP3    H223247   4.786   1.446   3.815  0.8949 -1.4866 -0.2573
  586TIP3   OH223248   2.753   3.138  13.974 -0.9606 -0.1973  0.1027
  586TIP3    H123249   2.682   3.159  13.914 -0.0535  1.9243 -0.3127
  586TIP3    H223250   2.709   3.097  14.049 -2.3633 -0.7761 -0.9919
  587TIP3   OH223251   5.689   0.702   2.229  0.5715 -0.3516 -0.0483
  587TIP3    H123252   5.721   0.792   2.219  2.6858 -1.0839 -0.3525
  587TIP3    H223253   5.634   0.688   2.152  2.7096 -0.2606 -1.7023
  588TIP3   OH223254   5.520   2.102  14.566 -0.3701 -0.0304  0.5993
  588TIP3    H123255   5.493   2.131  14.479 -0.7187  0.7459  0.9434
  588TIP3    H223256   5.609   2.069  14.555 -0.7769 -0.8833 -0.2300
  589TIP3   OH223257   2.926   3.824   3.545  0.1433 -0.1748 -0.4371
  589TIP3    H123258   2.832   3.823   3.561 -0.1694 -1.5598 -2.0685
  589TIP3    H223259   2.964   3.774   3.617 -0.2965  0.7661  0.4697
  590TIP3   OH223260   5.746   6.365  15.866 -0.3282 -0.1559  0.4987
  590TIP3    H123261   5.741   6.338  15.774 -1.6069 -1.0837  0.8004
  590TIP3    H223262   5.661   6.405  15.883  0.9313  2.7783  0.5268
  591TIP3   OH223263   3.431   4.590  15.320 -0.2872 -0.1950  0.6870
  591TIP3    H123264   3.439   4.653  15.248 -1.2116 -1.1334 -0.2784
  591TIP3    H223265   3.511   4.538  15.316  0.3272  0.6813  1.2764
  592TIP3   OH223266   5.087   2.256  10.838  0.4678 -0.3162 -0.0607
  592TIP3    H123267   5.110   2.230  10.928  2.0986 -1.1196 -0.6715
  592TIP3    H223268   5.158   2.220  10.784 -0.7355 -0.2732 -1.7338
  593TIP3   OH223269   1.369   2.901  11.290 -0.5157  0.1138  0.1242
  593TIP3    H123270   1.393   2.941  11.207 -1.3266 -1.2931 -0.8086
  593TIP3    H223271   1.295   2.845  11.270  0.5337 -1.8393  1.3866
  594TIP3   OH223272   4.217   5.456   2.771 -0.1392 -0.0612 -0.5765
  594TIP3    H123273   4.192   5.471   2.680 -0.1101 -1.7449 -0.8974
  594TIP3    H223274   4.135   5.442   2.817 -0.2165  1.5749 -0.1397
  595TIP3   OH223275   4.740   0.273  11.373 -0.5062 -0.1891  0.3286
  595TIP3    H123276   4.817   0.224  11.346 -0.0172  0.5011  0.4539
  595TIP3    H223277   4.678   0.206  11.402 -0.5295 -0.8560 -1.1700
  596TIP3   OH223278   2.777   1.322  13.761  0.7038 -0.7299  0.3268
  596TIP3    H123279   2.753   1.412  13.783  0.9649 -0.9522  1.5811
  596TIP3    H223280   2.857   1.330  13.709  0.1296 -0.1985 -0.5046
  597TIP3   OH223281   5.770   6.842  11.672  0.2781  0.4612 -0.3856
  597TIP3    H123282   5.718   6.921  11.688 -1.0421 -0.6064  0.8955
  597TIP3    H223283   5.741   6.780  11.740  4.1581  0.1843  1.2723
  598TIP3   OH223284   2.571   1.462   1.707  0.0651  0.3397  0.5500
  598TIP3    H123285   2.655   1.507   1.713 -1.0746  2.5512  1.0333
  598TIP3    H223286   2.520   1.498   1.779 -1.7855  0.1683 -0.6089
  599TIP3   OH223287   6.847   1.155  10.512  0.1704 -0.3720 -0.8534
  599TIP3    H123288   6.826   1.233  10.562  0.4252 -0.2686 -0.9024
  599TIP3    H223289   6.772   1.142  10.453  0.5618  0.4162 -1.5504
  600TIP3   OH223290   1.351   6.603  15.994  0.6282 -0.0385  0.0748
  600TIP3    H123291   1.370   6.510  15.987  1.9768  0.2871 -0.9231
  600TIP3    H223292   1.391   6.642  15.916  1.0634  1.5177  1.0250
  601TIP3   OH223293   1.772   1.862   4.588 -0.7697 -0.2439 -0.7353
  601TIP3    H123294   1.808   1.919   4.521 -0.2512 -0.2763 -0.4905
  601TIP3    H223295   1.679   1.881   4.589 -0.6252  0.4767 -0.7750
  602TIP3   OH223296   4.018   5.716  16.677 -0.4179  0.1407  0.3932
  602TIP3    H123297   4.034   5.714  16.583 -0.4902  0.8812  0.3554
  602TIP3    H223298   4.021   5.809  16.700 -0.5857 -0.0156  1.0906
  603TIP3   OH223299   0.817   0.197  12.979 -0.0342  0.8022  0.1938
  603TIP3    H123300   0.819   0.107  12.946  0.3487  1.1747 -0.8203
  603TIP3    H223301   0.825   0.188  13.074  0.5930 -0.2035  0.0540
  604TIP3   OH223302   1.445   3.569  11.115  0.0974  0.1447 -0.0539
  604TIP3    H123303   1.518   3.526  11.158 -0.0639 -0.8207 -0.7111
  604TIP3    H223304   1.404   3.500  11.062 -2.2390  0.2293  1.4753
  605TIP3   OH223305   6.670   1.980  11.791 -0.2904  0.4530  0.2250
  605TIP3    H123306   6.765   1.965  11.791  0.1939  3.0733  0.3665
  605TIP3    H223307   6.641   1.949  11.706  0.6619 -0.5189  0.2316
  606TIP3   OH223308   5.787   1.653  11.128  0.2516 -0.0405  0.1599
  606TIP3    H123309   5.859   1.595  11.102  0.1544  0.0106 -0.2306
  606TIP3    H223310   5.816   1.740  11.103  0.7008  0.1709  1.4034
  607TIP3   OH223311   1.658   2.919   6.334 -0.0899  0.2797  0.1691
  607TIP3    H123312   1.749   2.893   6.322 -0.0727 -0.3067  1.4547
  607TIP3    H223313   1.658   3.014   6.322  0.6178  0.2341 -0.2116
  608TIP3   OH223314   2.243   6.768   5.798 -0.4304  0.1426 -0.5871
  608TIP3    H123315   2.297   6.815   5.734 -0.1245 -0.6324 -0.9070
  608TIP3    H223316   2.306   6.736   5.863 -0.7602  1.0769  0.2105
  609TIP3   OH223317   0.608   6.359   3.249  0.2618 -0.0806  0.4799
  609TIP3    H123318   0.582   6.427   3.312  0.0225  0.5010 -0.2271
  609TIP3    H223319   0.662   6.298   3.300  0.1330  0.4145  1.2271
  610TIP3   OH223320   5.299   2.795  15.647  0.5754 -0.0007 -0.6597
  610TIP3    H123321   5.333   2.757  15.729  0.0914  1.6069  0.3342
  610TIP3    H223322   5.209   2.763  15.642 -0.1441  1.6673  0.6732
  611TIP3   OH223323   3.814   4.446   1.509 -0.1457  0.4448  0.0148
  611TIP3    H123324   3.727   4.407   1.503 -0.3488  0.4842  1.9837
  611TIP3    H223325   3.804   4.533   1.472 -0.8327  0.2866 -0.1838
  612TIP3   OH223326   2.914   2.503   4.723  0.3120  0.1056 -0.2034
  612TIP3    H123327   2.913   2.412   4.754 -0.2226  0.3329  0.4905
  612TIP3    H223328   2.821   2.528   4.722  0.1191 -0.3649 -3.5040
  613TIP3   OH223329   1.602   0.193   4.383 -0.1615 -0.0970  0.2413
  613TIP3    H123330   1.569   0.130   4.448  1.6696 -1.1469  0.2009
  613TIP3    H223331   1.544   0.182   4.308  1.5417 -3.6628 -0.7619
  614TIP3   OH223332   6.073   5.657  13.835 -0.0494  0.2357  0.2738
  614TIP3    H123333   5.994   5.627  13.878  1.0975 -1.7444  1.1699
  614TIP3    H223334   6.043   5.700  13.755 -2.0050 -0.5663  0.5368
  615TIP3   OH223335   5.720   3.349   1.035  0.4515 -0.0571 -0.0575
  615TIP3    H123336   5.747   3.273   1.086  0.3302 -0.6852 -0.9017
  615TIP3    H223337   5.779   3.351   0.960 -0.3579 -0.0898 -0.7218
  616TIP3   OH223338   2.739   5.713   1.901 -0.0907 -0.1394 -0.1784
  616TIP3    H123339   2.736   5.808   1.894  0.3601 -0.1549 -0.6998
  616TIP3    H223340   2.787   5.685   1.823 -2.0255 -0.9514 -1.1488
  617TIP3   OH223341   4.594   0.150  15.772  0.3283 -0.2851 -0.1849
  617TIP3    H123342   4.516   0.184  15.728 -1.8373 -2.7174  1.4927
  617TIP3    H223343   4.646   0.111  15.702 -0.5549  0.2710 -1.1770
  618TIP3   OH223344   1.115   4.280  16.293  0.8300  0.1647  0.1494
  618TIP3    H123345   1.031   4.254  16.255  0.8767 -1.1574  0.8856
  618TIP3    H223346   1.095   4.357  16.346  0.1406  0.0632  0.0506
  619TIP3   OH223347   3.280   4.509  14.792  0.5304  0.3978 -0.6541
  619TIP3    H123348   3.196   4.515  14.836  0.0076  0.8270 -1.6795
  619TIP3    H223349   3.291   4.594  14.750 -0.9990 -1.2118 -4.8577
  620TIP3   OH223350   2.589   0.507   5.542 -0.3851 -0.5138  0.0043
  620TIP3    H123351   2.604   0.452   5.619 -0.1869 -0.9407 -0.3334
  620TIP3    H223352   2.546   0.449   5.479 -1.9749  0.2313  0.3332
  621TIP3   OH223353   1.426   4.952   1.760 -0.1764 -0.4848  0.3805
  621TIP3    H123354   1.460   5.039   1.739 -0.5431 -0.6793 -1.1835
  621TIP3    H223355   1.467   4.929   1.843 -0.8607  1.5906  1.3440
  622TIP3   OH223356   3.672   1.295   0.845  0.4271 -0.5047 -0.0623
  622TIP3    H123357   3.599   1.234   0.839  0.8972 -1.0327 -0.5254
  622TIP3    H223358   3.660   1.338   0.930 -0.8683  0.0136 -0.4839
  623TIP3   OH223359   3.197   2.252  11.428  0.3450 -0.8329  0.6842
  623TIP3    H123360   3.233   2.210  11.350 -0.3845 -0.2083 -0.0020
  623TIP3    H223361   3.224   2.344  11.421 -0.8904 -0.4796  0.4533
  624TIP3   OH223362   2.491   6.845   4.795 -0.5844  0.6482 -0.2902
  624TIP3    H123363   2.560   6.812   4.737 -0.9005 -1.7123  0.5332
  624TIP3    H223364   2.495   6.786   4.871 -5.0509 -1.2496 -1.2253
  625TIP3   OH223365   6.253   2.476   5.006 -0.6463 -0.2433 -0.1342
  625TIP3    H123366   6.248   2.571   5.000 -0.3034 -0.3044 -2.0567
  625TIP3    H223367   6.167   2.449   5.038  0.3873  0.8497  4.2146
  626TIP3   OH223368   4.115   4.792  16.486 -0.1851 -0.4857  0.1654
  626TIP3    H123369   4.063   4.728  16.438  1.4975 -0.4252 -1.8835
  626TIP3    H223370   4.169   4.740  16.545  2.0818 -1.2155 -2.3665
  627TIP3   OH223371   1.722   5.047  12.398  0.0347  0.1609 -0.1565
  627TIP3    H123372   1.801   4.994  12.387 -0.5302 -0.6876 -0.2871
  627TIP3    H223373   1.753   5.137  12.405  1.1348 -0.2855  1.2768
  628TIP3   OH223374   2.268   6.509   1.778  0.1375 -0.7843 -0.3935
  628TIP3    H123375   2.363   6.521   1.781  0.1133 -0.7356  0.7413
  628TIP3    H223376   2.249   6.490   1.686  1.0261  0.9003 -0.9628
  629TIP3   OH223377   5.450   6.299  12.579 -0.0730 -0.2809  0.2631
  629TIP3    H123378   5.445   6.392  12.558  1.4450 -0.2753 -0.1499
  629TIP3    H223379   5.359   6.274  12.596 -0.4782  1.3082  0.5828
  630TIP3   OH223380   1.518   3.675  16.449  0.2087  0.1744  0.0722
  630TIP3    H123381   1.432   3.658  16.488 -0.5578  2.1064 -0.6330
  630TIP3    H223382   1.552   3.589  16.428 -0.9772 -0.7253  1.5674
  631TIP3   OH223383   6.250   2.855  15.833  0.5238  0.1382 -0.0074
  631TIP3    H123384   6.172   2.833  15.783  0.4578 -1.2335  0.6570
  631TIP3    H223385   6.311   2.784  15.816  0.9689  0.2925  0.8656
  632TIP3   OH223386   1.194   6.495   1.966  0.2525 -0.8448  0.3214
  632TIP3    H123387   1.245   6.576   1.966 -0.3660 -0.4497  0.5146
  632TIP3    H223388   1.128   6.508   2.034 -0.4504 -1.1315 -0.2967
  633TIP3   OH223389   1.863   6.790   4.431  0.1720 -0.2522 -0.5860
  633TIP3    H123390   1.880   6.803   4.338  2.5860  0.4775 -0.1265
  633TIP3    H223391   1.921   6.718   4.456 -1.5990 -1.5122  0.0796
  634TIP3   OH223392   3.021   3.697  12.992  0.1034  0.0121  0.0890
  634TIP3    H123393   3.068   3.687  13.074  0.5489  1.8918  0.0964
  634TIP3    H223394   2.948   3.756  13.013 -0.8717 -0.9481 -0.4697
  635TIP3   OH223395   5.380   6.042   0.325  0.0815 -0.0744 -0.1918
  635TIP3    H123396   5.405   6.125   0.366  1.1329 -0.5781  0.1969
  635TIP3    H223397   5.329   5.997   0.392  1.1083 -0.5432  0.2961
  636TIP3   OH223398   0.122   0.171   0.447  0.1326 -0.0853 -0.2940
  636TIP3    H123399   0.073   0.093   0.472  0.6462 -0.0388  0.9312
  636TIP3    H223400   0.146   0.156   0.356 -1.4865 -0.4496 -0.7041
  637TIP3   OH223401   1.895   6.511   1.679  0.3920 -0.3228  0.2158
  637TIP3    H123402   1.950   6.590   1.689  0.0293 -0.3088  2.7021
  637TIP3    H223403   1.818   6.529   1.732 -0.3975 -1.7746 -0.3949
  638TIP3   OH223404   3.778   0.807   2.444  0.0202  0.3216  0.0337
  638TIP3    H123405   3.708   0.756   2.485 -0.8217  0.4769 -1.1593
  638TIP3    H223406   3.749   0.898   2.451  2.1024  0.8943  3.2977
  639TIP3   OH223407   2.858   5.865  12.956 -0.2678 -0.0180  0.4553
  639TIP3    H123408   2.866   5.936  12.892  1.9187  0.4724  1.1680
  639TIP3    H223409   2.766   5.841  12.955 -0.6563  1.3692 -1.3783
  640TIP3   OH223410   0.961   1.173  16.445  0.3756 -0.0087 -0.0450
  640TIP3    H123411   0.894   1.106  16.459  0.9637 -0.6152 -0.0475
  640TIP3    H223412   1.024   1.158  16.515  0.3373  0.7742  0.1576
  641TIP3   OH223413   0.824   6.428  15.372 -0.2601  0.1047 -0.1054
  641TIP3    H123414   0.861   6.340  15.357  0.6487  0.4565  0.0074
  641TIP3    H223415   0.900   6.484  15.382 -0.8408  0.9085 -0.1261
  642TIP3   OH223416   2.032   5.759  13.768  0.4659 -0.0268  0.0124
  642TIP3    H123417   2.035   5.831  13.831  0.1895  0.5963 -0.6707
  642TIP3    H223418   1.973   5.789  13.699 -2.1603 -2.0957  1.1642
  643TIP3   OH223419   5.213   2.027  15.839  0.5400  0.0384 -0.1337
  643TIP3    H123420   5.197   1.986  15.923  0.8446 -0.2221 -0.2021
  643TIP3    H223421   5.133   2.076  15.821  1.3682  2.1021  1.4356
  644TIP3   OH223422   4.629   3.379   0.646 -0.2294  0.4721  0.1810
  644TIP3    H123423   4.595   3.331   0.570  1.2198 -1.6498  0.7925
  644TIP3    H223424   4.648   3.466   0.612  2.9174 -1.1160 -2.7291
  645TIP3   OH223425   6.058   2.403  13.205  0.3685  0.0312  0.1761
  645TIP3    H123426   6.068   2.424  13.112  0.0403  1.3420  0.4049
  645TIP3    H223427   6.066   2.488  13.249  0.2666 -0.5375  1.3221
  646TIP3   OH223428   4.808   3.066   3.489  0.3067  0.0907 -1.0688
  646TIP3    H123429   4.831   3.106   3.572  0.2511 -0.8423 -0.5924
  646TIP3    H223430   4.810   3.138   3.426  1.2300  0.6349 -0.4268
  647TIP3   OH223431   6.511   0.259   0.812  0.4722 -0.3588  0.2034
  647TIP3    H123432   6.459   0.339   0.805  0.7863 -0.2961 -1.7769
  647TIP3    H223433   6.595   0.288   0.847  0.8014  0.3089 -1.0713
  648TIP3   OH223434   2.001   2.929   2.732  0.9410  0.0336 -0.1193
  648TIP3    H123435   2.017   2.918   2.825  0.3520 -2.4228 -0.2491
  648TIP3    H223436   2.083   2.966   2.698  1.4112  0.2989  1.2364
  649TIP3   OH223437   3.426   2.581  12.861  0.2097  0.1091 -0.0154
  649TIP3    H123438   3.509   2.620  12.833 -0.2079  1.2911  0.3375
  649TIP3    H223439   3.362   2.609  12.796  0.0384 -0.6429 -0.1838
  650TIP3   OH223440   6.447   4.990   4.107  0.3467  0.1724  0.8765
  650TIP3    H123441   6.492   5.070   4.135  0.6146  1.0495 -1.7769
  650TIP3    H223442   6.415   5.010   4.019 -3.2837 -1.2251  1.6985
  651TIP3   OH223443   1.445   1.022   4.712 -0.0279  0.1504  0.7922
  651TIP3    H123444   1.497   1.085   4.763  0.1966 -0.4007  1.2617
  651TIP3    H223445   1.380   1.075   4.666 -0.5949  0.6246  2.0948
  652TIP3   OH223446   3.624   3.385  16.849 -0.2721 -0.5584  0.3356
  652TIP3    H123447   3.631   3.466  16.901 -3.5028 -1.0579  1.7722
  652TIP3    H223448   3.702   3.335  16.874  0.5912  1.1048  1.2081
  653TIP3   OH223449   3.276   4.115  15.755  0.0652 -0.5152  0.0692
  653TIP3    H123450   3.283   4.187  15.818 -1.1627 -0.3070 -0.0125
  653TIP3    H223451   3.234   4.045  15.804  0.2055 -0.7805 -0.1876
  654TIP3   OH223452   6.648   1.409   0.567  0.1272 -0.0395  0.0407
  654TIP3    H123453   6.691   1.435   0.485  0.3321 -1.1520 -0.2225
  654TIP3    H223454   6.652   1.487   0.622  0.3346  0.6068 -0.8668
  655TIP3   OH223455   2.904   6.741   5.588 -0.1292  0.2254 -0.8555
  655TIP3    H123456   2.890   6.680   5.515 -0.4246  0.2010 -0.7765
  655TIP3    H223457   2.964   6.694   5.647 -0.6287 -0.1256 -0.6244
  656TIP3   OH223458   0.120   1.196  11.834  0.0646  0.5608  0.1482
  656TIP3    H123459   0.185   1.146  11.785 -0.6022  1.2704 -1.5230
  656TIP3    H223460   0.087   1.260  11.772 -1.3455  1.0293  1.3281
  657TIP3   OH223461   6.820   4.690  13.225 -0.7438  0.9302 -0.2493
  657TIP3    H123462   6.771   4.766  13.258 -0.5125  2.0856 -2.3464
  657TIP3    H223463   6.754   4.634  13.185 -0.5179  2.3643 -2.8494
  658TIP3   OH223464   5.210   1.278   6.184 -0.4180 -0.4122  0.3399
  658TIP3    H123465   5.294   1.278   6.139 -0.7549 -1.7675 -0.3207
  658TIP3    H223466   5.172   1.193   6.165 -0.4458 -1.2060  3.4662
  659TIP3   OH223467   4.585   2.298   5.223 -0.1780  0.0906  1.0571
  659TIP3    H123468   4.616   2.348   5.147  0.9834 -0.0399  1.4252
  659TIP3    H223469   4.489   2.304   5.218 -0.1189  2.9102  1.4269
  660TIP3   OH223470   5.543   4.275   4.921  0.5127 -0.3142 -0.3233
  660TIP3    H123471   5.493   4.262   5.002 -0.1446 -1.2734 -0.8496
  660TIP3    H223472   5.498   4.347   4.877 -0.2307 -0.9369 -0.6254
  661TIP3   OH223473   3.246   1.218   3.839 -0.0666 -0.3132  0.2550
  661TIP3    H123474   3.162   1.177   3.862 -1.4160  1.3815 -1.2704
  661TIP3    H223475   3.245   1.221   3.744  1.8293 -0.3753  0.2087
  662TIP3   OH223476   2.804   6.391   3.942  0.0053 -0.1744  0.6559
  662TIP3    H123477   2.817   6.433   4.027  1.9856  1.2406 -0.2577
  662TIP3    H223478   2.837   6.455   3.878 -1.1841 -1.2799 -1.1872
  663TIP3   OH223479   1.057   6.347  16.459  0.2673 -0.0547 -0.7903
  663TIP3    H123480   1.135   6.314  16.414  0.3760 -0.0227 -0.6284
  663TIP3    H223481   1.010   6.268  16.486  1.6934 -0.1674  1.6285
  664TIP3   OH223482   1.942   4.138  14.777 -0.6048 -0.7659 -0.0956
  664TIP3    H123483   1.889   4.157  14.855 -1.0133  0.0073 -0.5490
  664TIP3    H223484   1.987   4.056  14.798 -0.5799 -0.4803  1.0217
  665TIP3   OH223485   1.451   1.234  11.158 -0.4207 -0.4028 -0.4869
  665TIP3    H123486   1.524   1.177  11.184 -0.4515 -0.2140  0.0125
  665TIP3    H223487   1.405   1.253  11.239  0.2761  1.3072 -0.4495
  666TIP3   OH223488   3.338   3.567  13.591 -0.0018  0.4619  0.5329
  666TIP3    H123489   3.410   3.550  13.652  0.7970 -0.2351 -0.5678
  666TIP3    H223490   3.341   3.661  13.575  0.6652  0.4347  0.4848
  667TIP3   OH223491   0.140   3.905  12.426  0.1384  0.1402  0.2602
  667TIP3    H123492   0.201   3.955  12.480  0.5987  0.7380 -0.7897
  667TIP3    H223493   0.082   3.970  12.387 -0.7929 -0.3685  0.7534
  668TIP3   OH223494   0.400   1.155   2.508  0.7884  0.2148 -0.1008
  668TIP3    H123495   0.468   1.207   2.551  0.0233 -0.2724  1.8197
  668TIP3    H223496   0.330   1.218   2.491  0.3629  0.0832  1.0830
  669TIP3   OH223497   5.530   2.831   4.030 -0.3666 -0.2874  0.6810
  669TIP3    H123498   5.469   2.811   4.101  1.5161 -0.7266  2.2735
  669TIP3    H223499   5.525   2.926   4.019 -3.8998 -0.5633 -1.7732
  670TIP3   OH223500   3.192   0.645   4.783 -0.0171 -0.2954 -0.1926
  670TIP3    H123501   3.190   0.663   4.877 -0.8059 -2.2848  0.2093
  670TIP3    H223502   3.285   0.648   4.761  0.3110 -1.2462  0.9612
  671TIP3   OH223503   4.720   0.594   2.734 -0.8577  0.3148  0.3679
  671TIP3    H123504   4.626   0.602   2.722 -1.1082 -2.2164  0.0240
  671TIP3    H223505   4.757   0.608   2.647 -1.0804 -0.3717  0.1588
  672TIP3   OH223506   2.861   5.445   0.335  0.2525  0.3780 -0.1937
  672TIP3    H123507   2.902   5.531   0.343  0.2227  0.3432  0.4143
  672TIP3    H223508   2.779   5.453   0.385 -0.8417  0.6544 -1.9450
  673TIP3   OH223509   1.789   6.471   0.933  0.0404 -0.2555  0.0145
  673TIP3    H123510   1.857   6.536   0.916 -0.0920 -0.2645 -0.5833
  673TIP3    H223511   1.718   6.494   0.873  0.2045 -1.2612 -0.5930
  674TIP3   OH223512   4.948   1.766   3.848  0.1776  0.6063  0.2547
  674TIP3    H123513   4.918   1.828   3.913  0.5239  0.9414  0.1002
  674TIP3    H223514   4.910   1.682   3.875 -0.3528  0.8961  0.4191
  675TIP3   OH223515   3.933   3.956  11.862  0.4060  0.2956 -0.6397
  675TIP3    H123516   3.944   3.995  11.775 -1.9184 -3.4618 -2.9530
  675TIP3    H223517   3.840   3.967  11.881  0.3250 -1.2963  0.0243
  676TIP3   OH223518   6.050   6.151   4.796 -0.4449 -0.4288 -0.4729
  676TIP3    H123519   6.026   6.221   4.735 -0.3846 -0.1827 -0.2207
  676TIP3    H223520   5.966   6.111   4.820 -0.5143 -0.2288 -0.3715
  677TIP3   OH223521   2.637   0.237   2.668  0.6045 -0.4525  0.4504
  677TIP3    H123522   2.545   0.214   2.655  0.2496  0.9197  0.4301
  677TIP3    H223523   2.669   0.262   2.582  0.4395  0.9728  0.7816
  678TIP3   OH223524   6.700   1.944  14.501  0.0800  0.3848  0.3849
  678TIP3    H123525   6.762   2.003  14.543  1.2216 -0.3319 -0.2327
  678TIP3    H223526   6.615   1.989  14.509  0.8382  1.9173  0.2696
  679TIP3   OH223527   4.572   5.396  13.858 -0.1946 -0.5957 -0.8676
  679TIP3    H123528   4.533   5.323  13.906  1.2323 -1.0162 -0.2757
  679TIP3    H223529   4.497   5.444  13.822 -1.6273  0.8945  3.3857
  680TIP3   OH223530   4.515   1.797   1.656 -0.1321 -0.0162  0.0520
  680TIP3    H123531   4.434   1.821   1.701  0.4061 -0.6129  1.4154
  680TIP3    H223532   4.581   1.854   1.695  0.2790 -0.2204 -0.3416
  681TIP3   OH223533   0.683   0.671   5.766 -0.2523  0.1298 -0.4913
  681TIP3    H123534   0.682   0.755   5.812 -2.0211  0.7636 -1.6139
  681TIP3    H223535   0.654   0.692   5.677  2.1217 -1.2222 -1.6932
  682TIP3   OH223536   3.664   1.802  10.440  0.0045 -0.0979 -0.2341
  682TIP3    H123537   3.688   1.895  10.446  0.7134 -0.3713  1.8125
  682TIP3    H223538   3.745   1.758  10.414 -0.1599 -0.2341 -0.5244
  683TIP3   OH223539   5.591   6.629   4.709  0.4123  0.3080 -0.3329
  683TIP3    H123540   5.640   6.555   4.743 -0.1516 -1.0602 -2.3298
  683TIP3    H223541   5.499   6.603   4.715  0.0687  1.6371  0.6691
  684TIP3   OH223542   5.829   4.306  13.889 -0.1068 -0.3395 -0.4222
  684TIP3    H123543   5.801   4.215  13.902  0.5262 -0.6439 -1.1509
  684TIP3    H223544   5.913   4.299  13.844 -0.9751  0.6192 -2.2919
  685TIP3   OH223545   6.246   3.394  13.972  0.9648 -1.0340  0.0041
  685TIP3    H123546   6.197   3.399  13.890 -1.9403 -0.2375  1.6177
  685TIP3    H223547   6.293   3.311  13.967 -1.7302 -2.6244 -1.1954
  686TIP3   OH223548   6.467   5.944  11.957 -0.0414  0.8591 -0.1614
  686TIP3    H123549   6.468   6.020  12.015  1.0712  0.7382  0.0140
  686TIP3    H223550   6.519   5.972  11.881 -0.2226  0.5131 -0.4150
  687TIP3   OH223551   4.066   1.594   6.299  0.2211  0.2192  0.8516
  687TIP3    H123552   4.040   1.683   6.322 -0.1612  0.3550 -0.0635
  687TIP3    H223553   3.984   1.544   6.304  0.3397  0.0287  0.8804
  688TIP3   OH223554   1.672   6.742   0.471 -0.3899  0.3424 -0.3522
  688TIP3    H123555   1.651   6.791   0.391  0.3400  1.1311 -0.0784
  688TIP3    H223556   1.645   6.801   0.542  2.4097  1.3097  0.0251
  689TIP3   OH223557   1.894   0.421  12.771  1.0313 -0.3867 -0.0998
  689TIP3    H123558   1.918   0.509  12.743 -0.3907  0.0228 -0.1238
  689TIP3    H223559   1.951   0.363  12.720 -0.1168  0.4082 -2.4597
  690TIP3   OH223560   2.220   6.426  16.152 -0.1360  0.0835 -0.7535
  690TIP3    H123561   2.259   6.483  16.086 -0.4442  0.3337 -0.7225
  690TIP3    H223562   2.126   6.428  16.133 -0.0390 -1.3764 -1.5061
  691TIP3   OH223563   6.412   6.834   2.829  0.2078 -0.0938 -0.1083
  691TIP3    H123564   6.327   6.810   2.792  0.1616 -1.3282  0.7395
  691TIP3    H223565   6.436   6.915   2.784 -1.3591  0.2133 -0.4466
  692TIP3   OH223566   1.433   6.775   3.521  0.6708  0.5055 -0.0892
  692TIP3    H123567   1.443   6.681   3.537 -0.9721  0.5718  1.5820
  692TIP3    H223568   1.490   6.816   3.585  2.3898  0.7031 -1.6524
  693TIP3   OH223569   0.328   0.516   2.419 -0.5537 -1.1285  0.1830
  693TIP3    H123570   0.379   0.469   2.485  0.9367 -3.1284 -2.2096
  693TIP3    H223571   0.252   0.461   2.403  0.2153 -1.8372 -1.2559
  694TIP3   OH223572   4.641   3.478   2.649  0.3080 -0.3278  0.0871
  694TIP3    H123573   4.660   3.542   2.717  0.0684  0.2379 -0.3674
  694TIP3    H223574   4.547   3.485   2.635  0.5349  0.5714 -1.2544
  695TIP3   OH223575   2.339   1.139  13.865 -0.1153  0.6356 -0.2957
  695TIP3    H123576   2.281   1.154  13.940 -0.6691  1.4335 -0.8737
  695TIP3    H223577   2.427   1.134  13.903 -0.5731 -0.8729  0.6241
  696TIP3   OH223578   1.718   6.036  15.542  0.1271 -0.1756  0.1741
  696TIP3    H123579   1.736   6.003  15.630 -1.2233 -0.4686  0.3695
  696TIP3    H223580   1.639   5.989  15.514 -0.7686  1.4901 -0.3006
  697TIP3   OH223581   1.567   6.406   4.211  0.2582 -0.3496 -0.4696
  697TIP3    H123582   1.586   6.492   4.248 -1.0495 -0.5824  0.8167
  697TIP3    H223583   1.477   6.388   4.236  1.1080 -2.9809  1.1286
  698TIP3   OH223584   1.710   4.817  16.312 -0.0869 -1.0130 -0.1832
  698TIP3    H123585   1.633   4.803  16.256 -0.1503  0.3596 -0.4775
  698TIP3    H223586   1.784   4.795  16.255 -0.0884  1.4227 -1.2481
  699TIP3   OH223587   5.235   5.329  13.237 -0.0122  0.2968  0.0154
  699TIP3    H123588   5.141   5.316  13.233 -0.0671  0.4237  0.7894
  699TIP3    H223589   5.250   5.376  13.319  0.5778  1.5952 -0.7995
  700TIP3   OH223590   5.089   5.707  12.855 -0.4959  0.1164  0.3668
  700TIP3    H123591   5.124   5.794  12.876  0.3246 -0.0717 -0.1751
  700TIP3    H223592   4.995   5.714  12.872 -0.4121  1.0560  0.5013
  701TIP3   OH223593   3.255   5.616  13.146  0.3116  0.0404 -0.1615
  701TIP3    H123594   3.281   5.550  13.082  0.1440 -0.8457  0.6706
  701TIP3    H223595   3.159   5.614  13.145  0.2842  0.9371 -0.7944
  702TIP3   OH223596   0.778   4.494   1.522 -0.3277  0.0350 -0.4611
  702TIP3    H123597   0.692   4.528   1.495  0.7182  1.9420 -1.6404
  702TIP3    H223598   0.808   4.443   1.447  0.2144  0.7049 -0.7158
  703TIP3   OH223599   6.219   3.000  14.199 -0.5099 -0.1147  0.2431
  703TIP3    H123600   6.286   3.041  14.143  0.1290 -0.9157  0.4119
  703TIP3    H223601   6.154   3.070  14.213 -0.0633  0.4654 -0.4870
  704TIP3   OH223602   0.474   0.891  16.885  0.6415  0.2142  0.2454
  704TIP3    H123603   0.494   0.837  16.808 -0.1738  0.2593 -0.0096
  704TIP3    H223604   0.455   0.828  16.954 -1.0037  0.1258 -0.2338
  705TIP3   OH223605   1.800   6.613  14.330 -0.0078 -0.3136  0.6945
  705TIP3    H123606   1.801   6.576  14.241 -0.7698  0.0704  0.5253
  705TIP3    H223607   1.804   6.707  14.316  0.9131 -0.2858  1.1045
  706TIP3   OH223608   6.715   3.548  10.688 -0.4632 -0.2843 -0.2458
  706TIP3    H123609   6.809   3.537  10.673 -0.0944  1.8239  0.1254
  706TIP3    H223610   6.685   3.602  10.615 -0.8593  1.0902  0.8971
  707TIP3   OH223611   5.023   1.208  11.329 -0.3252  0.1511 -0.0779
  707TIP3    H123612   4.969   1.205  11.250 -1.9272 -2.4339  0.9985
  707TIP3    H223613   5.098   1.151  11.308 -1.1551 -1.1862  0.4841
  708TIP3   OH223614   5.658   3.585  13.148  0.2021  0.3477  0.2981
  708TIP3    H123615   5.662   3.513  13.085  0.8951  0.1090  0.6005
  708TIP3    H223616   5.720   3.650  13.113  0.1398  0.4720  0.4187
  709TIP3   OH223617   4.230   0.085  10.536 -0.1366  0.0676 -0.0872
  709TIP3    H123618   4.237   0.006  10.483  2.1111 -1.8038  2.6913
  709TIP3    H223619   4.268   0.061  10.620  0.0883  3.9544  1.1349
  710TIP3   OH223620   0.130   3.937  14.264  0.3867 -0.1257 -0.2574
  710TIP3    H123621   0.115   4.025  14.298  1.1215 -0.0690 -0.0735
  710TIP3    H223622   0.205   3.905  14.313 -0.4404 -1.2131  0.3538
  711TIP3   OH223623   2.410   5.118   3.598 -0.1215 -0.0769  0.8313
  711TIP3    H123624   2.449   5.119   3.685  0.2474  0.6957  0.6688
  711TIP3    H223625   2.336   5.058   3.606  1.0302 -1.5216  1.1628
  712TIP3   OH223626   4.536   4.036  11.369  0.1429  0.2016  1.1830
  712TIP3    H123627   4.618   4.017  11.324 -0.1166 -0.6263  1.0382
  712TIP3    H223628   4.484   4.084  11.304 -0.5243 -1.6426  0.2783
  713TIP3   OH223629   3.565   1.342   5.223  0.2352 -0.1445 -0.4487
  713TIP3    H123630   3.562   1.381   5.311 -1.3354 -1.4722  0.1383
  713TIP3    H223631   3.542   1.250   5.237 -2.3678  0.1040 -2.4983
  714TIP3   OH223632   2.726   5.429   3.194  0.2203 -0.1911 -0.2022
  714TIP3    H123633   2.755   5.339   3.182 -1.3006 -0.7288 -0.1500
  714TIP3    H223634   2.759   5.455   3.280  1.7088 -0.2442 -0.7330
  715TIP3   OH223635   6.385   0.729  15.909  0.4027  0.2474  0.0038
  715TIP3    H123636   6.333   0.686  15.841  0.0857  1.1608 -0.3440
  715TIP3    H223637   6.325   0.793  15.948  0.8771  0.3978  0.4907
  716TIP3   OH223638   0.165   0.381  16.245  0.1450 -0.2316 -0.0662
  716TIP3    H123639   0.178   0.291  16.215  0.2653 -0.0672 -0.5203
  716TIP3    H223640   0.252   0.421  16.240  1.1960 -1.3852  4.7067
  717TIP3   OH223641   6.783   6.328   0.871  0.5346  0.6138  0.0840
  717TIP3    H123642   6.877   6.316   0.883  0.7976  2.5921  0.2714
  717TIP3    H223643   6.751   6.356   0.957  0.2362  2.3866 -0.5566
  718TIP3   OH223644   0.012   4.397  12.776  0.0022  0.1298 -0.1817
  718TIP3    H123645   0.036   4.330  12.840 -0.6760  1.1360  1.1784
  718TIP3    H223646   0.096   4.424  12.738  0.6379  0.7316  1.5544
  719TIP3   OH223647   5.329   4.486  13.352  0.1123 -0.1009 -0.4338
  719TIP3    H123648   5.346   4.474  13.446 -0.9906 -0.3306 -0.2526
  719TIP3    H223649   5.243   4.527  13.349 -0.4616 -1.3296 -1.3962
  720TIP3   OH223650   0.266   0.994  11.722 -0.3960  0.4496 -0.4447
  720TIP3    H123651   0.351   0.988  11.679 -0.9924 -0.9280 -1.4784
  720TIP3    H223652   0.234   0.904  11.726 -0.9055  0.6562  1.8470
  721TIP3   OH223653   2.916   3.159   2.965  0.0664 -0.1329 -0.0975
  721TIP3    H123654   3.003   3.164   2.924  0.6911 -1.8637  0.9065
  721TIP3    H223655   2.935   3.148   3.058 -1.2531 -0.4339  0.1522
  722TIP3   OH223656   6.001   5.299  15.868 -0.1039 -0.5300 -0.0160
  722TIP3    H123657   6.026   5.209  15.849  0.4873 -0.3750  0.0115
  722TIP3    H223658   6.079   5.338  15.907 -0.6037 -0.2272  0.7047
  723TIP3   OH223659   5.007   6.695  16.197 -0.4281  0.4089  0.1204
  723TIP3    H123660   5.100   6.711  16.218 -0.3024 -0.2931  0.1399
  723TIP3    H223661   4.963   6.700  16.282 -0.2695 -0.1271  0.2401
  724TIP3   OH223662   3.845   1.810   1.310 -0.3083 -0.3223 -0.4948
  724TIP3    H123663   3.814   1.721   1.329  0.7832 -0.3530  1.4179
  724TIP3    H223664   3.923   1.797   1.256  0.2349 -0.5867  0.3320
  725TIP3   OH223665   2.990   5.643  13.134 -0.3640  0.1735  0.1466
  725TIP3    H123666   2.942   5.722  13.109  0.8438  0.9245  0.1365
  725TIP3    H223667   2.939   5.572  13.096 -0.1805  1.0880 -1.9695
  726TIP3   OH223668   2.228   4.340  13.306  0.1275 -0.3602 -0.4549
  726TIP3    H123669   2.134   4.329  13.295  0.3081 -0.8038 -1.7055
  726TIP3    H223670   2.258   4.254  13.336  0.0586 -0.0363  0.5712
  727TIP3   OH223671   5.559   5.688  14.153 -0.3619  0.7433  0.5127
  727TIP3    H123672   5.593   5.708  14.240  1.0298 -0.2364  0.2181
  727TIP3    H223673   5.619   5.734  14.093 -0.6648  0.5217  0.0336
  728TIP3   OH223674   0.223   4.647   3.342  0.6555 -0.1733 -0.3340
  728TIP3    H123675   0.194   4.737   3.352  0.3461 -0.3382  0.2961
  728TIP3    H223676   0.143   4.595   3.335  0.8095 -0.4971  0.2260
  729TIP3   OH223677   6.686   6.463  12.531  0.2149  0.2663 -0.3587
  729TIP3    H123678   6.676   6.367  12.531  0.9188  0.1868 -0.9565
  729TIP3    H223679   6.655   6.490  12.618  2.1163 -0.7410  0.6865
  730TIP3   OH223680   4.409   3.262   0.188  0.0829 -0.1254  0.2703
  730TIP3    H123681   4.441   3.172   0.193 -3.0656 -1.3336  1.3852
  730TIP3    H223682   4.458   3.309   0.256  0.8363 -1.3063  0.5665
  731TIP3   OH223683   1.574   4.237  16.853  0.1389  0.2859 -0.1835
  731TIP3    H123684   1.656   4.286  16.855  0.2583  0.0761  1.3181
  731TIP3    H223685   1.601   4.145  16.861 -0.2750  0.2806  1.2992
  732TIP3   OH223686   0.173   0.326  16.591  0.0068  0.3944 -0.1656
  732TIP3    H123687   0.188   0.265  16.520 -2.0580 -2.8111  1.8884
  732TIP3    H223688   0.259   0.339  16.631  0.5741 -0.8554 -0.9429
  733TIP3   OH223689   2.070   4.550   2.897 -0.2072  0.3716 -0.0348
  733TIP3    H123690   2.032   4.499   2.825  0.5438  0.9583 -0.8660
  733TIP3    H223691   2.139   4.494   2.933  0.2810  0.5965 -0.6177
  734TIP3   OH223692   3.517   0.727  15.968  0.7092  0.6300  0.5206
  734TIP3    H123693   3.564   0.794  15.918 -0.2892  1.0441  0.0943
  734TIP3    H223694   3.571   0.649  15.962  1.2601  1.0499 -0.0772
  735TIP3   OH223695   2.085   0.994   0.038  0.1889  0.1230 -0.1821
  735TIP3    H123696   2.070   1.080   0.001  0.8021  0.6244  0.6826
  735TIP3    H223697   2.176   0.973   0.016  0.1606 -0.1364 -0.0655
  736TIP3   OH223698   4.117   1.976  11.041  0.0641  0.0005  0.0930
  736TIP3    H123699   4.171   1.970  11.119 -0.2669  0.3139  0.3487
  736TIP3    H223700   4.141   1.899  10.989  1.3214  0.5366 -0.1658
  737TIP3   OH223701   0.006   6.606   2.992 -0.1582  0.5085  0.4698
  737TIP3    H123702  -0.063   6.594   3.058 -0.4851 -1.5153 -0.1562
  737TIP3    H223703   0.085   6.571   3.034 -0.3500 -0.7105 -0.1202
  738TIP3   OH223704   3.278   4.537  15.546 -0.2021 -0.0813 -0.6211
  738TIP3    H123705   3.307   4.565  15.633  0.0354 -1.4511 -0.2330
  738TIP3    H223706   3.344   4.571  15.486 -0.3586  0.8619 -0.2746
  739TIP3   OH223707   5.049   3.277   3.801 -0.5247 -0.0965  0.0181
  739TIP3    H123708   4.975   3.219   3.781  0.2372 -1.1282  0.1008
  739TIP3    H223709   5.017   3.334   3.870 -1.7481  0.5290 -1.0106
  740TIP3   OH223710   0.423   2.260  16.386  0.4666 -0.4833 -0.0751
  740TIP3    H123711   0.380   2.341  16.415  0.5825 -0.3878 -0.1676
  740TIP3    H223712   0.407   2.198  16.457  0.1860 -0.4469 -0.1034
  741TIP3   OH223713   3.744   3.214  12.423  0.5312 -0.4568 -0.0867
  741TIP3    H123714   3.797   3.178  12.494 -0.6906 -1.9222  0.1286
  741TIP3    H223715   3.678   3.267  12.467  1.0633  0.3934 -0.2841
  742TIP3   OH223716   5.697   2.743   1.399  0.0050 -0.2795  0.2391
  742TIP3    H123717   5.760   2.731   1.328  0.2964 -0.5501  0.5418
  742TIP3    H223718   5.634   2.673   1.387  0.7709 -1.1153  1.0075
  743TIP3   OH223719   6.749   6.303  13.391  0.0108  0.6570 -0.0757
  743TIP3    H123720   6.736   6.383  13.441 -0.0011 -0.6263  2.1084
  743TIP3    H223721   6.732   6.233  13.453  1.8880 -1.0592 -1.3684
  744TIP3   OH223722   0.494   6.478  12.400 -0.4073 -0.1972 -0.2672
  744TIP3    H123723   0.426   6.503  12.463  0.9294 -0.9900  1.5675
  744TIP3    H223724   0.536   6.560  12.376  1.5285 -0.1521  2.8617
  745TIP3   OH223725   2.043   1.766   0.896  0.3211 -0.5317 -0.7076
  745TIP3    H123726   2.019   1.750   0.987  1.2314  3.1262  0.3490
  745TIP3    H223727   1.960   1.783   0.852 -0.0063 -0.7922 -0.2023
  746TIP3   OH223728   3.861   4.896  12.180 -0.1017 -0.1487  0.0227
  746TIP3    H123729   3.779   4.895  12.131  0.0122  0.2076 -0.1834
  746TIP3    H223730   3.835   4.882  12.271 -0.2397 -1.6770 -0.2219
  747TIP3   OH223731   1.166   0.948   3.810 -0.0407 -0.1511  0.7143
  747TIP3    H123732   1.227   0.938   3.737 -0.8151  1.1222 -0.1450
  747TIP3    H223733   1.129   0.861   3.821 -1.2083 -0.0297 -1.6261
  748TIP3   OH223734   1.811   0.162   6.425 -0.0901  0.2407 -0.8987
  748TIP3    H123735   1.856   0.232   6.379 -1.8295  0.7217 -1.9724
  748TIP3    H223736   1.718   0.186   6.421 -0.5551 -1.1052  0.4899
  749TIP3   OH223737   3.708   1.598  14.503 -0.1398 -0.3187  0.9813
  749TIP3    H123738   3.789   1.648  14.491 -0.1685 -0.1453  1.4953
  749TIP3    H223739   3.706   1.538  14.428 -1.0012  1.6169 -0.6489
  750TIP3   OH223740   2.463   1.093   5.218  0.0283 -0.0065 -0.0238
  750TIP3    H123741   2.454   1.153   5.292 -1.0865 -0.4113  0.1911
  750TIP3    H223742   2.394   1.119   5.157  1.7675  1.1832 -1.5809
  751TIP3   OH223743   4.431   1.551   3.410  0.1756 -0.1045  0.2407
  751TIP3    H123744   4.501   1.532   3.472  0.7797  0.9121 -0.1093
  751TIP3    H223745   4.405   1.641   3.430 -0.6454 -0.2777 -0.0051
  752TIP3   OH223746   6.464   5.685  17.019  0.2588  0.3324  0.4673
  752TIP3    H123747   6.508   5.743  17.082 -0.9564  0.5407  1.1471
  752TIP3    H223748   6.373   5.682  17.049 -0.4886  0.9022 -1.6179
  753TIP3   OH223749   1.185   5.964   5.254  0.1189 -0.2849 -0.0221
  753TIP3    H123750   1.189   6.041   5.312  3.5740  0.2174 -0.7156
  753TIP3    H223751   1.156   5.998   5.170 -1.8933 -0.4734  0.5420
  754TIP3   OH223752   4.667   4.535   3.427 -0.0834 -0.5979 -0.6351
  754TIP3    H123753   4.693   4.572   3.343  1.5420  2.5124  1.0557
  754TIP3    H223754   4.720   4.456   3.436  1.3412  0.2024 -1.6295
  755TIP3   OH223755   3.573   6.513  11.776 -0.5891  0.4288 -0.2799
  755TIP3    H123756   3.491   6.562  11.763  0.6405  2.9024  0.6251
  755TIP3    H223757   3.602   6.491  11.687 -2.7630 -1.5769 -0.5876
  756TIP3   OH223758   1.463   2.180  14.205  0.7675 -0.4444 -0.0324
  756TIP3    H123759   1.498   2.105  14.157 -0.9329 -0.7591 -0.8508
  756TIP3    H223760   1.369   2.163  14.213  0.4959  1.1121  0.6664
  757TIP3   OH223761   3.690   4.975  11.066 -0.5515 -0.1769  0.1556
  757TIP3    H123762   3.635   5.030  11.011 -0.4371 -0.3240 -0.1073
  757TIP3    H223763   3.670   5.003  11.155 -0.8182 -0.0123  0.0465
  758TIP3   OH223764   0.799   2.318  14.074 -0.0292  0.0177  0.6198
  758TIP3    H123765   0.842   2.318  13.989  0.4207  0.0570  0.8449
  758TIP3    H223766   0.706   2.328  14.054  0.1275  0.6300  0.1600
  759TIP3   OH223767   2.005   3.405  15.328 -0.7984  0.0113 -0.1315
  759TIP3    H123768   2.044   3.333  15.279  0.4673 -0.3427  1.3016
  759TIP3    H223769   2.037   3.393  15.418 -1.5442  1.6714  0.4053
  760TIP3   OH223770   4.144   0.756   4.017 -0.1354 -0.1282 -0.2413
  760TIP3    H123771   4.115   0.711   4.097  3.1944 -0.2106  1.0667
  760TIP3    H223772   4.102   0.707   3.946  0.0962 -2.7674  1.2911
  761TIP3   OH223773   1.675   5.432  12.808  0.8503 -0.1861  0.1735
  761TIP3    H123774   1.766   5.424  12.836  0.8000  0.2143  0.4586
  761TIP3    H223775   1.630   5.360  12.853  1.1154 -0.7256 -0.3955
  762TIP3   OH223776   1.731   0.360  16.577  0.0167  0.3217  0.3527
  762TIP3    H123777   1.745   0.441  16.527 -1.6630  0.8275  0.6475
  762TIP3    H223778   1.814   0.314  16.570  0.4920  1.3118 -1.2219
  763TIP3   OH223779   4.756   5.645  12.236 -0.6659 -0.1900 -0.1252
  763TIP3    H123780   4.745   5.700  12.158  1.6657 -0.0550 -0.4464
  763TIP3    H223781   4.705   5.689  12.304 -3.0565 -0.5070 -1.5933
  764TIP3   OH223782   3.573   2.715   2.318 -0.1946 -1.0770 -0.4536
  764TIP3    H123783   3.634   2.788   2.308  0.1695 -1.0200  1.6998
  764TIP3    H223784   3.627   2.640   2.343 -0.9579 -0.6489  3.1736
  765TIP3   OH223785   6.699   0.049  13.409 -0.3476  0.6344 -0.1193
  765TIP3    H123786   6.792   0.071  13.406  0.0083 -0.8739 -1.2905
  765TIP3    H223787   6.660   0.102  13.339 -0.2211  0.6252 -0.1976
  766TIP3   OH223788   3.516   6.426  12.960 -0.0562 -0.1656 -0.0681
  766TIP3    H123789   3.541   6.519  12.965 -1.1317  0.0858  1.3613
  766TIP3    H223790   3.515   6.407  12.866  1.6523  0.8313 -0.3303
  767TIP3   OH223791   5.469   2.121  15.106 -0.0361  0.5500  0.0616
  767TIP3    H123792   5.466   2.123  15.010  0.3195  0.0114  0.0298
  767TIP3    H223793   5.430   2.037  15.129 -3.6334  2.1948  0.6071
  768TIP3   OH223794   2.275   2.816   0.849  0.2994  0.6841  0.2501
  768TIP3    H123795   2.313   2.736   0.812  0.0702  0.5773  0.2480
  768TIP3    H223796   2.272   2.877   0.775 -0.9626  0.1895 -0.1246
  769TIP3   OH223797   6.383   5.327   5.644 -0.0932 -0.0052  0.7625
  769TIP3    H123798   6.428   5.356   5.564  0.1259 -0.7776  0.6021
  769TIP3    H223799   6.454   5.306   5.705 -0.2525 -0.5073  0.7711
  770TIP3   OH223800   5.858   4.677  11.302  0.4105 -0.1583  0.4649
  770TIP3    H123801   5.777   4.690  11.351  0.3078 -0.8751  0.4962
  770TIP3    H223802   5.843   4.722  11.218  0.6990  1.3307  1.1759
  771TIP3   OH223803   0.684   1.604   0.160  0.4407 -0.5567  0.1282
  771TIP3    H123804   0.601   1.639   0.127  1.2208  2.0123  0.6133
  771TIP3    H223805   0.659   1.545   0.230 -1.0164  0.7227  0.7581
  772TIP3   OH223806   2.569   4.162  11.223  0.2520 -0.4089  0.2706
  772TIP3    H123807   2.595   4.161  11.131 -0.2672  0.9927  0.0850
  772TIP3    H223808   2.477   4.189  11.222  0.4376  0.3065  1.2348
  773TIP3   OH223809   2.681   2.505   5.862 -0.0831 -0.7289  0.4296
  773TIP3    H123810   2.653   2.595   5.882  0.3313 -0.4358 -0.2608
  773TIP3    H223811   2.753   2.488   5.924 -0.8773 -0.9938  1.2975
  774TIP3   OH223812   4.171   6.665  10.773  0.2728  0.3058 -0.0466
  774TIP3    H123813   4.215   6.750  10.782 -0.9485  1.0574 -0.7396
  774TIP3    H223814   4.080   6.688  10.751 -0.6114 -1.1596  1.7820
  775TIP3   OH223815   5.957   3.208   0.887  0.1225  0.0847  0.2433
  775TIP3    H123816   5.939   3.184   0.796  1.9735 -0.7963  0.0830
  775TIP3    H223817   5.924   3.135   0.938 -0.9330  0.5871  0.3067
  776TIP3   OH223818   2.261   3.549  13.173 -0.3747 -0.4307 -0.1664
  776TIP3    H123819   2.311   3.624  13.205  0.4079 -0.9095 -0.2415
  776TIP3    H223820   2.255   3.563  13.078  0.2628 -0.7424 -0.2578
  777TIP3   OH223821   3.338   0.123   4.725  0.2570  0.1710  0.1385
  777TIP3    H123822   3.295   0.204   4.753  0.4953  0.0588  0.8605
  777TIP3    H223823   3.361   0.138   4.634 -1.5796  0.1247 -0.3701
  778TIP3   OH223824   6.240   5.128  11.624  0.5337 -0.6861  0.8341
  778TIP3    H123825   6.245   5.063  11.554  2.4188 -1.3250  1.5048
  778TIP3    H223826   6.310   5.104  11.684  1.9598  2.5474  0.6525
  779TIP3   OH223827   4.981   3.933   2.049  0.2832  0.1790  0.3431
  779TIP3    H123828   4.959   3.976   1.966  2.2006  0.9303  0.1703
  779TIP3    H223829   4.910   3.871   2.063  0.0611 -0.2014 -2.0338
  780TIP3   OH223830   1.516   4.506  16.147 -0.3207  0.0746  0.0734
  780TIP3    H123831   1.485   4.435  16.091  0.7164 -0.0727 -0.3377
  780TIP3    H223832   1.607   4.483  16.167 -1.0099 -0.5615  2.9224
  781TIP3   OH223833   1.817   0.908   1.033  0.6073  0.4332 -0.6651
  781TIP3    H123834   1.890   0.885   0.976  0.7136 -0.0925 -0.3192
  781TIP3    H223835   1.741   0.909   0.976  0.9652  1.6080 -1.1614
  782TIP3   OH223836   6.556   0.329   4.150  0.1137  0.0060  0.4097
  782TIP3    H123837   6.521   0.258   4.204  0.2063  2.0729  3.3961
  782TIP3    H223838   6.478   0.378   4.122  0.2211  0.5335  1.0319
  783TIP3   OH223839   3.756   2.344   3.180  0.2148  0.0072 -0.1620
  783TIP3    H123840   3.805   2.297   3.113 -0.5637 -1.8085  0.4623
  783TIP3    H223841   3.810   2.336   3.259  0.2992  0.5810 -0.1620
  784TIP3   OH223842   6.318   1.744  16.755 -0.1123 -0.6914 -0.3820
  784TIP3    H123843   6.336   1.834  16.781  1.1422 -0.1840 -2.7071
  784TIP3    H223844   6.376   1.690  16.809  1.8143  0.2261 -1.4395
  785TIP3   OH223845   2.646   3.756   4.164  0.4574  0.4437  0.0065
  785TIP3    H123846   2.677   3.666   4.160  0.1614  0.3842 -2.0850
  785TIP3    H223847   2.713   3.806   4.117 -0.5217  0.9372 -0.8996
  786TIP3   OH223848   2.235   3.968   0.234  0.6634 -0.3313  0.1856
  786TIP3    H123849   2.273   3.890   0.275  1.9496 -0.1582 -0.6370
  786TIP3    H223850   2.274   3.970   0.146 -0.9710  0.0757 -0.5706
  787TIP3   OH223851   2.730   2.273  11.582  0.5517 -0.1893 -0.3986
  787TIP3    H123852   2.689   2.329  11.648  0.4156  0.0166 -0.6580
  787TIP3    H223853   2.775   2.333  11.523  2.7004 -0.4614  0.8201
  788TIP3   OH223854   4.035   5.291   1.064 -0.0936 -0.7186 -0.0283
  788TIP3    H123855   3.959   5.235   1.081 -0.4685  0.2066  1.5298
  788TIP3    H223856   3.999   5.376   1.042  0.4909 -0.8428 -1.5937
  789TIP3   OH223857   0.817   4.383   2.304 -0.0205 -0.8712 -0.1300
  789TIP3    H123858   0.912   4.389   2.292  0.6594  3.3083  4.2200
  789TIP3    H223859   0.807   4.335   2.385 -1.4935 -0.1951  0.1136
  790TIP3   OH223860   4.299   1.462   6.419  0.1004  0.4704 -0.2283
  790TIP3    H123861   4.364   1.524   6.389 -0.2433  1.7294  1.4568
  790TIP3    H223862   4.215   1.501   6.394 -0.0750 -0.3056 -0.8902
  791TIP3   OH223863   1.578   0.304  16.237  0.1665  0.1046 -0.0062
  791TIP3    H123864   1.635   0.242  16.283  0.2491 -0.6068 -1.0392
  791TIP3    H223865   1.630   0.334  16.163 -0.6164 -0.1786 -0.6873
  792TIP3   OH223866   1.767   3.881  15.002  0.1188  0.4691 -0.4029
  792TIP3    H123867   1.790   3.872  14.910  1.6839 -1.1870  0.0780
  792TIP3    H223868   1.835   3.938  15.038 -0.1199  0.5936 -0.1466
  793TIP3   OH223869   2.101   2.527  13.707 -0.7845  0.3624 -0.2166
  793TIP3    H123870   2.136   2.606  13.749  1.4308 -1.2206  1.1085
  793TIP3    H223871   2.072   2.557  13.621 -0.3822  2.6810  0.3725
  794TIP3   OH223872   1.548   3.915   1.740  0.0233 -0.5237 -0.5234
  794TIP3    H123873   1.613   3.877   1.799 -0.6924 -1.1503 -0.1279
  794TIP3    H223874   1.522   3.844   1.682  0.1394 -0.1155 -1.0919
  795TIP3   OH223875   4.230   6.475  13.088  0.7143  0.2480 -0.2106
  795TIP3    H123876   4.229   6.534  13.163 -0.4528 -1.4745  1.2009
  795TIP3    H223877   4.270   6.394  13.121 -2.0481 -1.4256 -0.6481
  796TIP3   OH223878   1.371   5.703  11.869  0.3313 -0.0996  0.0339
  796TIP3    H123879   1.304   5.772  11.868  0.4800  0.0485 -0.9585
  796TIP3    H223880   1.363   5.663  11.955  0.1621  1.0820  0.5879
  797TIP3   OH223881   2.905   5.213   6.217 -0.3354 -0.1454 -0.5280
  797TIP3    H123882   2.832   5.250   6.267  0.4616  1.8025 -0.7319
  797TIP3    H223883   2.972   5.193   6.282 -1.3597 -3.0059 -0.1875
  798TIP3   OH223884   4.946   4.220  13.539  0.3676  0.3239 -0.0160
  798TIP3    H123885   4.864   4.253  13.502 -1.0496 -1.4769  1.3318
  798TIP3    H223886   4.965   4.141  13.489  0.6916  0.1497  0.3808
  799TIP3   OH223887   2.591   5.643  13.779  0.5925  0.5357  0.1833
  799TIP3    H123888   2.602   5.733  13.809 -1.0096  1.0468 -0.6308
  799TIP3    H223889   2.501   5.621  13.803  0.4505 -0.2862 -1.0054
  800TIP3   OH223890   6.274   3.421   3.260  0.4666  0.1433 -0.3009
  800TIP3    H123891   6.346   3.359   3.246  1.2600  0.8572  0.4859
  800TIP3    H223892   6.266   3.468   3.177 -0.3535 -1.1926 -1.0101
  801TIP3   OH223893   5.462   2.606   2.148  0.4430  0.4259 -0.5600
  801TIP3    H123894   5.533   2.609   2.212  1.0133 -3.6906 -0.7133
  801TIP3    H223895   5.497   2.553   2.077 -1.9432  0.4896 -1.8623
  802TIP3   OH223896   5.145   5.725  15.509  0.0825  0.3858 -0.8158
  802TIP3    H123897   5.156   5.630  15.508  0.8850  0.4573  0.0730
  802TIP3    H223898   5.226   5.759  15.472 -0.0001  0.7349 -0.6851
  803TIP3   OH223899   1.107   3.193  17.087  0.8082  0.2594  0.1631
  803TIP3    H123900   1.031   3.251  17.097  1.5087  0.9754  1.7763
  803TIP3    H223901   1.141   3.213  17.000 -0.5126  0.3358 -0.3581
  804TIP3   OH223902   2.337   3.635  12.256 -0.0316  0.0179 -0.4618
  804TIP3    H123903   2.298   3.582  12.326  0.1522  0.1909 -0.2288
  804TIP3    H223904   2.266   3.692  12.227 -0.4937 -0.9332 -1.3045
  805TIP3   OH223905   0.149   1.792  12.062  0.5532 -0.0403 -0.9344
  805TIP3    H123906   0.150   1.760  11.972  0.0257 -0.7301 -0.7094
  805TIP3    H223907   0.188   1.721  12.113  1.8958  0.8052 -0.7431
  806TIP3   OH223908   1.585   2.444  15.004 -0.3343 -0.4279  0.5436
  806TIP3    H123909   1.522   2.514  15.025 -0.3235 -0.3584  0.3523
  806TIP3    H223910   1.657   2.490  14.960 -0.6823 -0.6626 -0.2878
  807TIP3   OH223911   2.980   1.672  13.685 -0.4144 -0.5829 -0.1056
  807TIP3    H123912   3.006   1.616  13.612  0.4326  0.1615 -0.3973
  807TIP3    H223913   3.056   1.675  13.742 -1.5212 -2.2805  1.5705
  808TIP3   OH223914   1.434   0.747  10.847  0.1821  0.3288  0.0344
  808TIP3    H123915   1.521   0.718  10.820  0.2289  1.6380 -1.3270
  808TIP3    H223916   1.445   0.841  10.864 -1.1068  0.6469 -0.8221
  809TIP3   OH223917   0.715   6.614  14.609 -0.6897 -0.2021 -0.3889
  809TIP3    H123918   0.681   6.630  14.697 -0.3158  0.3685 -0.3464
  809TIP3    H223919   0.810   6.618  14.619 -0.5771 -1.7160 -0.5235
  810TIP3   OH223920   0.944   2.216   2.500  0.4999 -0.5275  0.3675
  810TIP3    H123921   0.904   2.131   2.514  1.1600 -0.8832  0.1433
  810TIP3    H223922   0.871   2.275   2.483 -0.0124 -0.9250  1.1237
  811TIP3   OH223923   2.527   0.295   5.387  0.0039  0.2911  0.4851
  811TIP3    H123924   2.442   0.269   5.353 -0.2376 -0.1352  1.3865
  811TIP3    H223925   2.573   0.213   5.404  0.7687  0.5155 -0.3859
  812TIP3   OH223926   0.122   6.269  12.850 -0.1087  0.2164  0.2292
  812TIP3    H123927   0.112   6.316  12.767  0.0515 -0.0394  0.0637
  812TIP3    H223928   0.081   6.184  12.834  2.5510 -1.0089 -0.5851
  813TIP3   OH223929   3.499   6.471  13.657  0.4598  0.0488  0.1366
  813TIP3    H123930   3.566   6.418  13.702  0.3075 -0.4727 -0.2331
  813TIP3    H223931   3.456   6.520  13.727  0.7318 -0.1783  0.4697
  814TIP3   OH223932   3.313   5.464   5.549  0.0519 -0.0095  0.0304
  814TIP3    H123933   3.353   5.442   5.465 -0.0474  2.0124 -0.6091
  814TIP3    H223934   3.249   5.532   5.528 -0.8365 -0.3213  1.5883
  815TIP3   OH223935   3.435   5.895  16.455 -0.2579  0.7754 -0.0216
  815TIP3    H123936   3.391   5.851  16.382  1.0184  0.2284 -0.4722
  815TIP3    H223937   3.430   5.988  16.432 -0.7227  0.6856 -0.3152
  816TIP3   OH223938   1.509   4.207  12.084 -0.5293  0.3469  0.3884
  816TIP3    H123939   1.583   4.229  12.028  0.0124  1.4488  1.4909
  816TIP3    H223940   1.461   4.140  12.035 -0.1953  1.3987 -1.4722
  817TIP3   OH223941   5.642   0.329  16.464  0.0386 -0.4706  0.0203
  817TIP3    H123942   5.629   0.343  16.370 -3.5265 -1.4401  0.2413
  817TIP3    H223943   5.708   0.260  16.469 -1.7760 -2.5320 -1.9781
  818TIP3   OH223944   3.062   4.844   2.690 -0.4719 -0.4178  0.4836
  818TIP3    H123945   3.033   4.908   2.756 -1.5379 -0.5201  0.1450
  818TIP3    H223946   2.980   4.814   2.650  0.1504 -0.4512 -0.7908
  819TIP3   OH223947   4.123   5.326  14.852  0.2714 -0.1096  1.2562
  819TIP3    H123948   4.090   5.406  14.811 -2.3082 -1.1635  1.0928
  819TIP3    H223949   4.061   5.308  14.924 -0.3659 -2.9057  0.1376
  820TIP3   OH223950   2.529   3.399  15.807 -1.1125  0.4244  0.6992
  820TIP3    H123951   2.475   3.340  15.755 -1.2281  0.0892  1.1925
  820TIP3    H223952   2.612   3.352  15.817 -1.7825 -0.4594  2.5634
  821TIP3   OH223953   0.457   5.440  14.854 -0.7793  0.2934  0.2367
  821TIP3    H123954   0.484   5.447  14.946  0.3022 -0.4405 -0.0016
  821TIP3    H223955   0.466   5.529  14.819  3.2658 -0.1317 -0.2940
  822TIP3   OH223956   2.714   3.044   4.824 -0.2612 -0.1416 -0.6677
  822TIP3    H123957   2.744   3.032   4.914 -1.3219 -1.3334 -0.4454
  822TIP3    H223958   2.736   2.961   4.780 -2.1227 -0.6332 -0.7789
  823TIP3   OH223959   6.242   5.192   6.548 -0.0450  0.2506 -0.3885
  823TIP3    H123960   6.286   5.265   6.505 -1.1101  1.8470  1.1071
  823TIP3    H223961   6.158   5.184   6.503 -0.1267  0.2523 -0.2354
  824TIP3   OH223962   5.806   6.504  16.646  0.2209  0.8237  0.0499
  824TIP3    H123963   5.870   6.440  16.613 -0.4892 -0.0303  0.2966
  824TIP3    H223964   5.827   6.513  16.739 -0.8904 -0.5537  0.4669
  825TIP3   OH223965   6.713   3.418  13.536  0.8150 -0.1057 -0.0963
  825TIP3    H123966   6.736   3.480  13.467 -0.7344 -0.5908 -1.1021
  825TIP3    H223967   6.643   3.461  13.586 -1.1940 -1.4433 -1.5872
  826TIP3   OH223968   6.056   3.406   0.176  0.2848  0.1606 -0.2610
  826TIP3    H123969   6.142   3.423   0.139 -0.9778  0.4430 -3.3595
  826TIP3    H223970   6.017   3.341   0.118 -2.1226  1.1124  0.1607
  827TIP3   OH223971   4.243   0.133   0.180  0.0536 -0.1934  0.0366
  827TIP3    H123972   4.274   0.071   0.114  2.2014  0.5555  0.2719
  827TIP3    H223973   4.229   0.215   0.132 -0.2032 -0.1433  0.1922
  828TIP3   OH223974   1.733   2.137  15.266 -0.1855 -0.1280 -0.5057
  828TIP3    H123975   1.807   2.185  15.229  1.0127 -0.0612  1.7687
  828TIP3    H223976   1.697   2.196  15.332  1.2568 -2.1173  2.2760
  829TIP3   OH223977   6.546   2.210  10.316  0.3962 -0.5591  0.3581
  829TIP3    H123978   6.478   2.148  10.341 -0.6413  0.0827 -0.7612
  829TIP3    H223979   6.627   2.161  10.323 -0.2551 -1.5994  0.8867
  830TIP3   OH223980   1.647   4.802  14.574  0.1584  0.4093 -0.7604
  830TIP3    H123981   1.710   4.830  14.641 -0.0343 -0.2374 -0.3121
  830TIP3    H223982   1.700   4.793  14.495  0.1689  2.4972 -1.0722
  831TIP3   OH223983   3.719   2.975  12.825  0.1387 -0.0765 -0.1501
  831TIP3    H123984   3.645   2.985  12.885  0.2701  2.8242 -0.3387
  831TIP3    H223985   3.680   2.944  12.743 -0.7321  0.4761  0.0480
  832TIP3   OH223986   1.200   3.024   3.019  0.1840 -0.0505  0.7212
  832TIP3    H123987   1.145   2.953   2.986 -1.4404  1.3023  0.4173
  832TIP3    H223988   1.258   3.045   2.947 -0.0429 -0.3665  0.4437
  833TIP3   OH223989   4.203   0.927  16.943 -0.0470 -0.3743  0.5447
  833TIP3    H123990   4.214   0.890  16.855  1.3297 -0.7051  0.8249
  833TIP3    H223991   4.245   1.013  16.938 -0.7143 -0.0338  0.6653
  834TIP3   OH223992   5.387   4.983   4.024  0.1281  0.6274 -0.3047
  834TIP3    H123993   5.452   5.053   4.012 -1.1905  1.8190 -0.6933
  834TIP3    H223994   5.315   5.006   3.965 -1.1332 -0.0849  0.9069
  835TIP3   OH223995   1.156   1.329   0.520 -0.1419  0.2391 -0.3500
  835TIP3    H123996   1.066   1.360   0.510  0.3148  1.3016 -1.4769
  835TIP3    H223997   1.182   1.304   0.431  0.5271 -0.4833  0.0412
  836TIP3   OH223998   5.830   5.594  14.836  0.2796  0.1458  0.2117
  836TIP3    H123999   5.822   5.518  14.779 -0.1820 -0.2998  0.8636
  836TIP3    H224000   5.839   5.558  14.924 -1.1614  0.8557  0.6746
  837TIP3   OH224001   5.262   5.228   0.589 -0.3634  0.1710 -0.0539
  837TIP3    H124002   5.247   5.320   0.565  1.7294  0.9239  1.3106
  837TIP3    H224003   5.218   5.218   0.674  1.9231  0.8544  1.2987
  838TIP3   OH224004   6.283   2.683  15.184  0.3536  0.2643 -0.3218
  838TIP3    H124005   6.309   2.640  15.103 -2.5926  1.4856 -2.0857
  838TIP3    H224006   6.246   2.767  15.157  0.5714  1.3857  2.4441
  839TIP3   OH224007   5.467   5.976   3.311 -0.3782  0.0589  0.3478
  839TIP3    H124008   5.475   6.005   3.402  1.6401  0.6324  0.0342
  839TIP3    H224009   5.522   5.898   3.306  2.8428  2.1881 -1.1778
  840TIP3   OH224010   2.713   6.099   0.787 -0.3831  0.2569  0.1282
  840TIP3    H124011   2.703   6.169   0.723 -0.2330 -0.0663 -0.2544
  840TIP3    H224012   2.794   6.055   0.763 -0.0409  0.4553  0.8642
  841TIP3   OH224013   3.536   1.490   4.517 -0.0526 -0.1018 -0.4814
  841TIP3    H124014   3.445   1.459   4.511 -0.0035 -0.1481 -1.0034
  841TIP3    H224015   3.572   1.477   4.430  1.3478 -2.7531  0.3741
  842TIP3   OH224016   5.787   1.227  16.683  0.3893  0.1031  0.5219
  842TIP3    H124017   5.873   1.261  16.707 -0.4734  1.5345  1.7820
  842TIP3    H224018   5.726   1.296  16.709 -1.1903 -1.1100  0.1952
  843TIP3   OH224019   1.908   0.819  13.672 -0.7619 -0.3645 -0.0586
  843TIP3    H124020   1.926   0.725  13.666 -1.0885 -0.5677  1.6970
  843TIP3    H224021   1.915   0.850  13.581  1.2041 -1.7264 -0.4528
  844TIP3   OH224022   2.081   3.666  16.739 -0.4263  0.2177 -0.0689
  844TIP3    H124023   1.989   3.649  16.715 -0.2422 -0.8166 -0.1077
  844TIP3    H224024   2.093   3.759  16.724 -1.4246  0.3310 -0.2479
  845TIP3   OH224025   2.826   4.722  14.192 -0.1905  1.0590 -0.2177
  845TIP3    H124026   2.762   4.741  14.260  0.4052  0.2643  0.5863
  845TIP3    H224027   2.911   4.722  14.237  0.3762  1.9852 -1.2383
  846TIP3   OH224028   2.407   5.089   1.509 -0.0514 -0.2259  0.1804
  846TIP3    H124029   2.413   5.055   1.420  1.6015  1.4705 -0.4301
  846TIP3    H224030   2.379   5.180   1.498  0.6551  0.1530  1.3408
  847TIP3   OH224031   0.485   6.569  13.393 -0.4793  0.1493 -0.1378
  847TIP3    H124032   0.474   6.560  13.298  1.1174 -2.4760 -0.1891
  847TIP3    H224033   0.580   6.563  13.406 -0.7451 -0.6238  1.6915
  848TIP3   OH224034   0.346   5.087   4.282  0.0715  0.2525  0.0804
  848TIP3    H124035   0.256   5.056   4.295 -1.0240  2.0851 -2.2489
  848TIP3    H224036   0.347   5.173   4.325  1.0753 -0.1837  0.9736
  849TIP3   OH224037   3.814   5.977  13.266 -0.4871  0.5407 -0.7083
  849TIP3    H124038   3.767   6.006  13.345  0.6799 -1.0986  0.6508
  849TIP3    H224039   3.802   6.049  13.204 -1.6655  1.7807  0.8620
  850TIP3   OH224040   1.918   0.556  14.740  0.5503  0.4221 -0.0949
  850TIP3    H124041   1.969   0.626  14.698  1.8188  0.4637  1.3982
  850TIP3    H224042   1.919   0.484  14.677  1.8738  0.6936 -0.4156
  851TIP3   OH224043   5.945   5.022  11.221  0.0231  0.3759 -0.2247
  851TIP3    H124044   5.946   5.115  11.246  0.6813  0.4201 -0.3932
  851TIP3    H224045   5.998   4.979  11.288  0.8966  0.3350 -0.9239
  852TIP3   OH224046   0.661   0.102  11.000 -0.6482  0.1884  0.7318
  852TIP3    H124047   0.593   0.114  10.934  0.8031 -0.9559 -1.0711
  852TIP3    H224048   0.719   0.177  10.989  0.4630 -0.7925 -0.4738
  853TIP3   OH224049   4.127   0.052   1.402  0.2548 -0.4372  0.7274
  853TIP3    H124050   4.102   0.093   1.319  2.0944 -0.5401  0.0685
  853TIP3    H224051   4.046   0.014   1.436 -0.7590  0.6206 -0.4370
  854TIP3   OH224052   3.233   4.690  16.493 -0.0059 -0.2916  0.1100
  854TIP3    H124053   3.195   4.603  16.484  0.4933 -0.7502  1.9863
  854TIP3    H224054   3.168   4.739  16.543 -0.8050  0.8194 -1.9058
  855TIP3   OH224055   6.622   2.360   3.510  0.2147 -0.5753  0.1779
  855TIP3    H124056   6.680   2.419   3.558 -0.2559  0.1619 -0.1459
  855TIP3    H224057   6.533   2.389   3.532 -0.0149 -0.5703 -0.6924
  856TIP3   OH224058   2.000   1.011   5.811 -0.4067  0.0779  0.3547
  856TIP3    H124059   2.005   1.105   5.830 -0.0375  0.0458  0.4351
  856TIP3    H224060   1.962   0.972   5.890  0.0753  0.0805  0.5920
  857TIP3   OH224061   5.563   5.441   1.552  0.5249  0.3984  0.7215
  857TIP3    H124062   5.504   5.501   1.597  1.4122  0.2600  2.1399
  857TIP3    H224063   5.627   5.417   1.618  0.1775 -2.1618  0.2422
  858TIP3   OH224064   1.291   1.975  10.887 -0.0010 -0.1925  0.4331
  858TIP3    H124065   1.324   2.055  10.927 -0.4588 -0.3916  1.2415
  858TIP3    H224066   1.242   2.005  10.810  1.4759  0.1436 -0.3978
  859TIP3   OH224067   4.605   0.128   6.218 -0.2227 -0.0045 -0.4368
  859TIP3    H124068   4.626   0.219   6.239  1.3692 -0.3466 -0.3626
  859TIP3    H224069   4.512   0.119   6.235 -0.2227  1.3835  0.3843
  860TIP3   OH224070   3.783   2.694   2.065  0.2312  0.1101 -0.0709
  860TIP3    H124071   3.790   2.770   2.008  3.3722 -0.0383 -0.0401
  860TIP3    H224072   3.795   2.729   2.154 -0.2177 -0.2148  0.1261
  861TIP3   OH224073   5.682   0.769   4.995 -0.6231 -0.1760 -0.0919
  861TIP3    H124074   5.716   0.815   5.072  1.9742  0.1138 -1.2986
  861TIP3    H224075   5.705   0.825   4.921 -0.5633 -1.7195 -1.3036
  862TIP3   OH224076   1.207   5.556   1.384 -0.0683  0.2665  0.6016
  862TIP3    H124077   1.115   5.533   1.370 -0.1062  0.1854  0.9811
  862TIP3    H224078   1.223   5.629   1.323 -0.4966  0.5573  0.8319
  863TIP3   OH224079   6.748   5.033   0.984 -0.4511 -0.1772  0.5502
  863TIP3    H124080   6.816   5.098   0.966  0.2051 -0.5604  1.5542
  863TIP3    H224081   6.667   5.075   0.957 -0.0172  1.0124  1.0423
  864TIP3   OH224082   3.717   5.558   3.804  0.4616  0.2327  0.4431
  864TIP3    H124083   3.721   5.480   3.858  0.7884  0.5364  0.8600
  864TIP3    H224084   3.723   5.526   3.714  0.5132 -0.2243  0.6093
  865TIP3   OH224085   6.362   6.064  13.810  0.0711 -0.0230 -0.3116
  865TIP3    H124086   6.352   5.979  13.855  0.7227 -0.0721 -0.2485
  865TIP3    H224087   6.456   6.069  13.791 -0.0318  0.5099 -0.6671
  866TIP3   OH224088   5.377   6.280  16.126  0.1100  0.4262  0.1109
  866TIP3    H124089   5.439   6.318  16.064 -1.1849  1.1702 -0.7903
  866TIP3    H224090   5.344   6.201  16.082  0.0999  0.2687  0.3986
  867TIP3   OH224091   1.538   1.892  12.865  0.0589 -0.3083  0.2776
  867TIP3    H124092   1.547   1.803  12.831  1.8674 -0.4699  1.0712
  867TIP3    H224093   1.445   1.913  12.855 -0.4942 -2.4599  0.5397
  868TIP3   OH224094   0.050   6.834   2.514 -0.1359  0.5701  0.2933
  868TIP3    H124095   0.064   6.747   2.551  1.5443  1.2961  1.4694
  868TIP3    H224096  -0.042   6.854   2.534  0.3678  0.4629  3.1890
  869TIP3   OH224097   5.507   2.738   5.642  0.6867 -0.9335  0.2711
  869TIP3    H124098   5.418   2.750   5.609 -0.3020 -1.5871  2.5539
  869TIP3    H224099   5.539   2.660   5.596  0.7553  0.2425 -1.7882
  870TIP3   OH224100   0.444   1.152  12.726 -0.0101  0.2784  0.5158
  870TIP3    H124101   0.357   1.170  12.760  0.0416  0.9663  0.2915
  870TIP3    H224102   0.488   1.237  12.725 -0.1820  0.4110 -1.7258
  871TIP3   OH224103   3.469   2.503   1.365 -0.5487  0.3059 -0.6834
  871TIP3    H124104   3.447   2.448   1.290  2.8723  0.1078 -1.7235
  871TIP3    H224105   3.530   2.450   1.416 -2.9859  0.3139  2.5638
  872TIP3   OH224106   6.648   4.237   4.600  0.3845 -0.1197  0.0750
  872TIP3    H124107   6.726   4.281   4.566  0.6962 -1.4778 -1.0621
  872TIP3    H224108   6.660   4.145   4.577 -1.0856 -0.5282  0.7933
  873TIP3   OH224109   4.860   5.596  14.337 -0.0849 -0.1335 -0.3119
  873TIP3    H124110   4.810   5.572  14.258  1.3577 -2.3892 -0.6166
  873TIP3    H224111   4.946   5.620  14.304 -0.0411  0.7907  0.4466
  874TIP3   OH224112   2.179   3.368   1.561 -0.3694  0.2205  0.4381
  874TIP3    H124113   2.118   3.425   1.514 -1.8143 -1.9583 -0.5230
  874TIP3    H224114   2.248   3.349   1.497 -0.5797 -0.1235  0.3112
  875TIP3   OH224115   2.469   5.043   6.133 -0.1773 -0.0485  0.0941
  875TIP3    H124116   2.423   4.966   6.168  0.5623  0.2815  1.9048
  875TIP3    H224117   2.402   5.112   6.131 -0.0776  0.1312  1.6606
  876TIP3   OH224118   0.787   5.749  16.119  0.0369  0.2085 -0.6730
  876TIP3    H124119   0.870   5.780  16.155  0.3380  1.6805 -2.4942
  876TIP3    H224120   0.809   5.668  16.073  0.3570  0.3122 -0.7010
  877TIP3   OH224121   3.086   6.583  15.001  0.1547  0.3471 -0.5501
  877TIP3    H124122   3.083   6.547  14.912 -0.9960 -1.0404 -0.0023
  877TIP3    H224123   3.149   6.526  15.047  1.4033  1.5904 -0.6622
  878TIP3   OH224124   5.661   1.323  15.275 -0.4755  0.2369  0.6924
  878TIP3    H124125   5.600   1.367  15.335 -2.6614 -1.6021  0.0040
  878TIP3    H224126   5.695   1.250  15.327  0.8759  1.0262  0.9411
  879TIP3   OH224127   3.357   3.225   3.461  0.1464 -0.2745  0.1512
  879TIP3    H124128   3.345   3.251   3.369 -0.9691 -0.3897  0.2522
  879TIP3    H224129   3.378   3.307   3.506 -2.0117  0.3062  0.2397
  880TIP3   OH224130   2.809   0.443   5.198 -0.9265 -0.7550  0.3467
  880TIP3    H124131   2.885   0.385   5.203  1.2402  1.9168  0.8177
  880TIP3    H224132   2.831   0.516   5.256 -2.6117  1.4838 -1.6204
  881TIP3   OH224133   3.768   0.187  14.088 -0.1126  0.0330 -1.0460
  881TIP3    H124134   3.795   0.276  14.109 -0.1693 -0.2212  0.1885
  881TIP3    H224135   3.850   0.138  14.078 -0.0588 -0.3628  1.0068
  882TIP3   OH224136   0.077   1.457   2.674 -0.2282 -0.7444  0.5121
  882TIP3    H124137   0.080   1.468   2.769 -0.2739  0.4060  0.3932
  882TIP3    H224138   0.008   1.517   2.645  0.0999 -0.7380 -0.2854
  883TIP3   OH224139   3.672   0.876   4.117  0.3989  0.1325 -0.2033
  883TIP3    H124140   3.751   0.888   4.170 -0.3098  0.8374  0.7401
  883TIP3    H224141   3.600   0.901   4.175 -0.5913 -1.1978 -0.8049
  884TIP3   OH224142   2.229   5.435   6.439 -0.0351  0.1726 -0.1706
  884TIP3    H124143   2.211   5.355   6.490 -1.0546  2.1387  2.8271
  884TIP3    H224144   2.143   5.465   6.411  0.2595  0.6470 -0.5758
  885TIP3   OH224145   1.486   2.309  11.398 -0.6180  0.7446  0.7237
  885TIP3    H124146   1.475   2.225  11.354 -1.2091  0.7514  0.8517
  885TIP3    H224147   1.581   2.323  11.399 -0.3893 -0.5754  1.8996
  886TIP3   OH224148   4.990   5.303  16.402 -0.2058  0.3645  0.2731
  886TIP3    H124149   4.920   5.321  16.465 -1.1822 -0.9790 -0.3727
  886TIP3    H224150   4.945   5.279  16.321  1.0188  0.7831 -0.5768
  887TIP3   OH224151   6.677   0.513  13.307 -0.0338  0.2955  0.0304
  887TIP3    H124152   6.623   0.584  13.270  0.4268  1.3466  1.3134
  887TIP3    H224153   6.766   0.547  13.304  0.3113 -0.6100 -0.1499
  888TIP3   OH224154   2.968   4.204   4.480 -0.1721  0.1821  0.2666
  888TIP3    H124155   2.920   4.245   4.552  2.6492  2.7333  0.8917
  888TIP3    H224156   3.042   4.161   4.522  0.1453 -0.4892 -0.9309
  889TIP3   OH224157   0.431   5.535  15.465 -0.0259  0.3235  0.4833
  889TIP3    H124158   0.435   5.630  15.458 -0.7197  0.3396  0.2248
  889TIP3    H224159   0.389   5.519  15.550  0.5925  0.2371  0.7779
  890TIP3   OH224160   4.967   5.754  14.602 -0.5427 -0.2919 -0.3904
  890TIP3    H124161   4.961   5.702  14.682  0.1691 -0.6323 -0.5535
  890TIP3    H224162   4.942   5.694  14.532  0.5891 -0.5189 -0.6143
  891TIP3   OH224163   1.477   5.207   5.563  0.0832 -0.0798 -0.0384
  891TIP3    H124164   1.382   5.215   5.561 -0.2061 -2.4373  0.9999
  891TIP3    H224165   1.497   5.139   5.498  0.9321 -0.3603  0.4967
  892TIP3   OH224166   0.887   2.294  13.800  0.4022 -0.2634  0.6071
  892TIP3    H124167   0.900   2.379  13.758  0.3951 -0.6750 -0.2360
  892TIP3    H224168   0.804   2.262  13.766 -1.1448  0.6825  3.1565
  893TIP3   OH224169   0.389   2.285   3.417  0.4479 -0.5109  0.3937
  893TIP3    H124170   0.425   2.253   3.334 -0.3771  0.1780 -0.2433
  893TIP3    H224171   0.374   2.205   3.468  1.2331 -0.9246  0.0020
  894TIP3   OH224172   5.204   5.185  12.376  0.2310 -0.0992 -0.5399
  894TIP3    H124173   5.235   5.132  12.449 -0.8447 -1.2658 -0.8943
  894TIP3    H224174   5.189   5.271  12.413 -1.4264 -0.9626  0.9339
  895TIP3   OH224175   6.300   6.614   0.057  0.2651  0.2104 -0.2835
  895TIP3    H124176   6.301   6.530   0.012  0.5298  0.0055  0.0987
  895TIP3    H224177   6.392   6.640   0.061  0.3601 -0.2667  1.0429
  896TIP3   OH224178   1.991   6.809  16.363 -0.1206 -0.0257  0.0533
  896TIP3    H124179   2.010   6.735  16.421  1.3111 -0.0820 -0.4407
  896TIP3    H224180   2.077   6.840  16.335 -0.7580  0.4759 -1.4593
  897TIP3   OH224181   1.094   0.277  14.339 -0.4322 -0.3221 -0.5800
  897TIP3    H124182   1.011   0.241  14.307  0.0280 -0.3591 -1.7672
  897TIP3    H224183   1.068   0.341  14.406 -1.3953 -0.6784 -0.6001
  898TIP3   OH224184   0.266   6.715   0.260  0.5619  0.3157  0.3617
  898TIP3    H124185   0.360   6.728   0.270  0.6777 -0.5187  0.4448
  898TIP3    H224186   0.233   6.801   0.234  1.1273  1.0018  1.8052
  899TIP3   OH224187   4.449   5.578   3.183  0.7471  0.2604 -0.1233
  899TIP3    H124188   4.398   5.583   3.102  1.1195 -2.7603 -0.6894
  899TIP3    H224189   4.415   5.500   3.227  2.1609  0.4922  1.4758
  900TIP3   OH224190   3.947   0.485   2.908 -0.7809  0.3983  0.0394
  900TIP3    H124191   3.989   0.524   2.985 -1.6861  2.6877 -0.5354
  900TIP3    H224192   3.984   0.532   2.834  0.6911 -2.3330 -1.0881
  901TIP3   OH224193   2.889   2.264  15.304  0.4593 -0.0402 -0.2380
  901TIP3    H124194   2.936   2.198  15.253  0.4016 -0.4652  0.2447
  901TIP3    H224195   2.849   2.322  15.239  1.9109  0.5189 -0.6507
  902TIP3   OH224196   0.356   1.284  14.795 -0.4356 -0.3201 -0.1434
  902TIP3    H124197   0.319   1.195  14.796 -3.4505  0.7877 -1.0235
  902TIP3    H224198   0.399   1.291  14.710  3.2211 -2.0270  1.3538
  903TIP3   OH224199   2.208   4.515   0.129  0.5255  0.3361 -0.3046
  903TIP3    H124200   2.176   4.433   0.092  1.7898  0.3295 -1.4455
  903TIP3    H224201   2.292   4.492   0.169 -0.2097  0.6158  1.4735
  904TIP3   OH224202   0.377   0.601  14.647 -0.4719  0.4538 -0.4760
  904TIP3    H124203   0.375   0.587  14.552  0.9288  0.0071 -0.4683
  904TIP3    H224204   0.467   0.627  14.665 -0.3175 -0.8891  0.9201
  905TIP3   OH224205   2.197   6.146   5.241 -0.7626  0.6376  0.2279
  905TIP3    H124206   2.228   6.055   5.243  0.2980  0.9507 -0.8388
  905TIP3    H224207   2.114   6.143   5.287 -0.1919 -0.6593  1.2684
  906TIP3   OH224208   6.365   1.128  15.194  0.2265 -0.0274 -0.8197
  906TIP3    H124209   6.358   1.109  15.288 -1.0041  2.7604 -0.2417
  906TIP3    H224210   6.453   1.164  15.184 -0.1367  1.0214 -0.4059
  907TIP3   OH224211   3.406   4.741  11.965  0.0639 -0.4414  0.5781
  907TIP3    H124212   3.315   4.709  11.963  0.1012 -0.5383  0.4352
  907TIP3    H224213   3.434   4.738  11.874 -0.5634  1.7814  0.2415
  908TIP3   OH224214   2.302   0.926  16.527 -0.3329  0.7927  0.2807
  908TIP3    H124215   2.344   0.975  16.457  1.8016  0.7570  1.4730
  908TIP3    H224216   2.219   0.896  16.489 -1.1491  4.1413 -0.9254
  909TIP3   OH224217   6.655   0.736  14.322  0.5311  0.6702  0.4940
  909TIP3    H124218   6.654   0.781  14.237  1.0311  0.2256  0.2450
  909TIP3    H224219   6.719   0.785  14.374  2.7889 -0.9955 -0.5118
  910TIP3   OH224220   2.886   3.556   2.357  0.0843 -0.2746  0.2769
  910TIP3    H124221   2.959   3.581   2.414 -0.1614  1.0844  0.0417
  910TIP3    H224222   2.838   3.490   2.407  0.9424 -0.4908  0.8336
  911TIP3   OH224223   0.285   0.680   2.658 -0.0290 -0.4234 -0.1892
  911TIP3    H124224   0.297   0.773   2.636  1.2432 -0.6965 -0.7685
  911TIP3    H224225   0.283   0.636   2.573 -0.4596 -0.9588  0.0890
  912TIP3   OH224226   1.541   2.307   4.270 -0.5832 -0.8668  0.1499
  912TIP3    H124227   1.522   2.347   4.185 -1.5155 -2.1799 -0.2972
  912TIP3    H224228   1.460   2.260   4.292 -0.2949 -0.6897  1.6964
  913TIP3   OH224229   2.176   2.227   1.992 -0.0241 -0.0742  0.1095
  913TIP3    H124230   2.185   2.267   2.079 -0.8421  1.7096 -0.5639
  913TIP3    H224231   2.263   2.193   1.973  1.0355  2.2337  0.4101
  914TIP3   OH224232   5.759   6.615   1.363  0.3434  0.2295 -0.7541
  914TIP3    H124233   5.769   6.636   1.456  0.0881  0.6952 -0.8276
  914TIP3    H224234   5.804   6.532   1.352 -0.6715 -0.4459  0.0395
  915TIP3   OH224235   2.474   5.156   2.842 -0.0236 -0.3421  0.5356
  915TIP3    H124236   2.452   5.159   2.749 -0.5631 -0.7143  0.6454
  915TIP3    H224237   2.389   5.150   2.886  0.1901  0.4424  1.0791
  916TIP3   OH224238   4.940   5.850   5.410 -0.4098 -0.3648 -0.1745
  916TIP3    H124239   4.981   5.822   5.491 -2.6545 -2.5145  0.2990
  916TIP3    H224240   4.977   5.792   5.343 -1.8339 -1.6424  0.0969
  917TIP3   OH224241   6.709   5.186   4.079  0.3626  0.1686  0.3702
  917TIP3    H124242   6.635   5.225   4.125  0.7861  0.4624  0.8064
  917TIP3    H224243   6.741   5.255   4.022 -0.0523 -0.1405 -0.2552
  918TIP3   OH224244   1.197   1.570   3.719 -0.2080 -0.1845  0.0140
  918TIP3    H124245   1.166   1.534   3.636  1.4647 -1.2894 -0.1732
  918TIP3    H224246   1.144   1.527   3.785 -1.7052  0.8649 -0.4461
  919TIP3   OH224247   6.845   4.821   5.134  0.2219  0.0949  0.2602
  919TIP3    H124248   6.888   4.853   5.055  0.8308  0.3507  0.6899
  919TIP3    H224249   6.752   4.837   5.119  0.0998 -1.6443 -1.2234
  920TIP3   OH224250   4.603   5.779   5.914  0.0473 -0.2287  0.1232
  920TIP3    H124251   4.690   5.747   5.937  0.5561  0.6621 -0.5567
  920TIP3    H224252   4.561   5.796   5.998  0.5708 -0.5428  0.4513
  921TIP3   OH224253   1.471   2.066  10.179  0.4598  0.1567 -0.0880
  921TIP3    H124254   1.431   2.153  10.174 -0.6764 -0.3946 -0.8631
  921TIP3    H224255   1.399   2.007  10.199  1.4951 -0.4344  2.2261
  922TIP3   OH224256   2.043   1.010   1.395 -0.1164  0.3556 -0.3291
  922TIP3    H124257   1.984   1.043   1.326 -0.6059  0.1587 -0.0113
  922TIP3    H224258   2.024   1.065   1.471 -0.5600 -0.2951  0.0452
  923TIP3   OH224259   6.421   4.857   2.689  0.2414  0.1436 -0.3866
  923TIP3    H124260   6.427   4.948   2.660 -1.6734  0.9834  1.6385
  923TIP3    H224261   6.481   4.852   2.764  0.6206 -0.3931 -0.7162
  924TIP3   OH224262   1.332   3.947  14.097 -0.1195 -0.1991  0.4923
  924TIP3    H124263   1.408   3.897  14.128 -0.2440  0.0202  1.1637
  924TIP3    H224264   1.257   3.891  14.116 -0.0488 -1.0603 -1.4842
  925TIP3   OH224265   0.419   1.934  11.148  0.3318 -0.2622  0.4830
  925TIP3    H124266   0.481   1.864  11.131  0.3677 -0.3427  0.9225
  925TIP3    H224267   0.334   1.889  11.157 -0.1151  0.0129 -1.8583
  926TIP3   OH224268   5.051   2.478   4.937  0.6182  0.5774  0.3639
  926TIP3    H124269   5.021   2.500   4.849 -0.3470 -0.7251  0.3387
  926TIP3    H224270   4.979   2.506   4.994  0.4410 -0.2404  0.5520
  927TIP3   OH224271   4.718   6.616   2.771  0.4843 -0.1212 -0.3371
  927TIP3    H124272   4.715   6.584   2.681  0.9273  2.0833 -1.1915
  927TIP3    H224273   4.811   6.626   2.790  0.3575  0.7056 -0.1289
  928TIP3   OH224274   2.876   6.667  12.061  0.0079 -0.7893 -0.5190
  928TIP3    H124275   2.963   6.672  12.022  1.1338 -1.4279  1.7374
  928TIP3    H224276   2.826   6.735  12.017  2.6225  1.9241  0.3795
  929TIP3   OH224277   1.760   0.690  15.913  0.4028 -0.1763 -0.3471
  929TIP3    H124278   1.829   0.735  15.961 -1.6291  1.6645  1.0683
  929TIP3    H224279   1.722   0.630  15.977  0.6417 -1.1469 -1.0921
  930TIP3   OH224280   4.573   6.084  15.395 -0.1384  0.9418  0.5347
  930TIP3    H124281   4.479   6.099  15.389 -0.2942  0.1439  0.8788
  930TIP3    H224282   4.604   6.151  15.455 -0.7780  0.1251  1.8314
  931TIP3   OH224283   0.899   1.249   5.676 -0.3463 -0.0155  0.1769
  931TIP3    H124284   0.991   1.229   5.661 -0.0948 -0.6839  2.2502
  931TIP3    H224285   0.852   1.168   5.654 -0.5549  0.5371 -1.5382
  932TIP3   OH224286   2.233   3.201  12.172  0.1514 -0.5209  0.3457
  932TIP3    H124287   2.320   3.192  12.210 -0.0402 -1.2484  0.6204
  932TIP3    H224288   2.197   3.113  12.172  0.4665 -0.7280 -2.3435
  933TIP3   OH224289   1.419   0.935  13.447 -0.3434 -0.1549  0.1184
  933TIP3    H124290   1.349   0.942  13.512 -1.1203  0.4416 -0.7491
  933TIP3    H224291   1.405   1.010  13.389  1.2132  0.1551  0.0895
  934TIP3   OH224292   3.345   2.076  12.529 -0.1363 -0.3446 -0.6689
  934TIP3    H124293   3.260   2.120  12.526 -0.2543 -0.5892 -0.9825
  934TIP3    H224294   3.334   1.998  12.475  0.5785  0.1241 -1.5028
  935TIP3   OH224295   1.676   5.754   2.847 -0.4202 -0.0213  0.5037
  935TIP3    H124296   1.612   5.798   2.904 -1.9548 -0.8099 -0.5460
  935TIP3    H224297   1.661   5.793   2.761  1.1832  0.4347  0.4046
  936TIP3   OH224298   5.317   6.100  17.043 -0.3110  0.2320  0.3971
  936TIP3    H124299   5.337   6.088  16.950 -0.5047 -0.0836  0.3938
  936TIP3    H224300   5.376   6.169  17.072  0.0280  0.0545  0.1344
  937TIP3   OH224301   1.683   1.279   0.588  0.2911 -0.5461  0.1923
  937TIP3    H124302   1.767   1.245   0.557  0.4460  0.5219 -0.6103
  937TIP3    H224303   1.627   1.201   0.596  0.2218 -0.8982 -2.8460
  938TIP3   OH224304   6.284   1.557  16.524 -0.1387  0.5288 -0.9864
  938TIP3    H124305   6.220   1.624  16.501 -0.0804  0.2095 -2.1234
  938TIP3    H224306   6.332   1.594  16.598 -0.0212  1.8077 -1.6825
  939TIP3   OH224307   5.658   0.715   1.779 -0.3329 -0.0247 -0.2168
  939TIP3    H124308   5.604   0.740   1.854  1.3059  1.3901  0.5734
  939TIP3    H224309   5.658   0.792   1.722  1.4776  0.3603  0.2280
  940TIP3   OH224310   4.392   0.370   1.867  0.0967  0.3802 -0.5334
  940TIP3    H124311   4.317   0.323   1.831  0.7811 -0.6829 -0.6504
  940TIP3    H224312   4.389   0.456   1.826 -0.3812 -0.0605 -1.4485
  941TIP3   OH224313   4.817   4.101   2.511 -0.3784 -0.1516 -0.2016
  941TIP3    H124314   4.902   4.111   2.467 -0.0536 -0.0682  0.4307
  941TIP3    H224315   4.833   4.034   2.578 -0.3780  1.0015  0.9896
  942TIP3   OH224316   5.945   3.265   1.970  0.3120  0.3107  0.3857
  942TIP3    H124317   6.019   3.243   1.914 -0.8416 -1.9933 -0.3957
  942TIP3    H224318   5.896   3.331   1.921  1.7748  1.8407  0.9055
  943TIP3   OH224319   4.845   0.604   3.277 -0.7622  0.0081  0.2254
  943TIP3    H124320   4.872   0.680   3.225 -1.5662  0.1757  0.0461
  943TIP3    H224321   4.765   0.573   3.235  0.0995 -1.5948 -0.3428
  944TIP3   OH224322   0.085   3.808  15.895 -0.3679 -0.0700 -0.7262
  944TIP3    H124323   0.144   3.775  15.963 -1.3970  0.6807  0.5851
  944TIP3    H224324   0.127   3.888  15.863 -0.8915  0.7601  0.5853
  945TIP3   OH224325   1.094   1.144   1.084  0.4355 -0.4585  0.5403
  945TIP3    H124326   1.150   1.165   1.010  1.5611 -0.8693  1.2531
  945TIP3    H224327   1.111   1.051   1.102  1.0797 -0.0806  2.0361
  946TIP3   OH224328   5.963   2.293   0.920  0.2285 -0.2094  0.5915
  946TIP3    H124329   5.957   2.353   0.846 -1.1611 -0.0562  0.8071
  946TIP3    H224330   6.054   2.264   0.920  0.2417 -0.2343 -1.1889
  947TIP3   OH224331   2.981   5.642   3.217  0.0010  0.0862  0.6731
  947TIP3    H124332   2.977   5.582   3.292 -0.5578  0.1892  0.7328
  947TIP3    H224333   2.892   5.678   3.211  0.8670  2.7189  2.0900
  948TIP3   OH224334   5.673   0.554  13.591 -0.0704 -0.0071  0.1173
  948TIP3    H124335   5.663   0.468  13.549  0.0290 -0.4025  0.8761
  948TIP3    H224336   5.700   0.612  13.520 -0.3900 -0.5486 -0.4622
  949TIP3   OH224337   2.067   5.375  12.811 -0.4423  0.4202 -0.0846
  949TIP3    H124338   2.138   5.396  12.871 -1.3753 -0.3135  1.3536
  949TIP3    H224339   2.073   5.441  12.742  0.9686  1.0051  0.5587
  950TIP3   OH224340   3.029   1.423  17.089  0.0423  0.2321 -0.3196
  950TIP3    H124341   2.957   1.387  17.140  0.3553  0.1593  0.0709
  950TIP3    H224342   3.045   1.357  17.021 -0.7730  0.6098 -0.8897
  951TIP3   OH224343   6.131   6.424  14.216  0.3850 -0.4195  0.3202
  951TIP3    H124344   6.102   6.345  14.170  1.5153 -0.0795 -1.0633
  951TIP3    H224345   6.082   6.495  14.176  0.3696 -0.2619  0.6126
  952TIP3   OH224346   0.431   1.380  10.578  0.2899  0.4644  0.5526
  952TIP3    H124347   0.422   1.288  10.551  1.5068  0.4355  0.1574
  952TIP3    H224348   0.494   1.416  10.516  0.6826  1.2682  1.4057
  953TIP3   OH224349   0.308   4.051   1.571  0.4749 -0.1169  0.0361
  953TIP3    H124350   0.401   4.035   1.556  0.3462 -1.1626  0.2817
  953TIP3    H224351   0.302   4.069   1.665  0.3470 -0.7581  0.1568
  954TIP3   OH224352   4.592   2.748  13.183 -0.2672 -0.3182  0.1999
  954TIP3    H124353   4.509   2.714  13.149 -0.2618 -1.4094  1.1812
  954TIP3    H224354   4.656   2.724  13.117 -0.8478  1.5138 -1.1047
  955TIP3   OH224355   5.047   6.637  14.805 -0.1504  0.6138 -0.2098
  955TIP3    H124356   5.005   6.563  14.849  0.4315  0.1642 -0.3867
  955TIP3    H224357   5.014   6.633  14.715  0.2054  0.2992 -0.3321
  956TIP3   OH224358   1.005   6.520   2.145  0.3133 -0.2192 -0.0682
  956TIP3    H124359   0.957   6.453   2.193 -0.1123 -0.8573 -1.3424
  956TIP3    H224360   0.948   6.597   2.148  0.4211 -0.1540  0.6631
  957TIP3   OH224361   5.853   4.099  11.430 -0.1000 -0.5960 -0.0633
  957TIP3    H124362   5.877   4.100  11.522  0.7957  3.6362 -0.1287
  957TIP3    H224363   5.763   4.068  11.428 -0.2486 -0.4260  2.2683
  958TIP3   OH224364   6.030   5.892  11.331 -0.0213 -0.1610 -0.1300
  958TIP3    H124365   6.118   5.901  11.296  1.1819 -0.3354  2.5821
  958TIP3    H224366   5.990   5.822  11.279  2.2143 -1.5457 -0.0936
  959TIP3   OH224367   4.639   4.925  16.151  0.7275 -0.2991 -0.1768
  959TIP3    H124368   4.564   4.925  16.210 -0.8969  0.1409 -2.1162
  959TIP3    H224369   4.606   4.967  16.071  2.5754 -1.5353 -1.6678
  960TIP3   OH224370   6.799   6.516  15.556  0.1397  0.0647 -0.6192
  960TIP3    H124371   6.734   6.445  15.550  0.4173 -0.2944  0.4142
  960TIP3    H224372   6.787   6.552  15.644 -0.7661  2.0769 -1.5265
  961TIP3   OH224373   0.688   6.134   3.792 -0.0285  0.1355 -0.1558
  961TIP3    H124374   0.755   6.202   3.804  0.4559 -0.7654  3.1323
  961TIP3    H224375   0.605   6.182   3.798  0.2687  0.8195 -1.1121
  962TIP3   OH224376   0.367   4.378  12.731  0.0308  0.1934  0.1977
  962TIP3    H124377   0.384   4.471  12.751 -1.5171  0.4615  0.3495
  962TIP3    H224378   0.410   4.365  12.646  1.0846  0.7758  0.6139
  963TIP3   OH224379   0.528   5.011   1.033  0.4419  0.1131 -0.6271
  963TIP3    H124380   0.600   5.074   1.040  0.6407 -0.1067 -0.7131
  963TIP3    H224381   0.449   5.066   1.030  0.6868  0.4258 -1.9984
  964TIP3   OH224382   4.442   1.539   3.132  0.5518 -0.2445  0.0838
  964TIP3    H124383   4.391   1.619   3.119 -0.1462 -0.5012  1.1250
  964TIP3    H224384   4.447   1.530   3.227  0.2083 -1.6972 -0.0254
  965TIP3   OH224385   4.113   1.241  16.109  0.0406 -0.0409 -0.4421
  965TIP3    H124386   4.099   1.211  16.018 -0.1118  0.6596 -0.6514
  965TIP3    H224387   4.206   1.263  16.113  0.0106  0.0932 -0.4787
  966TIP3   OH224388   6.362   5.052   1.714  0.2344 -0.0223 -0.3337
  966TIP3    H124389   6.281   5.014   1.680  2.2205 -2.1692 -3.2203
  966TIP3    H224390   6.418   4.976   1.730  2.0873  1.4351  0.3669
  967TIP3   OH224391   4.454   0.123   2.000  0.5548 -0.5413 -0.1095
  967TIP3    H124392   4.422   0.202   1.958 -0.0196 -0.6256  0.1677
  967TIP3    H224393   4.422   0.052   1.944  2.2014 -0.5505 -1.1314
  968TIP3   OH224394   5.242   2.278   3.015 -0.4081  0.2439 -0.0198
  968TIP3    H124395   5.181   2.204   3.015  0.1000 -0.1921  0.3304
  968TIP3    H224396   5.306   2.255   3.083  0.4692  0.4064 -0.7667
  969TIP3   OH224397   1.898   0.146   5.143  0.2906 -0.2741  0.1514
  969TIP3    H124398   1.896   0.238   5.168 -0.9549  0.2586 -1.6945
  969TIP3    H224399   1.837   0.103   5.203  0.8128  0.0834  0.9615
  970TIP3   OH224400   4.363   0.467  16.015 -0.4689 -0.3963  0.2822
  970TIP3    H124401   4.342   0.561  16.016  0.3837 -0.1893 -0.2183
  970TIP3    H224402   4.278   0.423  16.017 -0.9251  0.3947 -0.8678
  971TIP3   OH224403   0.564   5.560   2.204  0.0343  0.1848  0.4938
  971TIP3    H124404   0.488   5.510   2.175 -0.3084  0.2225  1.2859
  971TIP3    H224405   0.636   5.498   2.203  0.1658  0.3305 -0.9615
  972TIP3   OH224406   4.732   4.727   6.071 -0.4663 -0.1393 -0.4363
  972TIP3    H124407   4.669   4.725   5.999  0.5586 -2.2901 -1.3478
  972TIP3    H224408   4.812   4.763   6.032 -0.0116 -0.9793 -0.3007
  973TIP3   OH224409   1.923   0.036   6.091  0.4077 -0.7406 -0.2164
  973TIP3    H124410   1.877   0.108   6.132 -0.0081 -1.2310  0.1974
  973TIP3    H224411   1.945  -0.023   6.164  0.5036 -1.1594 -0.5770
  974TIP3   OH224412   2.241   0.409   3.350 -0.2384 -0.1822 -0.2341
  974TIP3    H124413   2.289   0.430   3.431 -1.0434  1.7921 -0.2149
  974TIP3    H224414   2.298   0.440   3.280  1.4097 -3.7418 -0.6455
  975TIP3   OH224415   0.624   5.797  14.498  0.0871 -0.0960 -0.4805
  975TIP3    H124416   0.682   5.757  14.562 -1.5225 -0.9139  0.5392
  975TIP3    H224417   0.626   5.737  14.423 -0.6689 -1.0244  0.2061
  976TIP3   OH224418   0.733   3.657   4.027 -0.1835 -0.5957  0.8580
  976TIP3    H124419   0.776   3.591   3.972 -0.1051  0.0142  0.1716
  976TIP3    H224420   0.792   3.667   4.102  0.1851 -0.7704  0.5972
  977TIP3   OH224421   2.245   4.925   3.732  0.0511 -0.4019 -0.5940
  977TIP3    H124422   2.164   4.942   3.782  0.9439  1.1067  0.4345
  977TIP3    H224423   2.299   4.873   3.791  1.1749  1.5191  0.1974
  978TIP3   OH224424   6.577   5.876   0.544  1.1765  0.1152 -0.0691
  978TIP3    H124425   6.565   5.968   0.519  1.7210 -0.4898 -2.8899
  978TIP3    H224426   6.668   5.857   0.521 -0.0992 -2.2793 -4.0905
  979TIP3   OH224427   5.303   4.918  12.062 -0.0681 -0.0224 -0.0201
  979TIP3    H124428   5.331   4.960  12.143 -0.4512  0.2798 -0.0404
  979TIP3    H224429   5.305   4.824  12.081 -1.8050  0.0957  0.9017
  980TIP3   OH224430   1.489   1.171  14.068  0.1759 -0.1624 -0.6032
  980TIP3    H124431   1.406   1.128  14.088  0.1013 -0.0960 -0.7701
  980TIP3    H224432   1.466   1.262  14.051  0.2937 -0.1252 -0.5657
  981TIP3   OH224433   0.721   0.271   2.054  0.0812  0.5997 -0.1824
  981TIP3    H124434   0.671   0.239   1.979 -0.5302  0.6563  0.1948
  981TIP3    H224435   0.761   0.352   2.023  1.2082 -0.2235 -0.9751
  982TIP3   OH224436   0.782   2.402  16.148  0.6769 -0.4414  0.1891
  982TIP3    H124437   0.712   2.460  16.119  0.4511 -0.1134  1.3415
  982TIP3    H224438   0.834   2.385  16.069 -1.2221 -1.4505 -0.9214
  983TIP3   OH224439   0.422   4.077   0.586  0.1509  0.0915  0.2142
  983TIP3    H124440   0.438   4.160   0.540  2.4165 -0.4457 -0.1284
  983TIP3    H224441   0.394   4.017   0.516 -2.0531  0.6451  0.5533
  984TIP3   OH224442   0.160   4.258   5.666  0.7217 -0.0019 -0.1128
  984TIP3    H124443   0.132   4.294   5.581  0.8376  0.8864  0.2138
  984TIP3    H224444   0.183   4.168   5.647 -0.4578 -0.1879 -0.7917
  985TIP3   OH224445   2.082   6.135   1.377 -0.6735 -0.0273 -0.2780
  985TIP3    H124446   2.039   6.062   1.421  1.0306 -0.5806  0.5816
  985TIP3    H224447   2.072   6.208   1.437 -1.3102  0.1298 -0.5689
  986TIP3   OH224448   2.065   1.234  12.937  0.1157  0.5736 -0.1011
  986TIP3    H124449   1.981   1.189  12.936  0.6440 -0.4404 -0.0712
  986TIP3    H224450   2.104   1.210  13.020  0.7955  0.3395 -0.4819
  987TIP3   OH224451   2.247   6.344   5.669  0.2526 -0.2135  0.0573
  987TIP3    H124452   2.269   6.260   5.629  1.4286  0.5460 -0.9562
  987TIP3    H224453   2.283   6.338   5.758  0.3107 -0.7838  0.0019
  988TIP3   OH224454   0.903   4.393   3.941 -0.1891 -0.2611  0.0834
  988TIP3    H124455   0.880   4.458   4.008  0.4651  0.1076 -0.0330
  988TIP3    H224456   0.957   4.441   3.879  0.8999 -1.0731  0.3625
  989TIP3   OH224457   5.428   6.354   0.862  0.2255  0.0810  0.3830
  989TIP3    H124458   5.475   6.298   0.924 -1.3897 -2.8029 -0.7742
  989TIP3    H224459   5.494   6.382   0.799  0.9586 -1.3841  0.4697
  990TIP3   OH224460   1.474   4.179   5.505  0.1092  0.7103 -0.0187
  990TIP3    H124461   1.431   4.182   5.419 -0.6001  1.2750  0.3485
  990TIP3    H224462   1.414   4.224   5.564 -0.1108 -0.9445  1.0898
  991TIP3   OH224463   6.509   4.426   5.571  0.7588  0.2858 -0.0170
  991TIP3    H124464   6.445   4.497   5.581 -0.5399 -0.9694  1.0688
  991TIP3    H224465   6.490   4.390   5.484 -0.5279 -0.5202  0.5719
  992TIP3   OH224466   1.144   5.825  12.404 -0.0761  0.4137 -0.0380
  992TIP3    H124467   1.049   5.814  12.405 -0.0558  0.2589  0.3849
  992TIP3    H224468   1.177   5.758  12.465  0.3615 -0.0716 -0.7882
  993TIP3   OH224469   1.741   4.745  10.705 -0.1824 -0.1849 -0.0858
  993TIP3    H124470   1.828   4.758  10.741 -0.0831  0.5677 -0.5696
  993TIP3    H224471   1.701   4.832  10.704 -0.6540 -0.3933 -0.5780
  994TIP3   OH224472   2.266   2.018  15.781  0.5632  0.2955 -0.5989
  994TIP3    H124473   2.329   2.044  15.714  1.0736 -1.7980 -1.0259
  994TIP3    H224474   2.319   2.007  15.860  0.4860 -0.0517 -0.5932
  995TIP3   OH224475   5.695   6.313  11.038 -0.6944 -0.1398  0.0951
  995TIP3    H124476   5.683   6.232  10.989 -1.2621  0.0320 -0.0542
  995TIP3    H224477   5.712   6.380  10.971 -1.5856  0.1160  0.1112
  996TIP3   OH224478   5.836   4.518   4.923 -0.3375  0.1714 -0.0488
  996TIP3    H124479   5.831   4.606   4.962 -3.0784 -0.3273  0.9305
  996TIP3    H224480   5.783   4.463   4.981  1.0153 -2.0960 -0.8432
  997TIP3   OH224481   4.734   5.094   3.681 -0.3763  0.0463 -0.7784
  997TIP3    H124482   4.763   5.185   3.669 -2.1235  0.5301 -1.7601
  997TIP3    H224483   4.814   5.046   3.704  0.4491  1.9515  0.5763
  998TIP3   OH224484   2.222   0.256  11.215  0.6876  0.0575 -0.1324
  998TIP3    H124485   2.289   0.216  11.159  0.4440 -1.3635  0.5420
  998TIP3    H224486   2.140   0.243  11.168  0.8158  1.4809 -0.7913
  999TIP3   OH224487   1.668   0.297   5.604 -0.1760  0.2650 -0.2158
  999TIP3    H124488   1.690   0.387   5.581 -0.0008  0.8088  1.8525
  999TIP3    H224489   1.575   0.299   5.627  0.5342  0.7690  3.1445
 1000TIP3   OH224490   3.261   0.821  15.910  0.2321  0.0915 -0.2990
 1000TIP3    H124491   3.208   0.743  15.924  0.3753  0.0391 -0.0457
 1000TIP3    H224492   3.351   0.793  15.926  0.0991  0.8638  2.2849
 1001TIP3   OH224493   6.799   6.531  12.259 -0.2004 -0.4295 -0.3136
 1001TIP3    H124494   6.757   6.615  12.280 -0.8227 -0.8131 -0.0065
 1001TIP3    H224495   6.779   6.475  12.333  2.7073 -0.0098  0.9102
 1002TIP3   OH224496   6.425   5.050   5.123  0.3717  0.3122  0.1002
 1002TIP3    H124497   6.485   5.095   5.182  0.3735  0.3282  0.0862
 1002TIP3    H224498   6.380   5.121   5.077  1.6037  0.2986 -1.1862
 1003TIP3   OH224499   1.379   2.933  12.659  0.7366 -0.3891 -0.0610
 1003TIP3    H124500   1.338   2.992  12.722  0.7048  0.7980 -1.1543
 1003TIP3    H224501   1.448   2.889  12.708 -0.4631 -0.8655  1.2623
 1004TIP3   OH224502   5.824   6.170  16.588  0.4255 -0.0753  0.0768
 1004TIP3    H124503   5.901   6.221  16.562 -1.9039  3.9472  0.1938
 1004TIP3    H224504   5.764   6.176  16.513  0.5503 -4.3161 -0.5882
 1005TIP3   OH224505   0.222   4.239   3.234  0.2305  0.6438 -0.9006
 1005TIP3    H124506   0.208   4.222   3.141  0.3639 -1.5328 -0.5698
 1005TIP3    H224507   0.316   4.230   3.246  0.2916  1.5169 -0.6370
 1006TIP3   OH224508   0.436   6.039   1.289  0.0501  0.3733  0.3712
 1006TIP3    H124509   0.487   6.078   1.218 -1.6074  0.6730 -0.7145
 1006TIP3    H224510   0.461   6.088   1.367  1.6445  0.2733 -0.0463
 1007TIP3   OH224511   0.677   1.079   1.431 -0.4973 -0.0538 -0.8611
 1007TIP3    H124512   0.757   1.108   1.387 -0.8020  1.7200 -0.3377
 1007TIP3    H224513   0.609   1.136   1.395 -1.4981 -1.3793 -1.1272
 1008TIP3   OH224514   3.730   1.890  12.948  0.0827  0.1167  0.4038
 1008TIP3    H124515   3.695   1.958  13.006  0.7669  0.9521 -0.1375
 1008TIP3    H224516   3.785   1.937  12.886  1.1050 -0.9969  0.4080
 1009TIP3   OH224517   5.179   3.920   3.501  0.3332  0.1519  0.6184
 1009TIP3    H124518   5.237   3.968   3.442 -1.0434  1.6566  0.4121
 1009TIP3    H224519   5.146   3.987   3.561  1.2976 -1.2544  2.7994
 1010TIP3   OH224520   2.074   4.641  14.620  0.0335  0.0139 -0.3506
 1010TIP3    H124521   2.143   4.668  14.681 -0.4514  1.4637 -0.4123
 1010TIP3    H224522   2.002   4.613  14.676  0.1332 -0.0999 -0.2782
 1011TIP3   OH224523   2.094   6.286  16.735 -0.7351 -0.0006 -0.4107
 1011TIP3    H124524   2.079   6.346  16.808 -0.5218 -1.0013  0.4960
 1011TIP3    H224525   2.007   6.250  16.715 -0.6280 -0.6370  0.1987
 1012TIP3   OH224526   6.123   6.483  11.142  0.2534  0.1550  0.3516
 1012TIP3    H124527   6.133   6.577  11.158 -2.1522  0.3113  1.5019
 1012TIP3    H224528   6.112   6.476  11.048 -1.3912  1.3241  0.3981
 1013TIP3   OH224529   1.924   1.533   4.651  0.1992  0.6418 -0.2309
 1013TIP3    H124530   1.911   1.528   4.745 -0.0829  1.5362 -0.2044
 1013TIP3    H224531   1.964   1.619   4.637  1.0162  0.1707 -0.8496
 1014TIP3   OH224532   4.255   1.248  14.668 -0.0864  0.1110 -0.0807
 1014TIP3    H124533   4.234   1.300  14.746 -3.4943 -0.8208 -0.2478
 1014TIP3    H224534   4.222   1.299  14.595  1.0886 -0.0452 -0.7402
 1015TIP3   OH224535   0.153   6.456  16.931  0.4765  0.2281 -0.0626
 1015TIP3    H124536   0.159   6.369  16.892  1.1006  0.7550 -1.2043
 1015TIP3    H224537   0.062   6.465  16.957  0.1942 -0.4188 -0.8015
 1016TIP3   OH224538   6.151   3.274  16.810  0.2563 -0.3622  0.3038
 1016TIP3    H124539   6.149   3.252  16.717  0.9042 -0.1909  0.2403
 1016TIP3    H224540   6.244   3.289  16.829  0.1444 -0.4942  1.0020
 1017TIP3   OH224541   6.499   5.894   4.914  0.1774 -0.3229 -0.8277
 1017TIP3    H124542   6.466   5.890   4.825 -0.9589  0.2445 -0.4505
 1017TIP3    H224543   6.458   5.819   4.958  1.5460 -1.2170 -1.0228
 1018TIP3   OH224544   4.528   3.509   6.005  0.1732  0.1106 -0.0752
 1018TIP3    H124545   4.565   3.445   6.065  0.1941 -0.2459 -0.4668
 1018TIP3    H224546   4.603   3.564   5.980 -0.0141  0.9151  1.0101
 1019TIP3   OH224547   2.257   3.065   1.154  0.0560  0.3882  0.2826
 1019TIP3    H124548   2.342   3.087   1.193  1.4010 -0.7823 -1.7854
 1019TIP3    H224549   2.251   3.122   1.077 -1.2221  0.6996  0.5949
 1020TIP3   OH224550   2.280   4.600  14.823  0.0741  0.4045 -0.1761
 1020TIP3    H124551   2.306   4.545  14.897  1.5788  1.6905  0.2966
 1020TIP3    H224552   2.362   4.624  14.780 -0.7447  0.0043 -2.0669
 1021TIP3   OH224553   5.157   4.939   3.496  0.2592 -0.2213 -0.2446
 1021TIP3    H124554   5.075   4.896   3.474 -1.7257  2.5684  1.0772
 1021TIP3    H224555   5.225   4.884   3.456 -2.2414 -2.3086 -1.9298
 1022TIP3   OH224556   1.386   0.264  14.765  0.1568 -0.0370 -0.1911
 1022TIP3    H124557   1.348   0.331  14.822  1.6446 -0.1901  1.0273
 1022TIP3    H224558   1.463   0.306  14.726 -1.0130  0.1820 -2.4317
 1023TIP3   OH224559   0.532   0.410   2.224 -0.3539  0.0446 -0.2215
 1023TIP3    H124560   0.516   0.372   2.310  0.2149  0.8317  0.2388
 1023TIP3    H224561   0.591   0.348   2.182  0.8065  0.5259  0.6393
 1024TIP3   OH224562   1.784   3.484   5.479  0.0177  0.3190 -0.2845
 1024TIP3    H124563   1.721   3.420   5.513  0.3079  0.5504  0.7256
 1024TIP3    H224564   1.739   3.523   5.404 -1.3840  1.0169  0.8515
 1025TIP3   OH224565   5.851   3.106   5.870  0.3173 -0.2585  0.4440
 1025TIP3    H124566   5.784   3.106   5.938  0.5256  0.9528  0.6694
 1025TIP3    H224567   5.826   3.034   5.812  0.0493 -1.2268  1.6998
 1026TIP3   OH224568   1.408   6.333  16.011 -0.2139 -0.0497  1.1601
 1026TIP3    H124569   1.468   6.258  16.016 -1.8623 -1.5320  0.1093
 1026TIP3    H224570   1.438   6.394  16.078  1.8958 -1.1317  1.2555
 1027TIP3   OH224571   2.157   0.343   1.266  0.4868 -0.1692  0.1406
 1027TIP3    H124572   2.234   0.335   1.322 -0.5813  1.9864  2.1639
 1027TIP3    H224573   2.107   0.263   1.283  0.1654  0.4419  2.4620
 1028TIP3   OH224574   2.070   4.927  13.005 -0.8539  0.1758  0.2183
 1028TIP3    H124575   1.988   4.970  13.031 -0.4487  1.6660 -0.8667
 1028TIP3    H224576   2.120   4.920  13.087 -1.5791  0.3412  0.6835
 1029TIP3   OH224577   1.425   2.448   4.016 -0.8597 -0.5687 -0.7899
 1029TIP3    H124578   1.487   2.419   3.950  2.0871  0.2841  1.3805
 1029TIP3    H224579   1.425   2.544   4.010 -2.0165 -0.5447 -0.7484
 1030TIP3   OH224580   1.692   3.001  16.209 -0.1732  0.9645  0.0280
 1030TIP3    H124581   1.682   3.004  16.305  0.4296  1.6320  0.0801
 1030TIP3    H224582   1.654   2.917  16.184 -3.0174  1.9792  0.5242
 1031TIP3   OH224583   5.925   5.586   4.235 -0.8514 -0.0912 -0.0318
 1031TIP3    H124584   5.900   5.596   4.327 -1.3059  1.8235 -0.3204
 1031TIP3    H224585   5.841   5.580   4.188 -0.6245 -0.9540 -0.3280
 1032TIP3   OH224586   4.614   1.848  10.683 -0.0964  0.0481  0.1066
 1032TIP3    H124587   4.531   1.814  10.650  0.1125  1.3210 -1.9482
 1032TIP3    H224588   4.674   1.773  10.680 -0.7958 -0.5320  0.2688
 1033TIP3   OH224589   0.184   5.207   3.798  0.5067  0.6730  0.2231
 1033TIP3    H124590   0.228   5.157   3.867 -1.5978 -0.5826  0.7408
 1033TIP3    H224591   0.238   5.193   3.720  0.8513 -1.1174  0.7322
 1034TIP3   OH224592   2.506   5.989  14.722  0.2419 -0.1958 -0.4165
 1034TIP3    H124593   2.567   5.917  14.707  1.4809  0.5797  0.6212
 1034TIP3    H224594   2.428   5.947  14.757  0.8380 -1.0703 -0.0855
 1035TIP3   OH224595   6.140   5.164   2.357  0.3154 -0.1988  0.5730
 1035TIP3    H124596   6.121   5.146   2.450 -2.0212  2.8308  0.8506
 1035TIP3    H224597   6.058   5.144   2.312  0.0809  2.0555 -0.1428
 1036TIP3   OH224598   5.214   4.971   5.957 -0.4678  0.0663  0.4223
 1036TIP3    H124599   5.221   5.000   6.048  0.1880 -2.3430  1.2317
 1036TIP3    H224600   5.240   4.878   5.960 -0.5893 -0.1210 -2.2009
 1037TIP3   OH224601   3.666   6.803  14.142  0.5012  0.1123 -0.3758
 1037TIP3    H124602   3.693   6.894  14.130 -1.3480  1.1511  2.3844
 1037TIP3    H224603   3.600   6.806  14.212 -0.9956 -3.1357 -1.4346
 1038TIP3   OH224604   2.424   3.528   2.690 -0.5669  0.0569 -0.6046
 1038TIP3    H124605   2.336   3.565   2.699 -0.5162 -0.0926  0.8873
 1038TIP3    H224606   2.475   3.572   2.759  0.2840 -0.5372 -0.8373
 1039TIP3   OH224607   0.413   1.708   3.421 -0.3806  0.3554  0.0334
 1039TIP3    H124608   0.486   1.646   3.414  0.2864  0.8772  1.7920
 1039TIP3    H224609   0.359   1.673   3.492 -0.3678  1.4243  0.5802
 1040TIP3   OH224610   3.035   2.467   1.346  0.0550  0.1309  0.4863
 1040TIP3    H124611   3.046   2.384   1.300  0.9705  0.6432 -0.2567
 1040TIP3    H224612   3.082   2.455   1.429  1.1241  0.2438 -0.0785
 1041TIP3   OH224613   1.491   6.743   0.251  0.3080  0.3003 -0.0803
 1041TIP3    H124614   1.564   6.758   0.190  0.1637  1.6668  0.0514
 1041TIP3    H224615   1.413   6.763   0.200  0.1936  1.6756  0.5647
 1042TIP3   OH224616   3.394   1.693  15.386  0.0374  0.1786  0.4671
 1042TIP3    H124617   3.399   1.705  15.481 -0.6815 -1.9086  0.8194
 1042TIP3    H224618   3.385   1.599  15.374 -0.9854  0.4854 -1.6414
 1043TIP3   OH224619   3.648   5.993   0.093 -0.5826  0.3290 -0.6676
 1043TIP3    H124620   3.620   5.913   0.049 -0.2344  0.4549 -1.1216
 1043TIP3    H224621   3.618   6.063   0.037 -1.4353  0.5506  0.0406
 1044TIP3   OH224622   1.119   1.392   6.119 -0.4894  0.0809  0.0333
 1044TIP3    H124623   1.182   1.325   6.092 -0.8169 -0.2493  0.0740
 1044TIP3    H224624   1.061   1.401   6.044  0.7487  1.8064 -0.7776
 1045TIP3   OH224625   5.427   4.654   2.563  0.6682 -0.1469 -0.3004
 1045TIP3    H124626   5.399   4.697   2.643 -1.6240  0.2998 -1.2576
 1045TIP3    H224627   5.517   4.683   2.550  0.7585  0.5312  1.5834
 1046TIP3   OH224628   5.422   1.017  14.046 -0.4355  0.5438  0.7890
 1046TIP3    H124629   5.480   0.987  14.115 -1.6430  1.6972  2.3896
 1046TIP3    H224630   5.334   0.999  14.078 -1.0377  1.2412 -0.3816
 1047TIP3   OH224631   6.168   3.218   3.852  0.0507 -0.2654 -0.2999
 1047TIP3    H124632   6.206   3.283   3.793 -0.4978 -0.8671 -1.3384
 1047TIP3    H224633   6.079   3.250   3.869 -0.6842 -1.3646 -1.8584
 1048TIP3   OH224634   2.372   1.458  12.513 -0.1629 -0.4713  0.1874
 1048TIP3    H124635   2.302   1.490  12.570  1.0218 -0.0417  1.4586
 1048TIP3    H224636   2.359   1.505  12.431 -1.9487 -1.1615  0.0301
 1049TIP3   OH224637   0.290   5.397  11.496  0.2516  0.5982 -0.2382
 1049TIP3    H124638   0.263   5.348  11.574  0.2502  0.4468 -0.3334
 1049TIP3    H224639   0.306   5.329  11.430  3.1502  0.4613  0.4697
 1050TIP3   OH224640   0.310   5.370   1.486  0.1602 -0.6724  0.1657
 1050TIP3    H124641   0.329   5.461   1.462 -0.3662 -0.4389  0.6341
 1050TIP3    H224642   0.318   5.322   1.403  0.0767 -0.1455 -0.1551
 1051TIP3   OH224643   4.042   4.892   4.139  0.1856 -0.2149  0.3677
 1051TIP3    H124644   4.038   4.861   4.229  0.5595 -0.9482  0.1335
 1051TIP3    H224645   4.099   4.969   4.142  1.3951 -1.0946  0.5258
 1052TIP3   OH224646   3.508   4.629   2.056  0.1027 -0.2092 -0.5501
 1052TIP3    H124647   3.425   4.624   2.105 -0.8934  1.1879 -2.0074
 1052TIP3    H224648   3.528   4.722   2.052  2.4675 -0.5696  0.8095
 1053TIP3   OH224649   0.058   4.504   1.415  0.8563  0.0701 -0.8760
 1053TIP3    H124650   0.086   4.540   1.499 -1.1154 -0.4498  0.0507
 1053TIP3    H224651   0.074   4.410   1.423 -1.4426 -0.3087 -0.1420
 1054TIP3   OH224652   6.825   6.071  11.677  0.8568  0.4726  0.3031
 1054TIP3    H124653   6.818   6.066  11.773 -0.7558  0.6725  0.2295
 1054TIP3    H224654   6.896   6.134  11.662 -0.7451  2.6843  1.4268
 1055TIP3   OH224655   0.197   1.519   2.917  0.6197 -0.0840 -0.5130
 1055TIP3    H124656   0.223   1.454   2.852 -0.4558 -1.0741  0.0087
 1055TIP3    H224657   0.274   1.575   2.928  0.8420  0.0799 -2.5810
 1056TIP3   OH224658   1.872   3.253   3.058 -0.7901  0.0748 -0.5010
 1056TIP3    H124659   1.965   3.275   3.056 -0.4831 -1.1335 -0.3756
 1056TIP3    H224660   1.841   3.269   2.969  0.5501 -3.4427 -1.7676
 1057TIP3   OH224661   3.835   3.712  15.333 -0.7798  0.0428  0.2197
 1057TIP3    H124662   3.925   3.742  15.347 -1.6106  2.5489  0.8450
 1057TIP3    H224663   3.838   3.617  15.345  1.2664  0.3561  3.3381
 1058TIP3   OH224664   4.496   5.424   1.303 -0.0336  0.3560  0.3335
 1058TIP3    H124665   4.475   5.429   1.396  0.9127  0.2456  0.5622
 1058TIP3    H224666   4.588   5.452   1.297 -0.2030  0.7556 -0.6163
 1059TIP3   OH224667   0.065   3.163   4.009  0.5283  0.0021  0.7176
 1059TIP3    H124668   0.159   3.180   4.017  0.5950 -0.3540  0.6742
 1059TIP3    H224669   0.032   3.165   4.099  0.4202  1.0083  0.6736
 1060TIP3   OH224670   3.201   2.414  11.160  0.1584 -0.5008  1.0136
 1060TIP3    H124671   3.133   2.481  11.160  1.4256  0.8282  1.5447
 1060TIP3    H224672   3.255   2.433  11.084 -0.2822 -1.8102  0.3460
 1061TIP3   OH224673   4.997   3.660   2.701  0.4279 -0.1660  0.0953
 1061TIP3    H124674   4.954   3.702   2.776 -0.4152  0.2297 -0.6009
 1061TIP3    H224675   4.988   3.567   2.718 -2.3343 -0.1636 -0.8801
 1062TIP3   OH224676   3.553   3.854   4.590 -0.2845 -0.3348  0.2133
 1062TIP3    H124677   3.477   3.849   4.648 -0.1512 -1.1033  0.3294
 1062TIP3    H224678   3.537   3.787   4.523  0.9563 -1.5520  1.0700
 1063TIP3   OH224679   5.604   4.270   1.146 -0.0276 -0.2816  0.5533
 1063TIP3    H124680   5.591   4.346   1.202  0.0648  0.4254 -0.3686
 1063TIP3    H224681   5.699   4.257   1.145  0.0342  0.1963 -0.0711
 1064TIP3   OH224682   3.621   4.861  16.088 -0.0631  0.3374 -0.2210
 1064TIP3    H124683   3.711   4.893  16.085  0.1159  0.0294  1.3133
 1064TIP3    H224684   3.593   4.876  16.178 -1.9282  1.3884 -0.9214
 1065TIP3   OH224685   4.587   4.383  12.014 -0.2405  0.3208  0.7239
 1065TIP3    H124686   4.649   4.328  11.966 -1.6575  0.4104 -1.3271
 1065TIP3    H224687   4.611   4.472  11.991 -1.3996  0.3437 -0.5289
 1066TIP3   OH224688   6.176   3.769   4.441 -0.3192 -0.4421  0.4590
 1066TIP3    H124689   6.129   3.816   4.372  0.8344  1.2374  0.7565
 1066TIP3    H224690   6.180   3.679   4.411  2.1620  0.6008 -2.8668
 1067TIP3   OH224691   3.572   3.114  15.325 -0.3932  0.2802 -0.8949
 1067TIP3    H124692   3.493   3.059  15.326 -0.1062 -0.1594 -1.4787
 1067TIP3    H224693   3.561   3.168  15.247 -0.3209  0.5267 -0.7337
 1068TIP3   OH224694   0.483   1.242   5.334 -0.3320 -0.0670  0.4948
 1068TIP3    H124695   0.415   1.206   5.277 -2.1525  2.3945  0.9464
 1068TIP3    H224696   0.501   1.329   5.299  0.0697  0.6677  2.3917
 1069TIP3   OH224697   1.178   6.732   3.300  0.3179 -0.2755 -0.3984
 1069TIP3    H124698   1.179   6.805   3.362  0.3685 -0.0290 -0.6857
 1069TIP3    H224699   1.119   6.668   3.339 -0.9643  0.5767 -0.8872
 1070TIP3   OH224700   1.607   1.642   2.143  0.0832 -0.5264  0.0073
 1070TIP3    H124701   1.636   1.675   2.228 -0.4426 -0.9918  0.3741
 1070TIP3    H224702   1.676   1.669   2.082 -0.0318  0.7082  0.3927
 1071TIP3   OH224703   5.452   2.606   1.279  0.1007  0.4770 -0.5233
 1071TIP3    H124704   5.470   2.524   1.233 -1.8273  0.0306 -0.5686
 1071TIP3    H224705   5.404   2.659   1.215 -0.6749  0.7194  0.2361
 1072TIP3   OH224706   0.370   5.346   5.991  0.2823  0.3331 -0.4042
 1072TIP3    H124707   0.301   5.407   6.018 -1.2306 -1.4266 -0.0888
 1072TIP3    H224708   0.415   5.324   6.073 -1.9108 -2.1275  0.2869
 1073TIP3   OH224709   5.261   3.631  15.331  0.2325 -0.0770 -0.5870
 1073TIP3    H124710   5.203   3.556  15.319  0.8291 -0.5347 -0.6339
 1073TIP3    H224711   5.300   3.645  15.244 -0.4175  0.7477 -0.7647
 1074TIP3   OH224712   4.958   5.800  16.359  0.1131  0.1917 -0.1862
 1074TIP3    H124713   4.982   5.790  16.451 -0.5269 -1.2093 -0.1317
 1074TIP3    H224714   5.041   5.801  16.312  0.4218  0.2580  0.3572
 1075TIP3   OH224715   6.299   2.163   5.120 -0.0474 -0.3036 -0.0501
 1075TIP3    H124716   6.281   2.200   5.207 -0.4555 -0.0623 -0.2318
 1075TIP3    H224717   6.215   2.127   5.092 -0.4065  1.2704 -1.1262
 1076TIP3   OH224718   1.558   4.912  14.126  0.0449 -0.3939  1.3839
 1076TIP3    H124719   1.638   4.860  14.120  1.2244  1.2211  2.2545
 1076TIP3    H224720   1.528   4.899  14.216 -0.3462 -0.5171  1.2380
 1077TIP3   OH224721   0.462   5.252   2.582  0.2399  0.0782 -0.2722
 1077TIP3    H124722   0.498   5.171   2.547  0.9813 -0.3350  1.3288
 1077TIP3    H224723   0.454   5.235   2.676 -2.4005  0.8243 -0.2796
 1078TIP3   OH224724   0.804   0.411  16.002  0.3063  0.3233 -0.0023
 1078TIP3    H124725   0.798   0.318  16.024 -1.0319 -0.2762 -2.4836
 1078TIP3    H224726   0.731   0.451  16.049 -0.1816 -0.2246 -0.2683
 1079TIP3   OH224727   0.024   6.794   5.407  0.5291  0.0695 -0.0545
 1079TIP3    H124728   0.021   6.889   5.411 -0.1357  0.0226  0.7787
 1079TIP3    H224729   0.046   6.767   5.497  0.6203 -0.5637 -0.2635
 1080TIP3   OH224730   5.862   0.539  13.779 -0.1371  0.3797  0.5017
 1080TIP3    H124731   5.850   0.447  13.803 -0.2157  0.0731 -0.6525
 1080TIP3    H224732   5.803   0.551  13.704  0.7662  1.0496 -0.1111
 1081TIP3   OH224733   6.844   0.348   5.172 -0.3362  0.0405 -0.7464
 1081TIP3    H124734   6.903   0.294   5.119 -0.2733  2.4643 -3.3859
 1081TIP3    H224735   6.882   0.345   5.260  1.4503 -1.6309 -1.4882
 1082TIP3   OH224736   1.371   0.446  12.577 -0.4631 -0.8637 -0.8160
 1082TIP3    H124737   1.320   0.412  12.651 -0.5605  1.4117  0.2494
 1082TIP3    H224738   1.368   0.541  12.587  0.5805 -0.5216 -3.0741
 1083TIP3   OH224739   2.289   4.462   3.008 -0.3250 -0.5654 -0.1629
 1083TIP3    H124740   2.272   4.452   3.102 -1.1575  1.5592 -0.0276
 1083TIP3    H224741   2.385   4.461   3.001 -0.1919  0.7014  0.9519
 1084TIP3   OH224742   4.538   4.027   2.649 -0.1804 -0.7423 -0.1499
 1084TIP3    H124743   4.476   3.957   2.667  0.2206 -0.5489  2.4577
 1084TIP3    H224744   4.543   4.076   2.731  1.4569  0.8178 -1.0943
 1085TIP3   OH224745   2.247   1.594   1.417  0.1020  0.1840  1.0661
 1085TIP3    H124746   2.157   1.572   1.393  0.7029 -1.0777 -0.1348
 1085TIP3    H224747   2.300   1.522   1.383  1.7959  1.8366 -0.0325
 1086TIP3   OH224748   2.414   6.165   2.410 -0.3082 -0.6333 -0.0840
 1086TIP3    H124749   2.399   6.076   2.378 -1.6565 -0.3060 -0.4437
 1086TIP3    H224750   2.349   6.177   2.480 -0.7557  0.3441 -0.6398
 1087TIP3   OH224751   1.887   6.553   2.742  0.0197  0.1404  0.0753
 1087TIP3    H124752   1.800   6.556   2.783  0.2228 -0.2832  0.5546
 1087TIP3    H224753   1.871   6.524   2.653 -0.2021 -1.4599  0.6037
 1088TIP3   OH224754   2.886   5.790   4.394  0.1039 -0.1184  0.0168
 1088TIP3    H124755   2.892   5.832   4.309  1.7921  1.0051  0.6468
 1088TIP3    H224756   2.912   5.857   4.457 -1.0785 -0.9149  1.4529
 1089TIP3   OH224757   6.206   2.353   5.304 -0.3525  0.2361 -0.2034
 1089TIP3    H124758   6.170   2.423   5.249  1.6724  0.8322 -0.8628
 1089TIP3    H224759   6.277   2.395   5.353  0.2583 -1.1334  0.1274
 1090TIP3   OH224760   2.548   2.689   3.721  0.0854 -0.4419  0.1448
 1090TIP3    H124761   2.502   2.674   3.804 -1.5188 -1.3700 -0.8669
 1090TIP3    H224762   2.562   2.784   3.719 -0.6174 -0.2954  1.0806
 1091TIP3   OH224763   1.948   6.359  13.640  0.3221  0.4980  0.4207
 1091TIP3    H124764   1.981   6.333  13.553  0.0182 -0.4858  0.5930
 1091TIP3    H224765   2.026   6.392  13.685  0.5804  0.5587 -0.0517
 1092TIP3   OH224766   5.998   1.085  15.541 -0.2290 -0.3427 -0.3636
 1092TIP3    H124767   6.027   1.155  15.600 -0.8893  0.2865 -0.7787
 1092TIP3    H224768   6.046   1.101  15.460 -3.6412  2.4666 -2.1110
 1093TIP3   OH224769   4.340   4.101   1.364 -0.2291  0.4468  0.3158
 1093TIP3    H124770   4.400   4.155   1.314 -0.1064  0.3688  0.3779
 1093TIP3    H224771   4.307   4.159   1.433 -2.1046  1.2313 -1.1574
 1094TIP3   OH224772   1.325   5.137   4.977 -0.0247  0.2998 -0.4444
 1094TIP3    H124773   1.335   5.100   4.890  1.0566 -0.2180 -0.1234
 1094TIP3    H224774   1.413   5.132   5.015 -0.5714  0.0938  0.8380
 1095TIP3   OH224775   6.405   0.372   4.952  0.3325  0.3402  0.0345
 1095TIP3    H124776   6.348   0.295   4.957  0.1453  0.4533 -0.3769
 1095TIP3    H224777   6.360   0.432   4.893  0.0356  1.1407  1.0271
 1096TIP3   OH224778   0.069   2.786   2.894  0.2507  0.2310 -0.3625
 1096TIP3    H124779   0.053   2.700   2.933  0.7232  0.5170  0.4893
 1096TIP3    H224780   0.102   2.839   2.966  0.8443  0.8654 -1.0847
 1097TIP3   OH224781   5.118   2.461  12.355 -0.1954 -0.2013  0.0339
 1097TIP3    H124782   5.162   2.546  12.351  2.3861 -1.5025 -1.2693
 1097TIP3    H224783   5.063   2.467  12.433 -0.1615  2.6709 -0.0642
 1098TIP3   OH224784   4.787   2.008  11.516 -0.4170  0.5361  0.5385
 1098TIP3    H124785   4.740   2.083  11.479  0.2195  0.6844  0.0272
 1098TIP3    H224786   4.876   2.016  11.484 -0.4371 -0.6864  0.0993
 1099TIP3   OH224787   4.926   6.076   1.850  0.2684 -0.1036  0.0917
 1099TIP3    H124788   5.000   6.020   1.873  0.6764  0.2554 -0.3447
 1099TIP3    H224789   4.959   6.166   1.861 -0.5772  0.0783  1.4447
 1100TIP3   OH224790   6.376   3.105  14.006  0.2508  0.4682  0.1578
 1100TIP3    H124791   6.472   3.110  14.008  0.3089 -0.4749  0.3072
 1100TIP3    H224792   6.356   3.051  13.930 -0.2090  1.4225 -0.4018
 1101TIP3   OH224793   0.180   3.199   2.786  0.2953 -0.0279 -0.3004
 1101TIP3    H124794   0.147   3.209   2.875 -0.4352  0.3828 -0.6102
 1101TIP3    H224795   0.170   3.106   2.767 -1.8042  0.2534 -0.7952
 1102TIP3   OH224796   0.421   4.116   3.063 -0.1549  0.1889  0.2170
 1102TIP3    H124797   0.442   4.145   2.974  1.9295 -0.6435  0.3747
 1102TIP3    H224798   0.334   4.078   3.056 -0.6323  1.4514 -1.1459
 1103TIP3   OH224799   5.709   1.548   2.837  0.1190 -0.3131 -0.0067
 1103TIP3    H124800   5.736   1.589   2.755  0.7347  0.2876  0.4857
 1103TIP3    H224801   5.754   1.464   2.837  0.0551 -0.3496 -0.3250
 1104TIP3   OH224802   6.027   2.333  14.367 -0.5182  0.5999 -0.0133
 1104TIP3    H124803   5.974   2.273  14.418 -0.3030  0.9484  0.6331
 1104TIP3    H224804   5.965   2.398  14.334 -0.6071  0.5853  0.1229
 1105TIP3   OH224805   6.597   4.781  12.442  0.3680  0.3573 -0.3393
 1105TIP3    H124806   6.581   4.856  12.384 -2.5524  1.1959  1.3898
 1105TIP3    H224807   6.614   4.708  12.382  1.0528  1.8879 -2.1199
 1106TIP3   OH224808   6.654   0.277   6.286  0.6828  0.1136  0.8383
 1106TIP3    H124809   6.594   0.340   6.325  0.2900  0.8385 -0.8581
 1106TIP3    H224810   6.730   0.330   6.260  1.1158 -0.4226  0.9925
 1107TIP3   OH224811   1.357   5.285  11.616 -0.6712 -0.1369  0.3024
 1107TIP3    H124812   1.438   5.267  11.663 -0.9483  1.0051  1.2615
 1107TIP3    H224813   1.378   5.359  11.559 -0.9897  0.0593  0.4351
 1108TIP3   OH224814   4.347   5.017   0.168  0.0090  0.1236 -0.5921
 1108TIP3    H124815   4.295   4.985   0.095 -2.1680 -0.5924  1.1578
 1108TIP3    H224816   4.369   5.107   0.145 -1.0634  0.0754 -1.8995
 1109TIP3   OH224817   4.057   0.741  10.939 -0.3109 -0.0453 -0.2363
 1109TIP3    H124818   4.026   0.825  10.973  1.6791  0.4960  0.3189
 1109TIP3    H224819   3.977   0.698  10.908 -1.6421  1.2334  1.2022
 1110TIP3   OH224820   4.894   6.220   4.622 -0.1645  0.1600 -0.7771
 1110TIP3    H124821   4.846   6.256   4.548  0.1484  0.3814 -0.8714
 1110TIP3    H224822   4.966   6.170   4.583 -0.2689 -0.1080 -0.6337
 1111TIP3   OH224823   1.640   5.923  17.062 -0.6134  0.6232 -0.1300
 1111TIP3    H124824   1.570   5.966  17.011 -0.6712  2.0063  1.0403
 1111TIP3    H224825   1.621   5.947  17.153  1.0725  0.5562  0.2696
 1112TIP3   OH224826   3.566   4.143  16.399 -1.0781  0.2162 -0.2571
 1112TIP3    H124827   3.582   4.117  16.309 -1.1110  0.8975 -0.4663
 1112TIP3    H224828   3.519   4.226  16.392 -0.0680  0.8710  0.3862
 1113TIP3   OH224829   4.287   5.986   1.082  0.3877  0.2632  0.4161
 1113TIP3    H124830   4.369   5.966   1.035  0.4553  0.1115  0.5975
 1113TIP3    H224831   4.254   5.901   1.109  1.8119  0.4693  3.1352
 1114TIP3   OH224832   3.319   4.368  14.283  0.8293  0.2143 -0.0045
 1114TIP3    H124833   3.277   4.434  14.338 -1.0428 -0.6989 -0.2800
 1114TIP3    H224834   3.295   4.392  14.194  0.7674 -0.4113 -0.1596
 1115TIP3   OH224835   6.121   3.585   2.440 -0.1867 -0.1806  0.0933
 1115TIP3    H124836   6.114   3.490   2.441  2.2560 -0.5109  3.5010
 1115TIP3    H224837   6.192   3.603   2.379  0.3663 -0.6917  0.5760
 1116TIP3   OH224838   2.205   2.121   0.902 -0.0849  0.0566  0.1518
 1116TIP3    H124839   2.260   2.190   0.940 -0.6107  0.3463  0.4024
 1116TIP3    H224840   2.142   2.100   0.971 -0.3797 -0.1617 -0.1813
 1117TIP3   OH224841   2.677   0.897  12.610 -0.5710 -0.2788  1.0310
 1117TIP3    H124842   2.653   0.898  12.518  0.3498 -1.6885  0.7336
 1117TIP3    H224843   2.612   0.839  12.651  0.1659 -1.2456  0.8761
 1118TIP3   OH224844   5.819   5.181  16.996 -0.6047 -0.0189 -0.7695
 1118TIP3    H124845   5.874   5.235  17.053 -2.3795  0.1869  0.8525
 1118TIP3    H224846   5.809   5.098  17.043  0.6250 -1.1458 -2.3967
 1119TIP3   OH224847   6.111   6.139  16.531  0.3927 -0.1412 -0.2826
 1119TIP3    H124848   6.190   6.099  16.568  0.9381  0.6227 -0.6025
 1119TIP3    H224849   6.102   6.099  16.445  1.1520  0.6688 -0.7568
 1120TIP3   OH224850   1.721   3.144  13.681 -0.4541  0.3801  0.2873
 1120TIP3    H124851   1.644   3.190  13.713  0.4606  2.7525 -0.7353
 1120TIP3    H224852   1.781   3.143  13.756 -0.3650  1.1243  0.2251
 1121TIP3   OH224853   5.995   5.735   2.084 -0.2817 -0.5539 -0.3880
 1121TIP3    H124854   6.082   5.728   2.046 -0.1290  0.2511 -0.2071
 1121TIP3    H224855   5.940   5.678   2.030  0.6369 -2.3045  0.4300
 1122TIP3   OH224856   1.250   5.488   3.205  0.7733  0.0938 -0.2405
 1122TIP3    H124857   1.227   5.434   3.130 -1.5830  0.7044 -0.0397
 1122TIP3    H224858   1.231   5.578   3.178  0.4084  0.3757  0.8718
 1123TIP3   OH224859   2.242   1.320   1.807 -0.9227 -0.3972 -0.0463
 1123TIP3    H124860   2.288   1.345   1.887 -1.0746 -2.5210  0.7644
 1123TIP3    H224861   2.160   1.369   1.810 -0.4836  0.3107  0.5807
 1124TIP3   OH224862   1.612   3.724   5.409  0.0378 -0.4744  0.6657
 1124TIP3    H124863   1.521   3.739   5.384 -0.1965 -0.1083  1.6845
 1124TIP3    H224864   1.653   3.687   5.330 -1.0444 -0.8863  0.2736
 1125TIP3   OH224865   5.741   1.815  16.131  0.3275  0.6708 -0.0690
 1125TIP3    H124866   5.732   1.752  16.060  0.5964  0.2536  0.2643
 1125TIP3    H224867   5.652   1.848  16.145  0.0081 -0.3696  0.4243
 1126TIP3   OH224868   6.450   3.037   6.140 -0.5345  0.1924 -0.0748
 1126TIP3    H124869   6.501   3.111   6.174 -1.1667  0.5703  0.0882
 1126TIP3    H224870   6.509   2.992   6.081  0.4498 -0.2138  1.1739
 1127TIP3   OH224871   2.048   0.605   1.364 -0.4099 -0.2261  0.2492
 1127TIP3    H124872   1.974   0.638   1.313 -0.0360  0.1017 -0.0895
 1127TIP3    H224873   2.069   0.521   1.325 -1.1580 -0.7383  0.9069
 1128TIP3   OH224874   3.047   5.352  15.654 -0.5414 -0.1126 -0.0087
 1128TIP3    H124875   3.073   5.336  15.745  0.7522  0.0739 -0.3126
 1128TIP3    H224876   3.005   5.271  15.627  0.4921 -0.7803  0.2966
 1129TIP3   OH224877   5.227   6.810   0.660 -0.3720  0.2005 -0.0778
 1129TIP3    H124878   5.273   6.750   0.602 -0.0653  0.2164  0.1436
 1129TIP3    H224879   5.162   6.853   0.604 -0.8490 -0.6033 -0.1565
 1130TIP3   OH224880   4.209   6.415  12.805 -0.2151  0.3779  0.4929
 1130TIP3    H124881   4.227   6.463  12.886  0.5540  1.8678 -0.5112
 1130TIP3    H224882   4.237   6.475  12.735 -0.1968 -1.1500 -0.8610
 1131TIP3   OH224883   1.702   4.045   1.189  0.0471 -0.5757 -0.1262
 1131TIP3    H124884   1.678   3.952   1.185 -0.5459 -0.5092  1.1927
 1131TIP3    H224885   1.744   4.054   1.275 -0.5881  0.5236  0.0758
 1132TIP3   OH224886   3.839   2.058   1.438  0.3513 -0.2997 -0.3089
 1132TIP3    H124887   3.893   2.071   1.515  0.5895  2.0322 -0.8036
 1132TIP3    H224888   3.839   1.963   1.424  2.5318 -0.5363  0.9468
 1133TIP3   OH224889   0.783   3.515  14.316  0.3165  0.0919  0.7760
 1133TIP3    H124890   0.704   3.566  14.333  1.2067  1.3375  1.2449
 1133TIP3    H224891   0.794   3.519  14.221  0.8290  1.4714  0.8835
 1134TIP3   OH224892   3.705   1.275  14.616  0.0207 -0.1297 -0.7846
 1134TIP3    H124893   3.660   1.191  14.610  1.2376 -0.7639 -1.3639
 1134TIP3    H224894   3.671   1.325  14.542 -1.5367  0.3340  0.1994
 1135TIP3   OH224895   1.121   0.875   2.996  0.2098 -0.4048 -0.4932
 1135TIP3    H124896   1.131   0.800   2.937  0.0541 -0.5337 -0.3550
 1135TIP3    H224897   1.092   0.946   2.939 -0.8839 -0.7784 -0.4195
 1136TIP3   OH224898   6.769   2.542  16.274  0.2922 -0.2059  0.5307
 1136TIP3    H124899   6.814   2.516  16.354  0.4622  1.3937  0.9901
 1136TIP3    H224900   6.679   2.559  16.300  0.0120 -0.9632  0.1008
 1137TIP3   OH224901   3.076   1.167  14.995 -0.0738  0.1984  0.1382
 1137TIP3    H124902   3.049   1.153  15.086  0.4564 -0.3962  0.2099
 1137TIP3    H224903   3.118   1.253  14.995  0.9428 -0.2863  0.6958
 1138TIP3   OH224904   4.696   2.959  13.925  0.1135  0.4823 -0.1353
 1138TIP3    H124905   4.746   2.898  13.979 -0.0927 -0.8863 -1.4327
 1138TIP3    H224906   4.755   3.034  13.912  0.2929  0.7080  1.6455
 1139TIP3   OH224907   6.485   2.735  11.638  0.9343  0.6218  0.3235
 1139TIP3    H124908   6.545   2.711  11.568 -1.1708  0.3633 -1.4757
 1139TIP3    H224909   6.455   2.823  11.615  1.7113  1.3768  2.0155
 1140TIP3   OH224910   5.467   1.009  11.325  0.1127 -0.1423  0.2944
 1140TIP3    H124911   5.459   0.980  11.416  3.2979 -0.6343  0.5226
 1140TIP3    H224912   5.390   1.064  11.311  0.3187  1.3108  3.8109
 1141TIP3   OH224913   5.494   5.086   5.331  0.2535  0.6200 -0.6643
 1141TIP3    H124914   5.518   4.998   5.361  0.8107  0.6320 -1.0730
 1141TIP3    H224915   5.409   5.074   5.288 -0.4766  0.5714  0.7250
 1142TIP3   OH224916   2.031   2.006   0.319  0.6755  0.3440 -0.2389
 1142TIP3    H124917   2.111   1.955   0.328 -0.3317 -1.1402  0.6099
 1142TIP3    H224918   2.060   2.088   0.278  2.2883 -1.0415 -2.0645
 1143TIP3   OH224919   5.677   5.824  15.375 -0.2118  0.3151  0.2808
 1143TIP3    H124920   5.707   5.742  15.415  1.8731  0.6104 -0.5571
 1143TIP3    H224921   5.688   5.890  15.443  0.2630  0.2801  0.2378
 1144TIP3   OH224922   2.014   4.232  10.868  0.2607 -0.2884  0.0841
 1144TIP3    H124923   2.056   4.151  10.839 -0.0669 -1.2447  2.0590
 1144TIP3    H224924   2.002   4.284  10.789 -0.3628 -2.5708 -1.4093
 1145TIP3   OH224925   4.958   4.772  11.975  0.6750 -0.3042 -0.0766
 1145TIP3    H124926   4.999   4.753  12.059  1.0458 -1.3524 -0.4848
 1145TIP3    H224927   4.986   4.862  11.955 -0.1193  0.2906  1.3030
 1146TIP3   OH224928   1.937   2.343   1.409  0.1842 -0.5117  0.0737
 1146TIP3    H124929   1.886   2.372   1.485  1.6727  1.3586  0.4120
 1146TIP3    H224930   2.023   2.323   1.445  0.9936  0.6785 -1.1470
 1147TIP3   OH224931   5.886   3.820  15.549 -0.6283 -0.3508  0.2832
 1147TIP3    H124932   5.981   3.825  15.533 -0.5586 -0.9494  0.4572
 1147TIP3    H224933   5.859   3.740  15.503 -0.9378 -0.5138  0.7497
 1148TIP3   OH224934   0.726   5.145  14.861  0.2151  1.4317  0.4263
 1148TIP3    H124935   0.661   5.089  14.903  0.7781  1.0555  0.8004
 1148TIP3    H224936   0.674   5.211  14.815 -0.4629  0.6107 -0.0191
 1149TIP3   OH224937   6.767   6.139  16.863  0.2018  0.5325  0.0125
 1149TIP3    H124938   6.789   6.096  16.946 -0.3884  0.5504  0.1788
 1149TIP3    H224939   6.675   6.117  16.847 -0.3751  2.4476  0.5387
 1150TIP3   OH224940   5.207   3.522   4.442 -0.1857 -0.3023 -0.4684
 1150TIP3    H124941   5.212   3.608   4.483 -1.2889  0.6519 -2.1722
 1150TIP3    H224942   5.199   3.541   4.348 -0.2128 -2.2725 -0.9085
 1151TIP3   OH224943   4.069   4.561  11.849 -0.0512  0.4733  0.4719
 1151TIP3    H124944   4.150   4.594  11.810  0.0551 -0.9114 -0.5592
 1151TIP3    H224945   4.081   4.467  11.854 -1.1081  0.3709  1.5000
 1152TIP3   OH224946   6.613   2.193   4.364  0.2276  0.0921  0.1488
 1152TIP3    H124947   6.703   2.224   4.358 -0.0518  0.9514  0.2565
 1152TIP3    H224948   6.589   2.206   4.455 -0.3327  0.8260 -0.0944
 1153TIP3   OH224949   4.184   0.959   6.150 -0.8815 -0.3856 -0.1346
 1153TIP3    H124950   4.260   0.932   6.203 -0.9724 -0.5712 -0.0974
 1153TIP3    H224951   4.209   1.044   6.113  0.1969 -1.3641 -1.7907
 1154TIP3   OH224952   0.978   4.697   6.009  0.0260  0.6139 -0.3606
 1154TIP3    H124953   0.897   4.716   5.962 -1.1873 -0.7845  1.0120
 1154TIP3    H224954   0.977   4.602   6.020  0.2328  0.8424  2.3936
 1155TIP3   OH224955   1.274   5.003   0.734 -0.0945  0.1043  0.2084
 1155TIP3    H124956   1.286   5.046   0.819  0.4735  0.2896  0.0338
 1155TIP3    H224957   1.360   5.005   0.693  0.0547 -1.5835  0.3622
 1156TIP3   OH224958   6.367   2.588  14.019  0.6562  0.1300  0.1022
 1156TIP3    H124959   6.371   2.512  14.076 -0.6752  0.2617  0.3929
 1156TIP3    H224960   6.455   2.593  13.980  1.2705 -0.5571  1.3390
 1157TIP3   OH224961   6.769   5.639   5.565 -0.1196  0.1433  0.6922
 1157TIP3    H124962   6.728   5.716   5.604  1.3693  0.4555  1.7208
 1157TIP3    H224963   6.811   5.594   5.638  0.7941 -0.5185 -0.2059
 1158TIP3   OH224964   4.576   0.092  12.612 -0.0913 -0.2494  0.1551
 1158TIP3    H124965   4.527   0.171  12.634  1.4140  1.2854 -1.6496
 1158TIP3    H224966   4.622   0.069  12.692  0.1280  1.2280  0.4763
 1159TIP3   OH224967   1.793   2.881   1.971 -0.1519  0.3737 -0.9458
 1159TIP3    H124968   1.708   2.887   2.015  0.1866  0.7075 -0.3270
 1159TIP3    H224969   1.786   2.803   1.916  0.9119 -2.8150  2.9584
 1160TIP3   OH224970   6.404   5.715   4.430  0.2316  0.1349  0.0100
 1160TIP3    H124971   6.470   5.651   4.403 -1.3706 -0.7987 -1.9721
 1160TIP3    H224972   6.417   5.789   4.370  0.5405  0.6752  0.7319
 1161TIP3   OH224973   4.857   4.317   1.902  0.0952  0.1645 -0.5126
 1161TIP3    H124974   4.812   4.246   1.948 -0.2210  0.9411  0.3901
 1161TIP3    H224975   4.790   4.353   1.844 -0.1774  0.6989  0.1303
 1162TIP3   OH224976   4.425   1.630   5.432 -0.4001 -0.0034 -0.4287
 1162TIP3    H124977   4.347   1.680   5.406 -1.6946 -1.5983  0.1688
 1162TIP3    H224978   4.453   1.670   5.515 -1.8465 -0.6481  0.4137
 1163TIP3   OH224979   3.344   6.368  12.697 -0.7197 -0.2251  0.2493
 1163TIP3    H124980   3.262   6.320  12.689 -0.2294 -2.1188  3.9331
 1163TIP3    H224981   3.318   6.458  12.716 -2.1497 -1.0534  2.7646
 1164TIP3   OH224982   1.088   4.939  14.805  0.3647  0.6473  0.0749
 1164TIP3    H124983   1.176   4.975  14.796  0.8527 -0.3337  0.7654
 1164TIP3    H224984   1.098   4.845  14.792 -0.7380  0.6262 -0.7511
 1165TIP3   OH224985   5.514   3.173   0.112  0.2575  0.4924 -0.4029
 1165TIP3    H124986   5.491   3.081   0.114 -1.0089  0.8037  0.4301
 1165TIP3    H224987   5.555   3.190   0.197  1.4722  0.4859 -0.9562
 1166TIP3   OH224988   2.742   2.155   5.463 -0.4601  0.0977  0.1086
 1166TIP3    H124989   2.732   2.095   5.389 -1.4137 -1.1658  1.2018
 1166TIP3    H224990   2.654   2.189   5.479 -0.5010 -0.5141  1.3296
 1167TIP3   OH224991   4.166   0.231  15.803  0.2883 -0.0490  1.1808
 1167TIP3    H124992   4.098   0.164  15.800 -1.6747  1.8337 -1.8056
 1167TIP3    H224993   4.125   0.305  15.848 -0.1099  1.4080 -1.3818
 1168TIP3   OH224994   1.522   0.484  14.036 -0.3778 -0.3427  0.4981
 1168TIP3    H124995   1.459   0.449  14.100 -0.5704  1.6388  1.4630
 1168TIP3    H224996   1.606   0.446  14.063 -0.6861 -0.6700  1.0271
 1169TIP3   OH224997   4.525   0.118  13.008  0.4968 -0.1335  0.0459
 1169TIP3    H124998   4.441   0.088  12.974 -0.2916 -0.0495  1.7936
 1169TIP3    H224999   4.588   0.055  12.973 -0.6208 -1.6310  0.5803
 1170TIP3   OH225000   1.698   1.444  13.880 -0.0502 -0.1394  0.3302
 1170TIP3    H125001   1.722   1.355  13.904  1.6235  0.2562  0.2698
 1170TIP3    H225002   1.695   1.443  13.784  0.8023  0.0380  0.2896
 1171TIP3   OH225003   6.728   2.344   4.832  0.5121  0.2485  0.3649
 1171TIP3    H125004   6.651   2.353   4.889  0.9099 -0.4811  1.0574
 1171TIP3    H225005   6.764   2.259   4.857  1.3061  0.4063 -0.2462
 1172TIP3   OH225006   3.574   2.420  16.485 -0.7115  0.1439 -0.7353
 1172TIP3    H125007   3.573   2.412  16.580  1.2786 -1.1834 -0.7573
 1172TIP3    H225008   3.555   2.512  16.468  2.0909  1.1860  1.1511
 1173TIP3   OH225009   4.408   5.341   4.639 -0.0300 -0.3289  0.0623
 1173TIP3    H125010   4.331   5.292   4.668  0.5891 -0.9153  0.7256
 1173TIP3    H225011   4.479   5.278   4.639  0.3847  0.1149 -0.9428
 1174TIP3   OH225012   2.575   3.938   4.708 -0.1458 -0.1801 -0.9755
 1174TIP3    H125013   2.580   4.032   4.688  1.8509  0.0482  0.3130
 1174TIP3    H225014   2.493   3.928   4.756 -0.6938  0.7935 -1.6845
 1175TIP3   OH225015   2.336   4.823   0.514  0.3152 -1.3321  0.9057
 1175TIP3    H125016   2.378   4.838   0.430 -1.0423 -2.4284 -0.0128
 1175TIP3    H225017   2.346   4.905   0.562 -0.0479 -0.2254 -0.8537
 1176TIP3   OH225018   4.356   0.251  12.639 -0.2105 -0.5861 -0.2129
 1176TIP3    H125019   4.281   0.266  12.696 -1.6448  2.6087 -2.6432
 1176TIP3    H225020   4.322   0.194  12.569  0.5611 -1.6791  0.2777
 1177TIP3   OH225021   0.702   1.476   1.303 -0.3248  0.2081 -0.0275
 1177TIP3    H125022   0.660   1.558   1.329 -0.8400 -0.0840  0.0764
 1177TIP3    H225023   0.734   1.492   1.215  1.4562  1.2202  0.7555
 1178TIP3   OH225024   4.019   3.966   0.246  0.1737 -0.4787  0.2742
 1178TIP3    H125025   4.029   3.934   0.156  1.7331 -1.4307  0.7493
 1178TIP3    H225026   4.013   4.061   0.237  0.3258 -0.5578 -0.8369
 1179TIP3   OH225027   2.038   1.267   4.524  0.0838  0.2568  0.1513
 1179TIP3    H125028   2.067   1.282   4.434 -4.0221 -1.0611 -1.6362
 1179TIP3    H225029   1.995   1.348   4.550 -0.0184  0.1287  0.3856
 1180TIP3   OH225030   2.195   0.273  12.396 -0.4123  0.3929 -0.4699
 1180TIP3    H125031   2.174   0.335  12.466 -1.4133  0.4239 -0.7826
 1180TIP3    H225032   2.138   0.198  12.413 -0.1949  0.1312 -0.8852
 1181TIP3   OH225033   6.769   0.237   2.741  0.2935 -0.2101 -0.1164
 1181TIP3    H125034   6.743   0.154   2.781 -1.7459 -0.5235 -1.9167
 1181TIP3    H225035   6.731   0.304   2.798 -2.6264 -0.6475 -1.3362
 1182TIP3   OH225036   0.616   1.463  13.504  0.1888  0.4132  0.6311
 1182TIP3    H125037   0.652   1.443  13.590 -0.3862 -0.5001  0.6675
 1182TIP3    H225038   0.526   1.490  13.520 -0.6052 -1.7692  0.1828
 1183TIP3   OH225039   6.497   2.483  16.360 -0.6149 -0.3177 -0.0849
 1183TIP3    H125040   6.486   2.556  16.422  2.7535  0.5895 -0.3839
 1183TIP3    H225041   6.426   2.495  16.297 -2.5122  0.3149  2.0352
 1184TIP3   OH225042   2.246   1.196  13.599  0.7665  0.2511 -0.4033
 1184TIP3    H125043   2.286   1.282  13.605 -0.9042  0.9632  1.3868
 1184TIP3    H225044   2.265   1.154  13.683  1.2763 -1.0184 -1.1212
 1185TIP3   OH225045   2.913   1.017   0.053  0.4066 -0.0642 -0.2512
 1185TIP3    H125046   2.915   1.022   0.148  0.2469 -0.7006 -0.2119
 1185TIP3    H225047   2.998   0.981   0.028 -0.6403 -2.8623 -0.1368
 1186TIP3   OH225048   2.935   0.731  14.364 -0.0048  0.4047 -0.2981
 1186TIP3    H125049   2.987   0.655  14.391  1.5904  1.0518 -1.3856
 1186TIP3    H225050   2.964   0.802  14.420 -0.1551  0.6445 -0.5230
 1187TIP3   OH225051   4.543   6.744  11.977  0.1085  0.1019  0.2931
 1187TIP3    H125052   4.504   6.674  11.924 -0.8731  1.1445 -0.3993
 1187TIP3    H225053   4.608   6.699  12.032  0.2512 -1.1946 -0.8794
 1188TIP3   OH225054   3.970   0.169   2.185 -0.2451  0.0872 -0.4036
 1188TIP3    H125055   3.972   0.133   2.274 -0.8259  0.0555 -0.4015
 1188TIP3    H225056   3.957   0.092   2.129 -1.2191  0.2557 -0.4199
 1189TIP3   OH225057   2.385   6.214   0.478  0.0590  0.5826 -0.0655
 1189TIP3    H125058   2.395   6.260   0.394 -0.1380  1.1614  0.2251
 1189TIP3    H225059   2.353   6.281   0.538 -2.6011 -0.4822 -0.2019
 1190TIP3   OH225060   3.328   4.718   6.302  0.1324 -0.3264  0.8623
 1190TIP3    H125061   3.374   4.660   6.362  2.1322 -0.8220 -1.0148
 1190TIP3    H225062   3.281   4.658   6.243  1.9667 -0.1454 -0.9017
 1191TIP3   OH225063   6.344   3.558   5.246  0.0032 -0.4325 -0.0903
 1191TIP3    H125064   6.414   3.587   5.305 -0.3223 -1.1063  0.6441
 1191TIP3    H225065   6.275   3.623   5.256  0.2150 -0.1812 -0.2403
 1192TIP3   OH225066   2.769   4.201  10.801 -0.2783  0.4271 -0.0204
 1192TIP3    H125067   2.715   4.236  10.730  0.6477 -0.7060 -1.3323
 1192TIP3    H225068   2.800   4.117  10.768 -0.4627 -0.5217  2.0556
 1193TIP3   OH225069   3.474   1.992   3.607 -0.2392  0.5931  0.5497
 1193TIP3    H125070   3.437   1.908   3.634  0.3646  0.0884 -0.1574
 1193TIP3    H225071   3.564   1.990   3.640 -0.0241  0.6952 -0.0266
 1194TIP3   OH225072   6.010   2.871   4.399  0.4367  0.0962 -0.5319
 1194TIP3    H125073   6.084   2.874   4.460 -0.1787  0.2799  0.2213
 1194TIP3    H225074   5.935   2.848   4.453 -0.0443 -0.2017 -1.3098
 1195TIP3   OH225075   0.186   1.118   4.970  0.5446  0.2711  0.0937
 1195TIP3    H125076   0.273   1.154   4.952  0.3070  0.1718 -1.3927
 1195TIP3    H225077   0.164   1.069   4.891  1.2071 -3.8977  2.2074
 1196TIP3   OH225078   3.118   4.593  12.605 -0.4825  0.3372  0.2194
 1196TIP3    H125079   3.063   4.631  12.536 -0.1241  1.0014  0.2949
 1196TIP3    H225080   3.070   4.515  12.633 -0.2253 -0.4356 -1.3711
 1197TIP3   OH225081   2.303   2.754  12.390 -0.4854  0.4505 -0.1162
 1197TIP3    H125082   2.367   2.721  12.326 -1.2207  1.7042 -1.5517
 1197TIP3    H225083   2.274   2.675  12.437  1.1970 -0.3033 -0.2557
 1198TIP3   OH225084   6.459   5.901   6.075  0.2628 -0.6259  0.1906
 1198TIP3    H125085   6.380   5.955   6.087 -0.2424 -1.6823  2.2105
 1198TIP3    H225086   6.513   5.922   6.151  2.1418  0.3012 -1.3231
 1199TIP3   OH225087   5.890   5.694  13.228  0.3405 -0.6527 -0.0171
 1199TIP3    H125088   5.935   5.610  13.237  0.9465 -0.1921  1.8204
 1199TIP3    H225089   5.866   5.718  13.318  0.7764  1.4307 -0.3932
 1200TIP3   OH225090   4.217   3.843  14.014 -0.6256  0.4560  0.0334
 1200TIP3    H125091   4.268   3.799  14.082  0.7794  1.6248 -0.2042
 1200TIP3    H225092   4.187   3.924  14.055  1.5674  1.9523 -1.0890
 1201TIP3   OH225093   0.325   2.813   1.441  0.0183  0.0486  0.5686
 1201TIP3    H125094   0.252   2.754   1.423 -0.8193  1.0098  0.7356
 1201TIP3    H225095   0.385   2.761   1.495  0.6760 -1.5743 -1.6012
 1202TIP3   OH225096   1.507   0.465  15.815 -0.4357 -0.2514 -0.2112
 1202TIP3    H125097   1.555   0.532  15.766  0.9589  0.7096  2.2884
 1202TIP3    H225098   1.414   0.488  15.803 -0.0118  1.6469 -0.1025
 1203TIP3   OH225099   4.650   4.042  15.751  0.5956 -0.1411 -0.0657
 1203TIP3    H125100   4.737   4.080  15.740  1.6635 -2.4350 -0.1683
 1203TIP3    H225101   4.632   3.998  15.667 -0.1880 -0.5654  0.3114
 1204TIP3   OH225102   1.475   1.674   0.330 -0.1209 -0.1857 -0.2988
 1204TIP3    H125103   1.506   1.754   0.373  1.9561 -0.1223 -1.7652
 1204TIP3    H225104   1.468   1.610   0.401 -0.2353  0.8319  0.6444
 1205TIP3   OH225105   6.468   2.341  13.547  0.3200  0.1313 -0.2984
 1205TIP3    H125106   6.411   2.415  13.524  3.0742  2.6254  0.2705
 1205TIP3    H225107   6.477   2.347  13.642  2.9055  1.0401 -0.5224
 1206TIP3   OH225108   5.632   3.464  13.380 -0.1761  0.2294  0.3955
 1206TIP3    H125109   5.726   3.467  13.395 -0.0730  0.9730 -0.3120
 1206TIP3    H225110   5.621   3.503  13.293 -1.2817  1.6710  1.1365
 1207TIP3   OH225111   4.970   4.242  15.190 -0.0927  0.2663 -0.1590
 1207TIP3    H125112   4.995   4.331  15.212  0.1902  0.0703  0.3416
 1207TIP3    H225113   4.974   4.195  15.274  0.8612 -0.4610 -0.5880
 1208TIP3   OH225114   5.243   5.098  15.157 -0.5207 -0.2258  0.7912
 1208TIP3    H125115   5.155   5.070  15.183 -0.3638 -1.4163  0.1262
 1208TIP3    H225116   5.292   5.016  15.149  0.6753  0.4309  1.2227
 1209TIP3   OH225117   4.838   1.941  15.913  0.1280 -0.2623  0.1138
 1209TIP3    H125118   4.866   1.978  15.829  0.8377  0.8925  0.8262
 1209TIP3    H225119   4.745   1.921  15.901  0.5409 -1.4304 -1.3714
 1210TIP3   OH225120   6.479   6.201   4.508  0.4543  0.2202 -0.0339
 1210TIP3    H125121   6.421   6.211   4.583 -1.0252  0.5294 -1.1595
 1210TIP3    H225122   6.526   6.120   4.524 -0.6689 -0.3070  0.6938
 1211TIP3   OH225123   6.723   1.964   0.787  0.5732 -0.8022  0.2489
 1211TIP3    H125124   6.700   2.037   0.729 -0.4594 -1.4417 -0.1706
 1211TIP3    H225125   6.766   2.006   0.861 -0.0457  0.2496  0.0482
 1212TIP3   OH225126   4.273   1.738  14.586  0.3031 -0.1456  0.0221
 1212TIP3    H125127   4.277   1.764  14.678  1.4016 -0.8640  0.1934
 1212TIP3    H225128   4.354   1.771  14.547 -0.3017  0.4474 -0.7830
 1213TIP3   OH225129   2.500   5.488   3.343  0.5074  0.3714 -0.0460
 1213TIP3    H125130   2.428   5.543   3.313  1.1369  1.0245 -0.3865
 1213TIP3    H225131   2.555   5.476   3.266 -0.4718 -2.1720 -0.4435
 1214TIP3   OH225132   0.008   1.995   1.071  0.6294 -0.0396  0.3279
 1214TIP3    H125133  -0.068   2.053   1.067  1.5111  1.1602  0.3798
 1214TIP3    H225134   0.035   1.999   1.163  0.1207 -1.3365  0.5574
 1215TIP3   OH225135   2.710   0.084   5.471 -0.5654 -0.6564  0.4478
 1215TIP3    H125136   2.769   0.020   5.511 -0.3080 -1.6455 -1.3802
 1215TIP3    H225137   2.627   0.039   5.461 -0.7776 -0.2547  0.3594
 1216TIP3   OH225138   3.114   5.423   2.132  0.0342 -0.1080  0.5614
 1216TIP3    H125139   3.175   5.492   2.107  0.8669 -0.9573  0.2030
 1216TIP3    H225140   3.029   5.453   2.098  0.5564  0.2940 -0.4180
 1217TIP3   OH225141   6.619   1.879  14.184  0.2376  0.1343  0.0072
 1217TIP3    H125142   6.651   1.789  14.178  0.3207  0.2377 -1.5442
 1217TIP3    H225143   6.654   1.912  14.267 -0.4525 -1.4964  0.9807
 1218TIP3   OH225144   1.750   1.139   1.604  0.1168  0.1709  0.2684
 1218TIP3    H125145   1.707   1.223   1.588 -0.9454  0.2474  2.9311
 1218TIP3    H225146   1.841   1.163   1.621  0.1867  0.5798 -0.6241
 1219TIP3   OH225147   5.977   5.196  11.708 -0.1926 -0.3521 -0.0381
 1219TIP3    H125148   6.060   5.157  11.735  0.1683  0.6240  0.3153
 1219TIP3    H225149   6.002   5.262  11.643 -0.7860 -0.6835 -0.6145
 1220TIP3   OH225150   5.051   1.239  14.533  0.5648  0.3588 -0.1643
 1220TIP3    H125151   5.030   1.202  14.619 -0.7342 -0.3732 -0.7652
 1220TIP3    H225152   4.969   1.277  14.502  0.8866  0.2022 -1.2723
 1221TIP3   OH225153   6.075   4.732  16.614  0.3205  0.0927  0.2858
 1221TIP3    H125154   6.121   4.816  16.609  0.2369  0.1837  0.9976
 1221TIP3    H225155   6.081   4.707  16.706  0.2265 -0.6167  0.1021
 1222TIP3   OH225156   3.769   0.693  13.648  0.0379  0.1699  0.3133
 1222TIP3    H125157   3.780   0.776  13.601 -0.9437 -0.0957 -0.4185
 1222TIP3    H225158   3.782   0.626  13.581 -1.6768 -0.2062  0.2997
 1223TIP3   OH225159   3.474   6.170  13.019  0.0101  0.0290 -0.1374
 1223TIP3    H125160   3.481   6.261  12.991  1.0443  0.5417  1.6204
 1223TIP3    H225161   3.549   6.126  12.978  1.3236  0.7014  1.3955
 1224TIP3   OH225162   6.191   0.656  16.892  0.2500  0.6599 -0.1986
 1224TIP3    H125163   6.124   0.650  16.960 -0.4817 -0.9438 -0.9940
 1224TIP3    H225164   6.168   0.586  16.830  0.0502  2.8717 -2.8265
 1225TIP3   OH225165   2.612   3.589  12.097 -0.5949  0.4264  0.1180
 1225TIP3    H125166   2.682   3.648  12.070  0.0369 -0.3319  0.0702
 1225TIP3    H225167   2.546   3.646  12.137 -0.1676  1.1985 -0.2655
 1226TIP3   OH225168   3.027   0.751   2.631  0.2177  0.6052  0.0539
 1226TIP3    H125169   3.068   0.800   2.560 -0.4783  2.2335  0.7181
 1226TIP3    H225170   2.963   0.812   2.668  0.6489 -0.1395  2.1556
 1227TIP3   OH225171   5.084   3.197  14.636  0.2386 -0.2720 -0.1477
 1227TIP3    H125172   5.129   3.130  14.584  1.2896 -0.2822  0.7561
 1227TIP3    H225173   4.992   3.190  14.609  0.4860 -1.4527 -0.7358
 1228TIP3   OH225174   6.807   2.992   0.957 -0.4998 -0.1025 -0.1485
 1228TIP3    H125175   6.727   2.942   0.973 -0.9324  0.5114 -0.3431
 1228TIP3    H225176   6.779   3.064   0.900  0.3882 -0.4572 -1.0695
 1229TIP3   OH225177   0.355   0.582  16.223 -0.2595 -0.0990 -0.4292
 1229TIP3    H125178   0.425   0.582  16.287 -1.2256  0.0170  0.6558
 1229TIP3    H225179   0.396   0.613  16.142  0.9739 -0.2597  0.1168
 1230TIP3   OH225180   5.495   5.665   1.741 -0.8049  0.2657  0.1217
 1230TIP3    H125181   5.571   5.722   1.733  1.5530 -2.4009  1.4584
 1230TIP3    H225182   5.471   5.669   1.833  0.2913 -1.7436  0.5699
 1231TIP3   OH225183   0.445   6.650   1.234 -0.0128 -0.0789 -0.0856
 1231TIP3    H125184   0.412   6.566   1.202  1.1735 -0.0897 -1.4045
 1231TIP3    H225185   0.440   6.708   1.157 -0.2708  0.8879  0.6461
 1232TIP3   OH225186   5.670   1.710   5.626 -0.0997  0.0388  0.3263
 1232TIP3    H125187   5.753   1.741   5.589  0.6392 -2.9931 -0.8377
 1232TIP3    H225188   5.695   1.674   5.712 -0.1532 -0.9910 -0.0792
 1233TIP3   OH225189   0.731   4.196   4.010 -0.0543  0.4380 -0.2623
 1233TIP3    H125190   0.807   4.249   3.985 -1.0415  1.2403 -1.6599
 1233TIP3    H225191   0.753   4.108   3.981  1.4370  0.0735  1.7317
 1234TIP3   OH225192   3.348   0.582   1.628  0.5139 -0.0788  0.0749
 1234TIP3    H125193   3.331   0.673   1.605  1.4258  0.4839  1.4685
 1234TIP3    H225194   3.264   0.538   1.619 -0.1371  1.0983  0.2429
 1235TIP3   OH225195   0.052   0.204   5.413 -0.1197  0.6566  0.4294
 1235TIP3    H125196  -0.019   0.260   5.444 -0.4812 -0.0095  0.8338
 1235TIP3    H225197   0.127   0.228   5.467  0.4449  2.4697 -1.0232
 1236TIP3   OH225198   5.699   6.097  13.995 -0.3229  0.2881  0.6559
 1236TIP3    H125199   5.779   6.058  14.029 -0.4497 -1.1935 -0.6403
 1236TIP3    H225200   5.726   6.182  13.961  0.9475 -0.6532 -0.7637
 1237TIP3   OH225201   2.644   1.190   0.405 -0.2120  0.0872  0.0741
 1237TIP3    H125202   2.596   1.213   0.484 -0.0130 -0.2671  0.3013
 1237TIP3    H225203   2.731   1.229   0.419 -0.2245  0.1580 -0.0421
 1238TIP3   OH225204   3.753   6.503   1.275 -0.0117  0.1735 -0.4744
 1238TIP3    H125205   3.741   6.517   1.182 -1.5559 -1.0337 -0.4963
 1238TIP3    H225206   3.777   6.410   1.283 -0.4816  0.1076  0.3481
 1239TIP3   OH225207   3.373   0.846   3.261  0.2958 -0.2419  0.5933
 1239TIP3    H125208   3.463   0.860   3.293 -0.5088  2.0743  2.0667
 1239TIP3    H225209   3.362   0.912   3.193  0.1509 -1.4708 -0.5923
 1240TIP3   OH225210   3.026   3.973   0.036 -0.1494 -0.2104 -0.3360
 1240TIP3    H125211   3.004   4.003   0.124  1.2107 -2.3375  0.8236
 1240TIP3    H225212   3.074   4.046  -0.003 -1.8241  1.2442  0.1657
 1241TIP3   OH225213   5.766   1.052   4.232  0.9875 -0.6627  0.4027
 1241TIP3    H125214   5.717   1.131   4.208  0.5709 -0.7127  1.0650
 1241TIP3    H225215   5.831   1.043   4.162  0.5507 -0.1654 -0.0870
 1242TIP3   OH225216   0.323   6.834  11.065  0.3044  0.3276 -0.0505
 1242TIP3    H125217   0.261   6.762  11.079 -0.6985  1.1665 -0.0464
 1242TIP3    H225218   0.326   6.845  10.970  0.8662 -0.0526 -0.0834
 1243TIP3   OH225219   3.304   4.801   4.649  0.2110  0.4254  0.1172
 1243TIP3    H125220   3.279   4.822   4.739 -0.8109 -0.5000  0.0812
 1243TIP3    H225221   3.221   4.795   4.602  0.4212 -2.5242 -0.0786
 1244TIP3   OH225222   1.024   3.475  12.007 -0.3233  0.3328  0.1502
 1244TIP3    H125223   0.997   3.384  11.998 -0.1598  0.1358  1.4069
 1244TIP3    H225224   0.984   3.520  11.933 -1.6880 -0.4850  0.3641
 1245TIP3   OH225225   1.231   3.020  16.199  0.6245  0.7970 -0.3040
 1245TIP3    H125226   1.165   3.080  16.234 -0.4320 -0.0438 -0.7887
 1245TIP3    H225227   1.280   2.990  16.276 -1.0012 -0.2377  0.3964
 1246TIP3   OH225228   0.172   6.455  11.907 -0.0331  0.2074  0.7870
 1246TIP3    H125229   0.251   6.477  11.956  1.2556 -0.2433 -1.0144
 1246TIP3    H225230   0.125   6.538  11.898  0.5474  0.6009  1.3127
 1247TIP3   OH225231   2.634   3.791   3.598 -0.8802 -0.0907  0.2687
 1247TIP3    H125232   2.634   3.759   3.688 -0.0185  0.8026  0.5957
 1247TIP3    H225233   2.636   3.886   3.606  2.1791  0.0273 -0.6589
 1248TIP3   OH225234   5.890   0.305   2.577  0.4955  0.4099  0.0420
 1248TIP3    H125235   5.875   0.375   2.513  2.6641  0.2762 -0.7244
 1248TIP3    H225236   5.951   0.342   2.640 -0.7455  0.1665  1.4415
 1249TIP3   OH225237   1.406   4.093  17.123 -0.0946  0.3228 -0.0971
 1249TIP3    H125238   1.332   4.154  17.121 -0.0171  0.4078 -1.4982
 1249TIP3    H225239   1.434   4.092  17.214 -2.0599 -0.0002  0.5608
 1250TIP3   OH225240   1.566   6.834  14.063 -0.8842 -0.0824 -0.3069
 1250TIP3    H125241   1.492   6.783  14.097 -0.9668  0.0635 -0.2676
 1250TIP3    H225242   1.530   6.879  13.986 -0.6212 -0.6430 -0.7669
 1251TIP3   OH225243   6.798   6.603  16.623 -0.8200  0.2737 -0.3590
 1251TIP3    H125244   6.871   6.588  16.564 -0.1721 -0.8002  0.6750
 1251TIP3    H225245   6.768   6.515  16.646  0.0791  0.5733  2.2689
 1252TIP3   OH225246   5.984   1.011   2.429 -0.2203  0.3888  0.4379
 1252TIP3    H125247   5.932   0.977   2.356  0.7932 -0.4910  0.1051
 1252TIP3    H225248   5.920   1.056   2.485 -1.0233  1.1390 -1.0024
 1253TIP3   OH225249   1.701   3.607   0.281  0.1566 -0.3843  0.0022
 1253TIP3    H125250   1.690   3.595   0.375 -0.1818 -1.6776 -0.1831
 1253TIP3    H225251   1.612   3.607   0.246  0.2687  0.3036 -0.3006
 1254TIP3   OH225252   3.623   5.876   2.017 -0.3755  0.1561 -0.3655
 1254TIP3    H125253   3.680   5.913   2.084 -1.2836 -0.2499  0.6669
 1254TIP3    H225254   3.568   5.949   1.989 -0.0783  0.2969 -0.5875
 1255TIP3   OH225255   0.105   5.567  13.531  0.4738 -0.2566 -0.3770
 1255TIP3    H125256   0.134   5.655  13.506 -1.3106  0.4308 -0.1897
 1255TIP3    H225257   0.085   5.574  13.625  0.5141 -0.9092 -0.3158
 1256TIP3   OH225258   2.711   5.061  13.040  0.6936 -0.3441  0.0108
 1256TIP3    H125259   2.745   5.060  13.129 -0.8961  0.2980  0.6642
 1256TIP3    H225260   2.617   5.049  13.050  0.5320 -0.7789 -1.6336
 1257TIP3   OH225261   1.972   2.668   5.608 -0.0535 -0.3075 -0.3659
 1257TIP3    H125262   2.033   2.680   5.536  0.2325 -1.1663 -0.2823
 1257TIP3    H225263   1.890   2.708   5.578  0.4091  0.4288 -0.6675
 1258TIP3   OH225264   6.569   3.464   4.863  0.5005  0.1513  0.2516
 1258TIP3    H125265   6.507   3.535   4.845  1.6795  1.3255  0.6799
 1258TIP3    H225266   6.526   3.412   4.931 -0.4556  0.3368 -0.1887
 1259TIP3   OH225267   6.184   0.333   0.344  0.1272  0.4158 -0.0363
 1259TIP3    H125268   6.139   0.255   0.376 -0.4035  0.2678 -1.0886
 1259TIP3    H225269   6.220   0.374   0.422 -0.9704 -0.0183  0.7269
 1260TIP3   OH225270   1.750   1.088   4.327  0.2296  0.6420  0.0371
 1260TIP3    H125271   1.786   1.083   4.416  0.9492  2.0593 -0.1424
 1260TIP3    H225272   1.657   1.067   4.337  0.2349  1.1006  1.1738
 1261TIP3   OH225273   6.170   5.456  14.830  0.1678 -0.1854  0.9126
 1261TIP3    H125274   6.144   5.383  14.775  0.2052  0.4762  0.0021
 1261TIP3    H225275   6.141   5.431  14.918 -0.4383 -0.9777  0.4998
 1262TIP3   OH225276   0.068   4.829   2.521  0.5062 -0.6774 -0.2600
 1262TIP3    H125277   0.016   4.900   2.560  1.4882 -0.3742  0.5516
 1262TIP3    H225278   0.004   4.761   2.500 -0.1790 -0.5043  1.1378
 1263TIP3   OH225279   2.788   0.151  12.142 -0.5900 -0.1654  0.0677
 1263TIP3    H125280   2.782   0.219  12.209  1.1617 -0.0273  0.1248
 1263TIP3    H225281   2.741   0.188  12.067 -0.4248  0.7370  0.3917
 1264TIP3   OH225282   4.263   5.181   0.399 -0.0133  0.1903 -0.6101
 1264TIP3    H125283   4.299   5.227   0.475  1.3162  0.1051 -1.1573
 1264TIP3    H225284   4.339   5.164   0.344 -0.5597 -2.0683 -0.7502
 1265TIP3   OH225285   1.822   0.964  13.899 -0.8567  0.5070 -0.4110
 1265TIP3    H125286   1.806   0.894  13.962  1.0766  1.9637  1.8544
 1265TIP3    H225287   1.894   0.931  13.844  1.0242  1.1140  1.5396
 1266TIP3   OH225288   5.099   4.315  16.229 -0.3825 -0.0044 -0.5769
 1266TIP3    H125289   5.020   4.280  16.188 -1.2839  0.9728  0.2584
 1266TIP3    H225290   5.103   4.406  16.199 -0.6506  0.5119  0.8854
 1267TIP3   OH225291   0.845   4.664   3.261  0.6501 -0.1994 -0.1242
 1267TIP3    H125292   0.930   4.621   3.270  0.7063 -0.1817 -0.5861
 1267TIP3    H225293   0.847   4.734   3.327  1.8706  1.1920 -1.5570
 1268TIP3   OH225294   2.347   3.638  11.688 -0.1136  0.5161 -0.2736
 1268TIP3    H125295   2.420   3.614  11.746 -1.1078 -4.0811 -0.5812
 1268TIP3    H225296   2.275   3.658  11.748  0.1460  0.4804  0.0549
 1269TIP3   OH225297   6.560   5.145   3.160  0.0524  0.6022 -0.1607
 1269TIP3    H125298   6.550   5.069   3.103 -1.0447  1.3795 -1.0540
 1269TIP3    H225299   6.476   5.153   3.205  0.2616  1.1111  0.1525
 1270TIP3   OH225300   6.007   0.459   0.163 -0.6251  0.0875  0.6634
 1270TIP3    H125301   6.067   0.415   0.224  0.3137  2.0425  1.2140
 1270TIP3    H225302   5.925   0.468   0.212 -0.5826 -0.3202  0.8162
 1271TIP3   OH225303   5.349   6.369   2.178  0.0277  0.3430  0.3016
 1271TIP3    H125304   5.331   6.349   2.087 -1.6964 -1.1255  0.9124
 1271TIP3    H225305   5.270   6.414   2.209  0.5125  0.6442  1.1295
 1272TIP3   OH225306   3.298   3.016   4.659 -0.0977 -0.0829 -0.2069
 1272TIP3    H125307   3.301   3.107   4.687 -3.4053  0.3999 -1.0447
 1272TIP3    H225308   3.221   2.979   4.702  0.4719 -2.1858 -0.8238
 1273TIP3   OH225309   6.774   0.769  13.558  0.4539  0.3237  0.2317
 1273TIP3    H125310   6.848   0.723  13.519 -0.1595 -1.2232  0.8327
 1273TIP3    H225311   6.802   0.861  13.561  1.9364 -0.0786 -0.4639
 1274TIP3   OH225312   4.581   0.909  16.646 -0.2038 -0.2718  0.3882
 1274TIP3    H125313   4.661   0.961  16.638  0.6247 -1.6250 -0.5730
 1274TIP3    H225314   4.579   0.880  16.737 -1.2274  2.2023  1.2405
 1275TIP3   OH225315   2.743   2.220   0.531  0.0448 -0.3372  0.4836
 1275TIP3    H125316   2.781   2.139   0.496 -1.3173 -1.6641  1.8939
 1275TIP3    H225317   2.811   2.286   0.518  1.3314 -1.7630 -0.4216
 1276TIP3   OH225318   0.538   0.024  16.162  0.4607  0.5417  0.1428
 1276TIP3    H125319   0.625   0.062  16.166  0.7319 -0.1508  1.0834
 1276TIP3    H225320   0.551  -0.070  16.177 -0.2990  0.2021 -1.1545
 1277TIP3   OH225321   0.794   1.688  12.392 -0.3310 -0.0926 -0.4790
 1277TIP3    H125322   0.865   1.752  12.387 -0.2142 -0.3089 -3.0364
 1277TIP3    H225323   0.715   1.740  12.403 -0.1908  0.4975 -2.0858
 1278TIP3   OH225324   0.259   0.479   1.481 -0.0733  0.6022 -0.3834
 1278TIP3    H125325   0.320   0.456   1.552  0.4237  0.2058 -0.9269
 1278TIP3    H225326   0.273   0.573   1.468  0.1847  0.5820 -0.2746
 1279TIP3   OH225327   5.559   2.040  12.710  0.1086 -0.7351 -0.4426
 1279TIP3    H125328   5.558   1.996  12.795 -0.1537  0.6037  0.2725
 1279TIP3    H225329   5.646   2.021  12.674  0.5565 -0.5707  0.5294
 1280TIP3   OH225330   4.967   3.956   2.676 -0.2628  0.1931  0.4276
 1280TIP3    H125331   5.005   3.870   2.662 -0.9823 -0.1418  0.4611
 1280TIP3    H225332   5.028   4.001   2.735  0.0458 -0.3431  0.5139
 1281TIP3   OH225333   3.949   1.620   0.211 -0.0566  0.6923 -0.1110
 1281TIP3    H125334   3.965   1.714   0.216 -0.4017  0.7797 -0.5419
 1281TIP3    H225335   3.853   1.612   0.213 -0.0317  0.3589 -0.1761
 1282TIP3   OH225336   4.780   6.123  14.241  0.5012  0.2339 -0.0510
 1282TIP3    H125337   4.830   6.162  14.313 -0.1134  2.3770 -0.7080
 1282TIP3    H225338   4.764   6.033  14.269  1.1287  0.7123  2.0378
 1283TIP3   OH225339   2.003   3.437   3.273  0.4357  0.5030  0.9755
 1283TIP3    H125340   2.052   3.477   3.201  0.9976 -0.8930  0.5427
 1283TIP3    H225341   1.920   3.410   3.233  0.5548  0.1592  0.9525
 1284TIP3   OH225342   2.893   1.506  12.380  0.5972 -0.0197  0.1515
 1284TIP3    H125343   2.916   1.448  12.307  0.6938  1.3145 -0.9159
 1284TIP3    H225344   2.797   1.509  12.379  0.5875 -0.2736  0.3012
 1285TIP3   OH225345   3.838   3.006   1.241 -0.3224 -0.6472  0.3053
 1285TIP3    H125346   3.824   3.006   1.336  2.1353 -1.8267  0.7353
 1285TIP3    H225347   3.914   3.062   1.228 -0.5633 -0.5908 -0.9733
 1286TIP3   OH225348   2.290   4.157  15.991 -0.3304 -0.6874 -0.0152
 1286TIP3    H125349   2.310   4.244  16.026 -1.4404 -0.3637 -0.1368
 1286TIP3    H225350   2.255   4.109  16.066  0.6130 -1.1576  0.1368
 1287TIP3   OH225351   3.993   1.203   2.947 -0.0222  0.1479 -0.4710
 1287TIP3    H125352   4.075   1.165   2.976 -1.0975 -0.4065  2.0579
 1287TIP3    H225353   4.016   1.292   2.919  1.4554 -0.0475  0.0605
 1288TIP3   OH225354   5.326   2.487   3.736  0.3092  0.0247  0.6310
 1288TIP3    H125355   5.245   2.503   3.786 -0.4569  0.7860 -0.7953
 1288TIP3    H225356   5.386   2.555   3.767 -0.9167  1.9779 -1.0329
 1289TIP3   OH225357   4.308   1.154   4.483  0.0234  0.3861  0.1764
 1289TIP3    H125358   4.293   1.136   4.575 -0.0056 -1.5316 -0.1726
 1289TIP3    H225359   4.278   1.076   4.437  2.0943  0.3620 -1.2902
 1290TIP3   OH225360   3.485   5.064   6.531 -0.4193 -0.0158  0.1878
 1290TIP3    H125361   3.510   5.155   6.515  0.5124  0.1171  2.0953
 1290TIP3    H225362   3.567   5.016   6.529 -0.6635 -0.4921  1.0361
 1291TIP3   OH225363   0.130   4.965  15.401  0.0376  0.4224 -0.6292
 1291TIP3    H125364   0.212   4.990  15.444  0.3968 -0.0953 -0.9926
 1291TIP3    H225365   0.136   5.006  15.314 -1.4988  3.0228  0.3708
 1292TIP3   OH225366   5.170   0.823   3.324 -0.0233 -0.1171  0.6238
 1292TIP3    H125367   5.159   0.767   3.401  1.1805 -0.7140  0.3866
 1292TIP3    H225368   5.264   0.824   3.308 -0.3136 -1.1441 -1.6390
 1293TIP3   OH225369   2.375   2.389  15.892 -0.1072  0.0030  0.1763
 1293TIP3    H125370   2.373   2.416  15.800 -1.9626 -0.6969 -0.0264
 1293TIP3    H225371   2.339   2.463  15.940 -0.7341 -0.2741  0.1415
 1294TIP3   OH225372   6.710   1.066  12.984  0.0042  0.1607  0.3363
 1294TIP3    H125373   6.679   1.066  13.074 -0.7682 -2.9726  0.1943
 1294TIP3    H225374   6.632   1.084  12.931  0.3938  1.6834  0.2376
 1295TIP3   OH225375   5.784   5.746   1.678  0.3200 -0.1285 -0.6430
 1295TIP3    H125376   5.804   5.775   1.589  2.7667  2.8286  0.6852
 1295TIP3    H225377   5.736   5.820   1.717 -2.9178 -2.3117 -0.0719
 1296TIP3   OH225378   3.601   6.124   5.286 -0.3114  0.3218 -0.2484
 1296TIP3    H125379   3.543   6.060   5.244 -0.7212  0.5790 -0.0751
 1296TIP3    H225380   3.601   6.101   5.378 -0.2732  0.4289 -0.2211
 1297TIP3   OH225381   1.806   4.340   1.977 -0.0086  0.5178 -0.2249
 1297TIP3    H125382   1.713   4.353   1.993 -0.2378  1.3747 -2.0149
 1297TIP3    H225383   1.814   4.338   1.882  1.4439 -2.5079 -0.1395
 1298TIP3   OH225384   4.906   5.961   2.721 -0.1683 -0.2904 -0.5476
 1298TIP3    H125385   4.859   5.963   2.804  0.7613 -0.6733  0.0008
 1298TIP3    H225386   4.923   6.053   2.702  2.1838 -0.2675  1.2171
 1299TIP3   OH225387   4.082   6.739  15.422 -0.1968  0.1587  0.0176
 1299TIP3    H125388   4.016   6.804  15.398  0.0398 -0.2281 -1.8539
 1299TIP3    H225389   4.140   6.785  15.482  0.8446  2.2284 -2.4179
 1300TIP3   OH225390   2.861   5.163  17.000 -0.1770 -0.3018 -0.3856
 1300TIP3    H125391   2.938   5.114  17.030 -1.1641 -1.3515  0.5258
 1300TIP3    H225392   2.866   5.247  17.046 -0.4172 -0.9886  0.9377
 1301TIP3   OH225393   3.520   2.983  10.251 -1.0521  0.3409 -0.3369
 1301TIP3    H125394   3.602   2.986  10.301 -1.1796  0.1410 -0.1171
 1301TIP3    H225395   3.540   3.033  10.171 -0.3856 -0.5752 -0.7663
 1302TIP3   OH225396   2.795   1.568  14.237  0.4526  0.2995 -0.0839
 1302TIP3    H125397   2.798   1.645  14.181 -2.6489  0.7330  0.1514
 1302TIP3    H225398   2.753   1.599  14.318  2.1201 -0.9704  1.3519
 1303TIP3   OH225399   2.285   4.522  15.179 -0.3612  0.4601 -0.0002
 1303TIP3    H125400   2.360   4.514  15.120  1.7263 -0.0994  2.5382
 1303TIP3    H225401   2.292   4.610  15.216 -1.3914  0.6428 -0.1880
 1304TIP3   OH225402   5.336   4.630  15.330  0.1264 -0.1359 -0.4626
 1304TIP3    H125403   5.378   4.650  15.414 -0.3318 -1.7279  0.1888
 1304TIP3    H225404   5.335   4.534  15.327 -1.5505 -0.1121 -1.4378
 1305TIP3   OH225405   6.542   5.309  14.836  0.2554  0.0857  0.5922
 1305TIP3    H125406   6.530   5.365  14.913  3.1605  1.8536 -0.0923
 1305TIP3    H225407   6.621   5.342  14.794 -0.8526 -1.1836 -2.8732
 1306TIP3   OH225408   1.709   1.114   3.035  0.0144  0.3761 -0.3333
 1306TIP3    H125409   1.649   1.150   2.969 -1.5764 -0.6624  0.4663
 1306TIP3    H225410   1.751   1.040   2.991  0.0198  0.5473 -0.6182
 1307TIP3   OH225411   2.998   1.195  16.815 -0.8075 -0.1312  0.2223
 1307TIP3    H125412   3.039   1.115  16.846  0.9425  0.2038 -1.0946
 1307TIP3    H225413   2.911   1.167  16.786 -1.0961 -1.0955  1.8450
 1308TIP3   OH225414   4.217   6.034  10.807  0.0530  0.4930  0.7966
 1308TIP3    H125415   4.162   5.989  10.743 -1.2338  1.5037  1.1388
 1308TIP3    H225416   4.267   6.098  10.756  1.4070 -0.8284  0.4016
 1309TIP3   OH225417   5.818   6.427  14.990  0.1838  0.1320  0.1904
 1309TIP3    H125418   5.730   6.389  14.993  0.1861  0.0565 -0.5985
 1309TIP3    H225419   5.876   6.355  15.017  0.1693 -0.3883 -1.0929
 1310TIP3   OH225420   6.507   4.879  15.028 -0.2432 -0.0692 -0.2405
 1310TIP3    H125421   6.576   4.944  15.041 -0.2042 -0.0817 -0.3822
 1310TIP3    H225422   6.446   4.921  14.966  0.1193 -0.4181 -0.8475
 1311TIP3   OH225423   5.068   1.341   3.739 -0.2414  0.5440 -0.1012
 1311TIP3    H125424   5.138   1.356   3.675 -0.1748  0.2039 -0.1090
 1311TIP3    H225425   5.113   1.322   3.821 -0.3074 -0.5930 -0.3140
 1312TIP3   OH225426   1.233   0.901   3.250 -0.4861 -0.2397 -0.1277
 1312TIP3    H125427   1.313   0.939   3.287 -1.3361  2.3440 -0.7257
 1312TIP3    H225428   1.231   0.934   3.160 -1.8942 -0.7585 -0.3079
 1313TIP3   OH225429   2.596   0.362   5.767 -0.4429 -0.1921 -0.2346
 1313TIP3    H125430   2.638   0.300   5.827 -1.9385  0.1832  1.2435
 1313TIP3    H225431   2.565   0.433   5.822  1.5740  2.1706 -1.9422
 1314TIP3   OH225432   1.375   1.592   0.911  0.3072  0.2938  0.4703
 1314TIP3    H125433   1.366   1.514   0.856  1.9619 -0.0637  0.6230
 1314TIP3    H225434   1.427   1.653   0.858  0.4861  0.6033  0.9918
 1315TIP3   OH225435   0.193   5.553  14.793 -0.0034 -0.8048 -0.0886
 1315TIP3    H125436   0.267   5.559  14.854  1.0211  1.4381 -1.4224
 1315TIP3    H225437   0.228   5.506  14.718 -0.0026  0.0425 -0.6244
 1316TIP3   OH225438   2.284   2.762  14.268  0.8684  0.3758  0.1002
 1316TIP3    H125439   2.196   2.727  14.254  1.5561 -1.3464 -0.2556
 1316TIP3    H225440   2.289   2.839  14.212  0.4299 -1.0127 -1.9804
 1317TIP3   OH225441   2.990   6.791   1.400 -0.4223 -0.2604 -0.3244
 1317TIP3    H125442   3.018   6.780   1.491 -0.8179  1.1063 -0.0222
 1317TIP3    H225443   2.945   6.875   1.399 -2.3672 -1.2598 -1.3142
 1318TIP3   OH225444   2.358   4.095  13.377 -0.3823 -0.2926 -0.1073
 1318TIP3    H125445   2.368   4.108  13.471  3.2111 -1.2486 -0.2118
 1318TIP3    H225446   2.336   4.002  13.368 -2.3270  0.1390 -0.2231
 1319TIP3   OH225447   0.548   4.892   4.017  0.0250  0.3976 -0.4311
 1319TIP3    H125448   0.545   4.819   3.954 -0.0457  0.6270 -0.6969
 1319TIP3    H225449   0.597   4.857   4.091 -0.5719 -0.1317 -0.2772
 1320TIP3   OH225450   4.715   5.371   5.900 -0.6991  0.1395 -0.0618
 1320TIP3    H125451   4.775   5.302   5.927  0.2598  0.5382 -1.0822
 1320TIP3    H225452   4.660   5.387   5.976  0.8415  0.1273  1.0955
 1321TIP3   OH225453   6.667   0.463  14.304 -0.2019 -0.2089  0.6447
 1321TIP3    H125454   6.662   0.556  14.282 -0.6428 -0.3264  0.2228
 1321TIP3    H225455   6.592   0.424  14.259  0.7156 -0.9764 -0.2731
 1322TIP3   OH225456   6.375   0.141   6.571 -0.4666 -0.3814 -0.4201
 1322TIP3    H125457   6.443   0.084   6.608 -0.7785 -1.2952 -1.2022
 1322TIP3    H225458   6.419   0.225   6.558  0.1698 -0.5997  0.2180
 1323TIP3   OH225459   3.189   1.470  13.270  0.0184 -0.1214 -0.1933
 1323TIP3    H125460   3.259   1.405  13.280  1.0737  0.9763 -0.1749
 1323TIP3    H225461   3.174   1.474  13.175  1.1664  0.8181 -0.3556
 1324TIP3   OH225462   3.995   0.400  13.924  0.6045  0.0564 -0.3712
 1324TIP3    H125463   3.998   0.333  13.855 -0.3419 -0.3472 -0.0301
 1324TIP3    H225464   4.068   0.378  13.982  1.9109  0.8593 -1.6365
 1325TIP3   OH225465   6.308   4.639   5.909  0.2648  0.8044  0.0231
 1325TIP3    H125466   6.287   4.618   6.001 -2.3822 -0.9833 -0.8616
 1325TIP3    H225467   6.247   4.709   5.887 -0.6574 -0.2550 -0.9156
 1326TIP3   OH225468   5.319   4.724   6.000 -0.0643  0.1005  0.1504
 1326TIP3    H125469   5.408   4.689   6.008  0.1275  0.6575  0.5515
 1326TIP3    H225470   5.262   4.654   6.032  0.2323 -0.2678 -0.1300
 1327TIP3   OH225471   2.016   4.665  12.955 -0.5438 -0.1106 -0.1086
 1327TIP3    H125472   1.951   4.667  12.885  0.0239 -0.6365 -0.6675
 1327TIP3    H225473   2.037   4.757  12.971 -1.0763  0.0406 -0.2407
 1328TIP3   OH225474   1.783   2.529   5.403  0.1007  0.1345 -0.0299
 1328TIP3    H125475   1.785   2.487   5.489 -0.1247  1.6638  0.7635
 1328TIP3    H225476   1.764   2.621   5.422 -2.2494  0.1143 -1.8680
 1329TIP3   OH225477   6.675   6.000   4.585  0.6581  0.2148 -0.3253
 1329TIP3    H125478   6.600   5.947   4.613 -0.7000  2.1232 -0.1542
 1329TIP3    H225479   6.734   6.000   4.661  0.9013 -1.3500 -0.4806
 1330TIP3   OH225480   3.800   1.968  13.327  0.1205  0.2272 -0.3946
 1330TIP3    H125481   3.765   1.883  13.354 -0.9201  0.9632  0.6613
 1330TIP3    H225482   3.861   1.947  13.257 -0.6284 -1.3299 -0.6274
 1331TIP3   OH225483   3.952   1.471  15.962 -0.0973  0.0271  0.0414
 1331TIP3    H125484   3.917   1.383  15.948 -1.9261  0.7111 -0.0092
 1331TIP3    H225485   3.876   1.529  15.953  0.8052  1.5092  1.3088
 1332TIP3   OH225486   5.576   6.298   3.438  0.4320 -0.2197 -0.2506
 1332TIP3    H125487   5.542   6.235   3.502 -1.5071  0.8500 -0.1522
 1332TIP3    H225488   5.652   6.254   3.400  0.9404 -1.3993  1.9001
 1333TIP3   OH225489   1.812   2.453  12.858 -0.0995  0.5215 -0.4231
 1333TIP3    H125490   1.759   2.523  12.819  0.9065  1.1402 -0.7155
 1333TIP3    H225491   1.751   2.380  12.868 -1.2819  1.5567  0.2566
 1334TIP3   OH225492   5.857   2.176   5.144 -0.0820 -0.3495  0.3569
 1334TIP3    H125493   5.939   2.132   5.119 -0.0147  0.3235 -0.6856
 1334TIP3    H225494   5.849   2.160   5.238  1.3541 -0.2615  0.5226
 1335TIP3   OH225495   0.482   3.955  12.411  0.1279  0.0633 -0.2998
 1335TIP3    H125496   0.542   3.881  12.425 -0.5588 -1.0949 -2.7292
 1335TIP3    H225497   0.424   3.954  12.486  2.3834  0.5085  1.5558
 1336TIP3   OH225498   0.200   6.226   4.175  0.2024  0.3918 -0.3249
 1336TIP3    H125499   0.136   6.210   4.244  1.4526  1.7091  1.2122
 1336TIP3    H225500   0.206   6.321   4.169  0.7319  0.3001 -1.6990
 1337TIP3   OH225501   6.215   4.196   0.750  0.2029  0.4224  0.0749
 1337TIP3    H125502   6.294   4.148   0.773  0.8075  0.1450 -2.3008
 1337TIP3    H225503   6.246   4.281   0.719 -0.4921  0.6494 -0.0262
 1338TIP3   OH225504   5.762   0.103  16.331  0.3026  0.1856  0.1241
 1338TIP3    H125505   5.741   0.037  16.397  0.7870  1.3831  1.5531
 1338TIP3    H225506   5.678   0.126  16.292  0.1127 -1.1619 -0.3159
 1339TIP3   OH225507   1.720   3.266  13.439  0.4876 -0.4115  0.5006
 1339TIP3    H125508   1.641   3.220  13.413  0.0381 -0.4460  1.8615
 1339TIP3    H225509   1.758   3.212  13.508  1.0952  0.1746  0.6391
 1340TIP3   OH225510   5.938   0.569  17.036 -0.7601 -0.8307  0.3925
 1340TIP3    H125511   5.886   0.650  17.029  0.6233  0.0748  0.2726
 1340TIP3    H225512   5.944   0.553  17.130  0.3146  0.1360  0.5091
 1341TIP3   OH225513   4.873   1.982   5.528  0.0203 -0.4661 -0.0900
 1341TIP3    H125514   4.792   2.022   5.497  0.8276  2.0472  0.8007
 1341TIP3    H225515   4.937   1.998   5.458  0.7220  1.2435  0.8857
 1342TIP3   OH225516   0.823   3.878  15.931 -0.2871 -0.0022  0.2661
 1342TIP3    H125517   0.752   3.824  15.965  0.4694 -0.0235  1.9263
 1342TIP3    H225518   0.784   3.965  15.921 -1.2304 -0.5900 -1.4270
 1343TIP3   OH225519   3.353   1.680  11.408 -0.3907  0.1416  0.3753
 1343TIP3    H125520   3.446   1.674  11.430 -0.9440 -1.1127  2.6626
 1343TIP3    H225521   3.308   1.653  11.488 -2.7087 -2.1774 -1.5724
 1344TIP3   OH225522   4.598   5.339   0.833  0.5944 -0.1553  0.2012
 1344TIP3    H125523   4.617   5.245   0.835  1.9412  0.0873  0.0427
 1344TIP3    H225524   4.630   5.368   0.748 -0.9633  0.2403 -0.2718
 1345TIP3   OH225525   1.765   1.873  15.447  0.1747  0.2874  0.5955
 1345TIP3    H125526   1.813   1.889  15.366  0.7276  2.9991  1.3628
 1345TIP3    H225527   1.673   1.879  15.422  0.1285 -3.2708 -0.5621
 1346TIP3   OH225528   4.167   1.453   4.440 -0.1532 -0.0301  0.0216
 1346TIP3    H125529   4.245   1.493   4.402 -0.8139  0.4505 -0.8538
 1346TIP3    H225530   4.130   1.401   4.369 -2.7169  2.7258 -0.8384
 1347TIP3   OH225531   4.775   1.614  11.613 -0.0706  0.6577  0.4062
 1347TIP3    H125532   4.760   1.524  11.584 -0.8642  1.6453 -2.7197
 1347TIP3    H225533   4.868   1.616  11.636 -0.1004 -1.0112  0.8231
 1348TIP3   OH225534   3.801   2.266  16.283  0.1506 -0.5180 -1.1399
 1348TIP3    H125535   3.890   2.286  16.257  0.4600 -0.4908 -0.1051
 1348TIP3    H225536   3.771   2.200  16.220  0.0518  1.1581 -2.9524
 1349TIP3   OH225537   1.576   1.223  15.558 -0.3927  0.1162 -0.2845
 1349TIP3    H125538   1.528   1.161  15.614  1.1390 -0.2133  0.7202
 1349TIP3    H225539   1.612   1.287  15.619  0.8903  0.0332 -0.9207
 1350TIP3   OH225540   0.219   6.153   2.888 -0.2304  0.2361  0.2270
 1350TIP3    H125541   0.266   6.162   2.971 -1.8203  1.2935  1.0572
 1350TIP3    H225542   0.239   6.064   2.859 -0.6508 -0.6231  2.4000
 1351TIP3   OH225543   0.350   1.941  13.058  0.0669  0.4761 -0.6233
 1351TIP3    H125544   0.289   1.899  12.999  1.4326 -2.4132 -0.1745
 1351TIP3    H225545   0.298   1.964  13.135 -0.5723 -1.7512 -0.3183
 1352TIP3   OH225546   0.048   0.537   1.921 -0.3163 -0.3981 -0.4434
 1352TIP3    H125547   0.115   0.522   1.988  0.1225 -0.0626 -0.8125
 1352TIP3    H225548   0.020   0.627   1.935 -0.2170 -0.3254 -0.7271
 1353TIP3   OH225549   2.444   4.681   5.362 -0.3581 -0.0056  0.0578
 1353TIP3    H125550   2.449   4.662   5.456  3.3868 -3.1836 -0.5102
 1353TIP3    H225551   2.367   4.634   5.332 -0.2253 -1.0277  1.2385
 1354TIP3   OH225552   0.064   4.213   1.768 -0.0050 -0.2809 -0.1600
 1354TIP3    H125553   0.121   4.154   1.816  0.4554 -1.0298 -1.5710
 1354TIP3    H225554   0.064   4.294   1.820  2.0804 -0.3638  0.0541
 1355TIP3   OH225555   2.635   3.661   2.892  0.1226 -0.2338  0.7485
 1355TIP3    H125556   2.570   3.649   2.960  1.0685  0.6155  1.8475
 1355TIP3    H225557   2.690   3.583   2.897 -0.8576 -1.0272 -0.2871
 1356TIP3   OH225558   2.547   6.549   5.258 -0.1810  0.6457 -0.1287
 1356TIP3    H125559   2.471   6.574   5.311 -0.5934 -0.0529 -0.3703
 1356TIP3    H225560   2.617   6.607   5.287 -0.4921  0.5143  0.9351
 1357TIP3   OH225561   6.690   2.838  15.116  0.0478  0.2741 -0.1551
 1357TIP3    H125562   6.767   2.847  15.059  1.0437 -2.5363  0.5624
 1357TIP3    H225563   6.617   2.867  15.062  1.2745  0.3136 -1.9012
 1358TIP3   OH225564   3.459   3.413   1.379  0.6168  1.1354  0.1980
 1358TIP3    H125565   3.442   3.326   1.415 -0.1191  1.7034  1.2809
 1358TIP3    H225566   3.527   3.399   1.313  1.9885  0.0386  1.7589
 1359TIP3   OH225567   4.575   3.934   3.241 -0.2467 -0.6419 -0.4788
 1359TIP3    H125568   4.630   3.903   3.314  1.4720  1.5157 -0.7478
 1359TIP3    H225569   4.564   3.856   3.186  0.5504 -1.7223  0.8023
 1360TIP3   OH225570   4.232   0.361  11.398 -0.0515 -0.4480 -0.4235
 1360TIP3    H125571   4.187   0.445  11.387  0.7830  0.0404 -0.2325
 1360TIP3    H225572   4.274   0.346  11.314  0.4045 -0.3011 -0.2253
 1361TIP3   OH225573   4.066   3.951   3.753  0.2253 -0.1781 -0.1499
 1361TIP3    H125574   4.029   4.039   3.751  0.3081 -0.1446 -0.2107
 1361TIP3    H225575   4.052   3.917   3.664 -1.2473 -0.8248  0.2915
 1362TIP3   OH225576   2.601   0.368  16.017  0.0783 -0.1644  0.3538
 1362TIP3    H125577   2.544   0.406  16.084  0.9977 -2.2955  2.5074
 1362TIP3    H225578   2.541   0.343  15.946 -1.2862  0.0788  1.3717
 1363TIP3   OH225579   4.666   3.430  17.129 -1.4255  0.3758  0.0511
 1363TIP3    H125580   4.743   3.404  17.180 -1.0450  0.7718 -0.3233
 1363TIP3    H225581   4.691   3.513  17.088 -1.8956  0.2869 -0.4198
 1364TIP3   OH225582   5.394   5.762  12.870 -0.1498 -0.5885  0.2907
 1364TIP3    H125583   5.381   5.820  12.945  0.7164  2.4591 -1.7392
 1364TIP3    H225584   5.487   5.740  12.872 -0.6317 -2.8478  1.5628
 1365TIP3   OH225585   0.499   1.186   2.223  0.5207 -0.2358  0.0273
 1365TIP3    H125586   0.419   1.183   2.171  0.8426  1.1552 -0.6026
 1365TIP3    H225587   0.481   1.131   2.299  0.1149 -2.5190 -1.6149
 1366TIP3   OH225588   3.837   0.641   1.165  0.1447  0.0542 -0.1423
 1366TIP3    H125589   3.810   0.709   1.228  1.8132  0.3205  0.3139
 1366TIP3    H225590   3.931   0.634   1.176 -0.0344 -2.9018  0.3817
 1367TIP3   OH225591   2.055   5.751  11.908 -0.2641  0.0856  0.6719
 1367TIP3    H125592   2.131   5.722  11.859  0.9762  1.7115  1.5283
 1367TIP3    H225593   1.987   5.687  11.888  0.0241  0.7771 -3.3461
 1368TIP3   OH225594   3.200   0.897   2.458  0.5862 -0.4572 -0.1550
 1368TIP3    H125595   3.279   0.852   2.427  0.9828  0.3486 -0.3254
 1368TIP3    H225596   3.160   0.932   2.379 -0.1967 -1.2373 -0.1250
 1369TIP3   OH225597   4.444   6.603   5.032  0.7533 -1.1875  0.2876
 1369TIP3    H125598   4.379   6.554   5.083  1.9365 -0.9908  2.0851
 1369TIP3    H225599   4.442   6.562   4.946 -1.0557 -1.8120  0.5686
 1370TIP3   OH225600   0.098   5.397  16.455  0.0222 -0.4333 -0.4869
 1370TIP3    H125601   0.008   5.429  16.467 -0.0248 -0.2458 -1.2997
 1370TIP3    H225602   0.087   5.306  16.428  0.1426 -1.0186  1.3365
 1371TIP3   OH225603   6.210   0.333   3.353  0.0538  0.4213 -0.3744
 1371TIP3    H125604   6.270   0.405   3.338 -1.6413  1.5792 -2.1940
 1371TIP3    H225605   6.225   0.273   3.279  0.7087 -0.5878  0.5477
 1372TIP3   OH225606   2.480   4.132   3.208  0.0066  0.3934  0.6928
 1372TIP3    H125607   2.506   4.224   3.203 -0.1421  0.3715 -0.8262
 1372TIP3    H225608   2.556   4.083   3.175 -1.0406  0.1969 -1.5996
 1373TIP3   OH225609   1.384   2.681  16.008  0.2447 -0.8955  0.3586
 1373TIP3    H125610   1.303   2.719  16.040  0.6014 -0.5983  0.9028
 1373TIP3    H225611   1.372   2.586  16.020  0.1338 -0.8268  0.7961
 1374TIP3   OH225612   4.214   1.112  15.023 -0.1195  0.0502 -0.0493
 1374TIP3    H125613   4.272   1.180  15.057 -0.4089  0.0985  0.3406
 1374TIP3    H225614   4.263   1.075  14.949  0.1872  0.4433 -0.0498
 1375TIP3   OH225615   1.925   4.967   3.755  0.1621 -0.1043 -0.1488
 1375TIP3    H125616   1.944   4.996   3.844  1.5102 -1.7037  0.1197
 1375TIP3    H225617   1.837   5.001   3.738 -0.8598 -1.1798  2.4381
 1376TIP3   OH225618   6.735   2.619  13.481 -0.6338  0.1510  0.4352
 1376TIP3    H125619   6.743   2.546  13.419 -1.9796 -1.9064  2.4986
 1376TIP3    H225620   6.806   2.679  13.457  0.2805 -1.6019 -1.6380
 1377TIP3   OH225621   6.742   5.708  13.916  0.1342  0.1095 -0.1762
 1377TIP3    H125622   6.704   5.637  13.865 -2.4770 -0.3097  2.1227
 1377TIP3    H225623   6.747   5.673  14.006 -0.5737  2.5620  0.8964
 1378TIP3   OH225624   4.868   0.915   1.736  0.2179  0.1306  0.3280
 1378TIP3    H125625   4.826   0.973   1.672  0.8230  0.4805  0.2463
 1378TIP3    H225626   4.865   0.828   1.695  1.9698  0.5936 -0.8667
 1379TIP3   OH225627   5.891   0.448   0.850  0.5816  0.0788 -0.1739
 1379TIP3    H125628   5.974   0.491   0.871 -0.3411  0.7956  2.3926
 1379TIP3    H225629   5.825   0.501   0.894 -1.2501 -0.6511 -1.8961
 1380TIP3   OH225630   2.039   2.840   0.358  0.3687 -0.6462 -0.2202
 1380TIP3    H125631   1.985   2.892   0.418  0.5567  0.0554 -0.6413
 1380TIP3    H225632   2.062   2.762   0.408 -1.1459 -1.0376 -0.0686
 1381TIP3   OH225633   5.774   5.358  14.168  0.4470  0.1892  0.4518
 1381TIP3    H125634   5.727   5.349  14.085 -0.8924  0.6712  1.1396
 1381TIP3    H225635   5.761   5.449  14.193  0.5627 -0.0398  1.3658
 1382TIP3   OH225636   2.009   5.096   0.510  0.3246 -0.0468 -0.4187
 1382TIP3    H125637   1.977   5.017   0.465  1.3223 -1.4686  1.2473
 1382TIP3    H225638   1.965   5.168   0.466 -0.1497 -1.4811 -2.4315
 1383TIP3   OH225639   4.058   2.870   0.973  0.0261  0.4844  0.3678
 1383TIP3    H125640   4.076   2.938   0.907  0.0545 -0.8120 -1.0053
 1383TIP3    H225641   3.963   2.858   0.970  0.0311  0.3968  0.5480
 1384TIP3   OH225642   6.781   1.504   0.974 -0.2695  0.7997 -0.0679
 1384TIP3    H125643   6.847   1.530   0.909 -0.9697  2.0344 -0.3146
 1384TIP3    H225644   6.727   1.582   0.985 -0.6037  0.3715  1.4775
 1385TIP3   OH225645   3.800   3.194  14.751  0.4281  0.3811  0.0561
 1385TIP3    H125646   3.830   3.220  14.664  0.0386 -0.4491 -0.3406
 1385TIP3    H225647   3.857   3.122  14.775 -1.1322 -1.1809 -0.6844
 1386TIP3   OH225648   3.315   4.986   0.734  0.5689  0.1018 -0.1196
 1386TIP3    H125649   3.288   4.905   0.691  0.3010 -0.0384  0.3115
 1386TIP3    H225650   3.242   5.009   0.791  0.3814  0.9767 -0.6854
 1387TIP3   OH225651   1.196   5.776  13.789  0.0464 -0.0096  0.2657
 1387TIP3    H125652   1.279   5.727  13.788 -0.7584 -1.4370 -0.7920
 1387TIP3    H225653   1.177   5.792  13.697 -0.9743  0.0630  0.4830
 1388TIP3   OH225654   4.600   4.024   5.036 -0.7206  0.0361  0.2212
 1388TIP3    H125655   4.653   4.005   4.958  0.1799  2.8889  0.0175
 1388TIP3    H225656   4.550   3.944   5.051  1.5098 -1.7816 -1.3110
 1389TIP3   OH225657   6.844   6.168   3.265 -0.1980  0.7689 -0.1899
 1389TIP3    H125658   6.841   6.090   3.321 -0.0223 -0.1708 -1.4480
 1389TIP3    H225659   6.890   6.233   3.318  0.7251 -0.3568  0.4465
 1390TIP3   OH225660   2.321   2.708   3.301  0.2335 -0.5591 -0.7831
 1390TIP3    H125661   2.316   2.708   3.397 -0.1837 -0.4927 -0.8063
 1390TIP3    H225662   2.414   2.694   3.282  0.4473  0.2700 -0.3617
 1391TIP3   OH225663   4.973   3.922  15.714 -0.2525 -0.4785 -0.4081
 1391TIP3    H125664   5.042   3.983  15.740 -1.4659  0.6929  0.1828
 1391TIP3    H225665   4.958   3.941  15.622 -0.9403  0.4522 -0.1122
 1392TIP3   OH225666   2.768   5.541   0.698 -0.5687 -0.0033  0.1649
 1392TIP3    H125667   2.682   5.501   0.686  0.0116 -0.8974 -1.3280
 1392TIP3    H225668   2.752   5.619   0.750 -2.3252  0.0247 -0.3731
 1393TIP3   OH225669   5.825   3.126  11.593  0.0050  0.3644 -0.4059
 1393TIP3    H125670   5.818   3.196  11.659 -0.9331  0.0953 -0.2001
 1393TIP3    H225671   5.787   3.049  11.635 -0.6644  0.2003 -1.2695
 1394TIP3   OH225672   2.707   0.767  14.515  0.2751  0.0740 -0.1418
 1394TIP3    H125673   2.757   0.786  14.435  0.7693  0.3665  0.2317
 1394TIP3    H225674   2.771   0.728  14.574 -0.0678 -0.0520  0.1447
 1395TIP3   OH225675   3.467   4.881  15.245  0.3232  0.0109  0.2900
 1395TIP3    H125676   3.450   4.934  15.323  0.5265  0.5191 -0.0019
 1395TIP3    H225677   3.386   4.887  15.195 -0.2985 -1.4049  1.0633
 1396TIP3   OH225678   3.586   4.931  14.646  0.2349  0.1874  0.2248
 1396TIP3    H125679   3.676   4.899  14.650  0.6022  0.6979 -2.4556
 1396TIP3    H225680   3.534   4.852  14.629  0.3218  0.0788  0.4544
 1397TIP3   OH225681   3.755   3.487  15.810  0.0415 -0.8330 -0.2880
 1397TIP3    H125682   3.660   3.492  15.821  0.2389 -0.3401  1.5779
 1397TIP3    H225683   3.775   3.552  15.743 -0.9000 -0.5445 -0.3042
 1398TIP3   OH225684   4.006   5.772   1.797 -0.2333  0.3324 -0.3100
 1398TIP3    H125685   3.958   5.741   1.874  0.6119 -0.8244 -0.2256
 1398TIP3    H225686   4.098   5.760   1.819  0.0316  0.2837 -1.3680
 1399TIP3   OH225687   5.362   0.943  10.541 -0.3903  0.3077  0.0097
 1399TIP3    H125688   5.311   0.874  10.497 -1.1834  1.1090 -0.3514
 1399TIP3    H225689   5.383   0.906  10.627 -1.6620 -0.0225  0.2031
 1400TIP3   OH225690   6.588   0.098  10.963  0.3966  0.1809  0.0972
 1400TIP3    H125691   6.605   0.031  10.898  1.8718  0.2961  0.3296
 1400TIP3    H225692   6.528   0.159  10.920 -0.1221 -0.7182 -0.4774
 1401TIP3   OH225693   2.626   0.863  10.760  0.5126 -0.0937 -0.0084
 1401TIP3    H125694   2.597   0.833  10.673  0.4757 -1.3173  0.4142
 1401TIP3    H225695   2.715   0.895  10.746 -0.5588  2.8124 -1.1342
 1402TIP3   OH225696   6.273   0.287   1.982  0.6376  0.6152 -0.0353
 1402TIP3    H125697   6.307   0.363   2.030 -0.1594  1.9641 -1.5148
 1402TIP3    H225698   6.348   0.256   1.932  0.4430  1.8513 -1.1483
 1403TIP3   OH225699   1.809   4.494   5.573  0.3537 -0.1173  0.4284
 1403TIP3    H125700   1.797   4.469   5.664 -0.5539 -2.0971 -0.1709
 1403TIP3    H225701   1.878   4.437   5.541 -0.4962 -0.6495 -0.5354
 1404TIP3   OH225702   0.659   6.006  12.277 -0.1943  0.5415 -0.8717
 1404TIP3    H125703   0.618   6.071  12.333  1.2795  0.2515  0.6314
 1404TIP3    H225704   0.698   6.056  12.205 -1.0773  1.0494 -1.0046
 1405TIP3   OH225705   5.060   6.773  12.007  0.3272  0.0060  0.2261
 1405TIP3    H125706   5.001   6.835  12.050 -1.3054 -0.7938 -0.7751
 1405TIP3    H225707   5.108   6.826  11.943 -0.3412  0.4358  0.0718
 1406TIP3   OH225708   4.334   2.588   2.099  0.2215  0.6369 -0.8389
 1406TIP3    H125709   4.349   2.607   2.006  2.2096  0.9978 -0.4957
 1406TIP3    H225710   4.401   2.523   2.121 -0.7261 -0.0296  0.1756
 1407TIP3   OH225711   4.196   1.086   3.445  0.2247 -0.1212  0.0036
 1407TIP3    H125712   4.265   1.139   3.484  2.7697 -2.0419 -1.5986
 1407TIP3    H225713   4.115   1.120   3.484  1.8320  3.3918  0.6792
 1408TIP3   OH225714   5.184   2.625   5.383  0.3432  0.3158 -0.2009
 1408TIP3    H125715   5.274   2.644   5.356  0.3866 -0.2222 -0.4534
 1408TIP3    H225716   5.148   2.572   5.311  0.1551 -0.3413  0.3637
 1409TIP3   OH225717   4.037   2.118   5.626 -0.4736 -0.7737  0.4513
 1409TIP3    H125718   4.131   2.127   5.643 -0.5348 -1.2724  1.0722
 1409TIP3    H225719   3.997   2.118   5.712 -1.0678 -0.4116  0.1829
 1410TIP3   OH225720   5.174   4.394   4.376  0.1077 -0.0220 -0.0880
 1410TIP3    H125721   5.255   4.346   4.360  0.3009 -0.7210  2.5706
 1410TIP3    H225722   5.201   4.486   4.380  0.1269  0.1692 -2.6963
 1411TIP3   OH225723   6.590   3.104  14.338 -0.6390  0.0204  0.1764
 1411TIP3    H125724   6.521   3.042  14.360 -0.8471  0.5679  1.1204
 1411TIP3    H225725   6.552   3.190  14.358 -0.5437  0.5078 -1.5594
 1412TIP3   OH225726   1.838   5.516  14.684  0.0832 -0.2504 -0.3782
 1412TIP3    H125727   1.914   5.459  14.696 -0.5056 -1.2897 -1.3764
 1412TIP3    H225728   1.864   5.599  14.723  1.5075 -0.7651 -0.1720
 1413TIP3   OH225729   3.235   2.599  10.793  0.2031  0.1258 -0.1454
 1413TIP3    H125730   3.279   2.515  10.799  2.1644  1.1137 -0.1166
 1413TIP3    H225731   3.235   2.620  10.699 -2.2678 -0.8568 -0.4443
 1414TIP3   OH225732   5.472   6.653  11.997 -0.0986  0.8441 -0.1537
 1414TIP3    H125733   5.418   6.660  12.076 -0.6478  1.1109 -0.5468
 1414TIP3    H225734   5.520   6.736  11.993  0.4685  0.5423  0.2822
 1415TIP3   OH225735   4.038   4.152  12.640 -0.4199  0.1883 -0.0806
 1415TIP3    H125736   4.059   4.225  12.698 -0.2149  1.0575 -1.2297
 1415TIP3    H225737   4.121   4.128  12.600 -0.7607  0.3804 -0.9150
 1416TIP3   OH225738   1.144   6.711   2.995 -0.1554  0.6087  0.2189
 1416TIP3    H125739   1.144   6.795   2.949 -0.2643  0.3686 -0.2265
 1416TIP3    H225740   1.088   6.725   3.072  0.4508  1.1675  0.5682
 1417TIP3   OH225741   1.339   5.317   4.433 -0.0528  0.1510  0.1717
 1417TIP3    H125742   1.292   5.265   4.368 -1.2273 -0.5285  1.5166
 1417TIP3    H225743   1.396   5.254   4.478  2.6359  1.0269 -1.7262
 1418TIP3   OH225744   4.248   5.384  12.588 -0.4901 -0.2918 -0.0339
 1418TIP3    H125745   4.222   5.377  12.496  2.0129 -1.5165 -0.7392
 1418TIP3    H225746   4.256   5.479  12.604 -1.7623 -0.0352 -0.7857
 1419TIP3   OH225747   5.227   5.939   0.548 -0.3068  0.6366 -0.0303
 1419TIP3    H125748   5.135   5.914   0.559  0.2835 -2.2165 -0.9297
 1419TIP3    H225749   5.271   5.906   0.626 -0.0524  2.4587  0.6528
 1420TIP3   OH225750   0.417   5.120   0.531  0.1216  0.2792 -0.4430
 1420TIP3    H125751   0.357   5.184   0.492  0.5871  0.1798 -1.3385
 1420TIP3    H225752   0.404   5.040   0.479  0.0150 -0.1683  0.2528
 1421TIP3   OH225753   1.601   4.242   3.035  0.2694  0.4856 -0.0779
 1421TIP3    H125754   1.620   4.161   2.986 -2.4573  0.2651 -0.9521
 1421TIP3    H225755   1.505   4.247   3.035  0.3230  2.6999  1.7078
 1422TIP3   OH225756   1.929   5.814   1.871  0.5593 -0.4971  0.6867
 1422TIP3    H125757   1.978   5.751   1.818  1.2913 -0.1620  0.9581
 1422TIP3    H225758   1.841   5.778   1.875  0.6796 -0.9063 -0.1403
 1423TIP3   OH225759   4.145   3.897   0.768  0.0774  0.0688  0.0681
 1423TIP3    H125760   4.118   3.817   0.813 -1.2004  0.3089 -0.2303
 1423TIP3    H225761   4.240   3.900   0.779  0.0491 -1.0629  0.7733
 1424TIP3   OH225762   6.759   5.531   0.901  0.0627 -0.3380  0.0654
 1424TIP3    H125763   6.759   5.614   0.949  2.5692 -0.3434  0.1670
 1424TIP3    H225764   6.735   5.466   0.967  0.0795  0.0665  0.4801
 1425TIP3   OH225765   6.019   4.433   0.609  0.2086 -0.5565  0.3647
 1425TIP3    H125766   6.067   4.426   0.527 -0.5149 -0.0298 -0.1200
 1425TIP3    H225767   6.071   4.493   0.663  0.2094 -0.1619 -0.0709
 1426TIP3   OH225768   6.570   0.002  15.325  0.1873  0.5643 -0.4492
 1426TIP3    H125769   6.544  -0.088  15.347 -2.6564  0.7625 -2.4262
 1426TIP3    H225770   6.664  -0.004  15.309 -0.0360 -2.2755 -1.3593
 1427TIP3   OH225771   5.743   6.414   2.257 -0.2950  0.1378 -0.1841
 1427TIP3    H125772   5.781   6.328   2.238 -1.4261 -0.7010  1.0859
 1427TIP3    H225773   5.725   6.412   2.351  0.0963  1.9800 -0.0295
 1428TIP3   OH225774   3.435   6.074  15.790  0.7025  0.6439 -0.2849
 1428TIP3    H125775   3.406   6.077  15.699 -2.1002 -1.2511  0.3989
 1428TIP3    H225776   3.522   6.035  15.787  0.9887  1.3526 -2.1758
 1429TIP3   OH225777   2.611   4.118  11.511  0.9632 -0.1533 -0.1292
 1429TIP3    H125778   2.552   4.181  11.552  1.4081  0.3340 -0.2311
 1429TIP3    H225779   2.603   4.135  11.417 -1.7645 -2.7351 -0.5230
 1430TIP3   OH225780   5.493   3.372  11.453  0.0191 -0.2192 -0.3384
 1430TIP3    H125781   5.501   3.437  11.383  0.0030 -1.6897 -1.7894
 1430TIP3    H225782   5.545   3.298  11.422 -2.8243 -2.3219 -0.5387
 1431TIP3   OH225783   6.332   4.243   1.180 -0.4537 -0.0109  0.2703
 1431TIP3    H125784   6.315   4.250   1.274 -0.9493  2.2083  0.0710
 1431TIP3    H225785   6.316   4.151   1.160 -0.5590 -0.4940  2.2981
 1432TIP3   OH225786   3.189   5.848   4.281 -0.1360 -0.3194  0.6633
 1432TIP3    H125787   3.262   5.908   4.267 -0.7432 -0.0772 -2.1361
 1432TIP3    H225788   3.115   5.905   4.303 -0.7677  0.1779 -2.2118
 1433TIP3   OH225789   3.146   1.017   2.147 -0.0307  0.3886  0.0076
 1433TIP3    H125790   3.224   1.045   2.100 -0.1318 -0.0971 -0.4613
 1433TIP3    H225791   3.092   0.974   2.081 -0.2447 -0.1711  0.5306
 1434TIP3   OH225792   2.526   0.174  14.046 -0.2182  0.0599 -0.5449
 1434TIP3    H125793   2.599   0.116  14.025  0.6800  0.9446  0.0683
 1434TIP3    H225794   2.450   0.132  14.005  0.8841 -0.0536 -2.6058
 1435TIP3   OH225795   2.803   2.992  15.631 -0.1636  0.0883 -0.6983
 1435TIP3    H125796   2.727   2.940  15.605  0.6662 -0.9561 -1.0783
 1435TIP3    H225797   2.828   3.039  15.552  0.0106 -0.1068 -0.7590
 1436TIP3   OH225798   3.904   2.238  11.694 -0.0255 -0.0469  0.2759
 1436TIP3    H125799   3.846   2.304  11.732 -1.3845 -2.0722  2.0359
 1436TIP3    H225800   3.853   2.156  11.700  1.9370 -1.4251 -0.8362
 1437TIP3   OH225801   3.471   0.750   0.470  0.4316 -0.1919 -0.5347
 1437TIP3    H125802   3.548   0.779   0.519  0.7929  1.2679 -1.8894
 1437TIP3    H225803   3.426   0.691   0.530  0.4164  2.0671  1.8828
 1438TIP3   OH225804   4.349   6.174   0.519 -0.8581 -0.2299  0.8439
 1438TIP3    H125805   4.267   6.125   0.507  0.1639 -2.3056  1.8143
 1438TIP3    H225806   4.355   6.188   0.613  1.2882 -2.8172  1.2093
 1439TIP3   OH225807   0.108   3.285  12.977 -0.1136 -0.5496 -0.1273
 1439TIP3    H125808   0.102   3.350  13.047 -1.5339 -1.0866  0.2897
 1439TIP3    H225809   0.109   3.336  12.896 -0.1049  0.0188  0.2286
 1440TIP3   OH225810   4.877   6.214   4.091  0.3003  0.8757  0.1480
 1440TIP3    H125811   4.962   6.186   4.057  0.0479  2.2315 -1.7455
 1440TIP3    H225812   4.881   6.310   4.092 -1.6094  1.0290 -1.1933
 1441TIP3   OH225813   3.091   0.894   1.044  0.0830  0.3267  0.5069
 1441TIP3    H125814   3.116   0.859   0.959  0.9077  0.1529  0.8119
 1441TIP3    H225815   3.164   0.874   1.101 -0.2065  0.9578  1.1230
 1442TIP3   OH225816   5.010   1.234   0.898 -0.2702 -0.0828 -0.3285
 1442TIP3    H125817   5.059   1.161   0.936 -1.9351 -0.2064  1.7187
 1442TIP3    H225818   4.933   1.193   0.859 -0.6400  0.4768 -0.1898
 1443TIP3   OH225819   3.599   5.695   4.084 -0.4069  0.9522 -0.2726
 1443TIP3    H125820   3.675   5.658   4.129 -1.6627 -0.9993  0.3659
 1443TIP3    H225821   3.614   5.676   3.991 -0.8041 -0.8101  0.0013
 1444TIP3   OH225822   5.551   3.617  11.318  0.2948  0.1447  0.2768
 1444TIP3    H125823   5.465   3.631  11.278  0.3115 -0.2846  0.0921
 1444TIP3    H225824   5.583   3.705  11.336  0.5472  0.3805 -1.1848
 1445TIP3   OH225825   3.546   1.401  16.866  0.2161  0.9572  0.2911
 1445TIP3    H125826   3.474   1.340  16.880  1.2931 -0.6050 -0.6555
 1445TIP3    H225827   3.524   1.446  16.784  1.1705 -0.9173 -1.0623
 1446TIP3   OH225828   1.869   6.592   3.176 -0.2743 -0.0679 -0.1452
 1446TIP3    H125829   1.933   6.527   3.145  0.3684  0.0501  0.8654
 1446TIP3    H225830   1.920   6.649   3.234 -1.2454  0.1680  0.5000
 1447TIP3   OH225831   1.693   0.894  11.023 -0.0027 -0.8161  0.4946
 1447TIP3    H125832   1.748   0.957  10.976 -1.0369  0.3850  0.8210
 1447TIP3    H225833   1.608   0.901  10.980  0.1219 -2.8734 -0.2128
 1448TIP3   OH225834   2.691   2.201  11.928 -0.0434  0.4081  0.1418
 1448TIP3    H125835   2.749   2.235  11.996  0.9155 -0.1800 -0.3591
 1448TIP3    H225836   2.671   2.276  11.873  2.4756  0.1527 -1.2652
 1449TIP3   OH225837   2.077   5.778   0.035  0.6259  0.0045 -0.0047
 1449TIP3    H125838   2.134   5.760   0.110  1.2661  3.0772  0.3690
 1449TIP3    H225839   2.057   5.871   0.042 -3.5845 -0.6170 -0.7851
 1450TIP3   OH225840   4.213   1.434  14.878  0.5184 -0.4098  0.7950
 1450TIP3    H125841   4.193   1.437  14.971  1.2672 -0.5936  0.9694
 1450TIP3    H225842   4.139   1.477  14.835 -0.7882 -2.0141  1.3237
 1451TIP3   OH225843   0.716   2.812  15.263  0.3137 -0.2133 -0.6773
 1451TIP3    H125844   0.803   2.823  15.223 -0.2680  1.4597 -1.6173
 1451TIP3    H225845   0.661   2.875  15.216 -1.6834 -2.0114 -0.8705
 1452TIP3   OH225846   4.828   4.633   1.947  0.0507 -0.2548  0.0942
 1452TIP3    H125847   4.790   4.618   2.033 -2.2154  0.1310 -0.7558
 1452TIP3    H225848   4.860   4.723   1.949 -3.5049  1.1865 -0.5385
 1453TIP3   OH225849   2.720   0.552  15.220 -0.1075  0.6308  0.1276
 1453TIP3    H125850   2.742   0.480  15.279 -1.3278 -0.0056 -0.1610
 1453TIP3    H225851   2.693   0.623  15.277  1.1623  0.9097  0.4183
 1454TIP3   OH225852   6.457   6.496  15.836  0.2850  0.6761  0.6467
 1454TIP3    H125853   6.516   6.557  15.879  1.0157  0.0821  0.5130
 1454TIP3    H225854   6.461   6.417  15.890 -0.1256  0.5170  0.4456
 1455TIP3   OH225855   6.571   5.437  16.350 -0.1991  0.0716  0.0850
 1455TIP3    H125856   6.576   5.344  16.330  0.7532 -0.0715  0.9168
 1455TIP3    H225857   6.594   5.443  16.443  0.5387  1.2017 -0.1462
 1456TIP3   OH225858   3.022   1.661   4.970 -0.0916  0.2506  0.3274
 1456TIP3    H125859   3.102   1.690   4.925  0.0392  0.9263  0.9696
 1456TIP3    H225860   3.043   1.671   5.063 -0.4364 -0.9123  0.5422
 1457TIP3   OH225861   3.322   6.249  16.562 -0.1876 -0.3161 -0.0518
 1457TIP3    H125862   3.305   6.217  16.473  2.0566  0.6340 -0.9094
 1457TIP3    H225863   3.297   6.341  16.559 -2.1945 -0.7632  1.0220
 1458TIP3   OH225864   1.090   3.422  15.558 -0.4429 -0.3278  0.6467
 1458TIP3    H125865   0.998   3.430  15.580 -0.0807 -0.6506  2.4463
 1458TIP3    H225866   1.097   3.454  15.469 -1.7074  3.2800  1.6896
 1459TIP3   OH225867   5.212   0.890   4.679  0.2656  0.4412 -0.0659
 1459TIP3    H125868   5.174   0.846   4.603 -0.4815  1.5770 -0.3585
 1459TIP3    H225869   5.287   0.834   4.703 -1.1758 -1.5003  0.1573
 1460TIP3   OH225870   4.013   6.600   3.685  0.0137  0.2361 -0.4537
 1460TIP3    H125871   4.004   6.661   3.758  1.0943  0.9174 -0.8572
 1460TIP3    H225872   4.070   6.646   3.623 -1.5066  0.0359 -2.0973
 1461TIP3   OH225873   5.227   6.562  15.589  0.3908  0.2061  0.4231
 1461TIP3    H125874   5.250   6.522  15.504  1.1549  1.4323  0.0283
 1461TIP3    H225875   5.145   6.608  15.572 -0.3376 -0.9179  0.8031
 1462TIP3   OH225876   2.864   0.668   1.140  0.7150  0.5803  0.6482
 1462TIP3    H125877   2.939   0.703   1.188  1.7971  0.9443 -1.2124
 1462TIP3    H225878   2.858   0.576   1.168  0.1160  1.2484  2.8490
 1463TIP3   OH225879   6.783   5.782   5.975 -0.3735 -0.1988  0.4268
 1463TIP3    H125880   6.843   5.790   6.049  2.0520 -0.6236 -1.3329
 1463TIP3    H225881   6.746   5.870   5.963  0.8739  0.4005  0.8422
 1464TIP3   OH225882   1.958   0.384   4.170 -0.4900 -0.0279 -0.5770
 1464TIP3    H125883   2.020   0.429   4.112  0.0464  1.5142  1.0975
 1464TIP3    H225884   1.992   0.295   4.177  1.2471  0.6375 -0.1288
 1465TIP3   OH225885   0.531   6.286  13.487  0.2627  0.0567 -0.0435
 1465TIP3    H125886   0.475   6.234  13.429 -0.6440  1.4235 -0.4258
 1465TIP3    H225887   0.612   6.297  13.437 -0.2036  0.5080 -0.7290
 1466TIP3   OH225888   1.351   3.149   5.198 -1.0315  0.4186  0.1776
 1466TIP3    H125889   1.331   3.128   5.289  0.2686  1.5108  0.7474
 1466TIP3    H225890   1.301   3.229   5.181  0.7732  1.7550  0.8304
 1467TIP3   OH225891   4.573   5.236   1.687  0.0672  0.5619  0.3651
 1467TIP3    H125892   4.616   5.221   1.603 -4.6437 -3.1804 -1.8292
 1467TIP3    H225893   4.513   5.309   1.670  0.0810  0.7139  0.9605
 1468TIP3   OH225894   6.023   1.431  12.202 -0.0237 -0.3479 -0.1279
 1468TIP3    H125895   6.100   1.481  12.230 -0.2369 -1.2929  2.4655
 1468TIP3    H225896   6.059   1.356  12.156  0.8349 -1.5569  2.2982
 1469TIP3   OH225897   4.940   6.030  11.845  0.0687  0.1655 -0.3052
 1469TIP3    H125898   5.023   5.999  11.808  1.5018  1.0518  1.9541
 1469TIP3    H225899   4.886   6.050  11.769  1.8950 -0.5208 -1.8643
 1470TIP3   OH225900   1.516   4.045  12.771 -0.3530 -0.2484  0.1673
 1470TIP3    H125901   1.438   4.023  12.720  0.4170 -1.3239 -0.5640
 1470TIP3    H225902   1.524   3.974  12.835 -2.5273  2.0841  3.3752
 1471TIP3   OH225903   6.624   4.124  11.142  1.0088  0.1115  0.2833
 1471TIP3    H125904   6.706   4.088  11.174  2.1531  1.7822 -0.6446
 1471TIP3    H225905   6.636   4.219  11.144 -1.2414  0.4504  0.9775
 1472TIP3   OH225906   1.780   4.411  12.495 -0.4966 -0.8018  0.5425
 1472TIP3    H125907   1.813   4.382  12.581 -0.7725  1.9363  1.6646
 1472TIP3    H225908   1.809   4.343  12.434  0.6498 -2.2953  2.6307
 1473TIP3   OH225909   2.283   1.858  14.213 -0.3845  0.4503 -0.0085
 1473TIP3    H125910   2.224   1.908  14.269 -1.3819 -0.6562 -0.0484
 1473TIP3    H225911   2.226   1.815  14.150  0.4132 -0.9269  0.1670
 1474TIP3   OH225912   3.501   1.336  13.624  0.1369 -0.0744 -0.4421
 1474TIP3    H125913   3.592   1.306  13.619  0.8239  1.9206 -0.8024
 1474TIP3    H225914   3.451   1.266  13.581  1.3259 -1.7014  0.6725
 1475TIP3   OH225915   2.193   5.715  15.260  0.2361 -0.2834 -0.5889
 1475TIP3    H125916   2.189   5.620  15.252 -0.8507 -0.1195 -2.8923
 1475TIP3    H225917   2.103   5.741  15.281  0.3444  0.3014 -0.8285
 1476TIP3   OH225918   3.240   6.386  15.111 -0.4094  0.1137 -0.1539
 1476TIP3    H125919   3.173   6.322  15.088  0.8671 -1.1641 -0.4537
 1476TIP3    H225920   3.321   6.351  15.073  0.8775  0.3759  2.1819
 1477TIP3   OH225921   2.571   0.817  16.827 -0.3150 -0.4530  0.1410
 1477TIP3    H125922   2.508   0.755  16.864 -1.9751  0.6620 -0.7017
 1477TIP3    H225923   2.528   0.853  16.750  1.1948  0.6895 -0.2256
 1478TIP3   OH225924   1.800   0.869  14.755 -0.1250  0.7661  0.0201
 1478TIP3    H125925   1.826   0.899  14.668 -1.4147 -0.6245 -0.8979
 1478TIP3    H225926   1.881   0.837  14.795  0.3481  0.7060 -0.9684
 1479TIP3   OH225927   5.480   0.677   0.257 -0.2092 -0.8180  0.0584
 1479TIP3    H125928   5.561   0.727   0.271 -1.0151  0.3826  0.6604
 1479TIP3    H225929   5.462   0.637   0.342 -0.3977 -0.8530  0.0029
 1480TIP3   OH225930   2.736   2.895  11.407  0.9758 -0.0291  0.0305
 1480TIP3    H125931   2.772   2.877  11.321 -0.7549  0.8053 -0.9304
 1480TIP3    H225932   2.688   2.816  11.431  0.9256 -0.0264 -0.0617
 1481TIP3   OH225933   5.666   3.341   2.285 -0.5101 -0.0732  0.2914
 1481TIP3    H125934   5.703   3.307   2.366  0.4735  0.0221 -0.1060
 1481TIP3    H225935   5.695   3.280   2.217  1.4752  1.6212 -0.4711
 1482TIP3   OH225936   4.325   2.342  17.071 -0.3345  0.2844 -0.1327
 1482TIP3    H125937   4.278   2.368  17.149  0.3402 -0.2134  0.4566
 1482TIP3    H225938   4.263   2.355  16.999 -0.5220  2.0387  0.3058
 1483TIP3   OH225939   6.160   1.778   3.822 -0.3830  0.2429  0.1565
 1483TIP3    H125940   6.106   1.816   3.753  0.4069  1.6052  0.2450
 1483TIP3    H225941   6.164   1.846   3.890  0.2240 -0.4062  0.7938
 1484TIP3   OH225942   4.654   1.725  14.264  0.0428 -0.3654  0.2230
 1484TIP3    H125943   4.637   1.668  14.189 -0.7277  0.9236 -0.6158
 1484TIP3    H225944   4.750   1.731  14.268  0.0967 -0.4356 -0.6880
 1485TIP3   OH225945   0.379   4.395  11.779 -0.8739 -0.1550  0.1749
 1485TIP3    H125946   0.350   4.483  11.803 -3.0098 -0.8826  0.4639
 1485TIP3    H225947   0.374   4.345  11.860  2.0555 -0.2233  0.4425
 1486TIP3   OH225948   0.475   2.547  16.668  0.1111 -0.0895 -0.0409
 1486TIP3    H125949   0.518   2.632  16.662  0.0657  0.0950  1.7546
 1486TIP3    H225950   0.396   2.556  16.615 -0.0805  1.1155  0.4294
 1487TIP3   OH225951   2.302   0.556  13.293 -0.1581 -0.2511  0.2190
 1487TIP3    H125952   2.250   0.609  13.233 -0.5780  1.5200  2.0515
 1487TIP3    H225953   2.243   0.537  13.366  1.2128  0.2437  1.4999
 1488TIP3   OH225954   4.183   3.275   2.577  0.2024 -0.3594 -0.8174
 1488TIP3    H125955   4.251   3.307   2.517 -0.7908 -0.3914 -1.9952
 1488TIP3    H225956   4.231   3.225   2.643  1.3309 -0.2805 -1.5540
 1489TIP3   OH225957   3.636   0.206   5.541  0.0403 -0.2329 -0.1346
 1489TIP3    H125958   3.702   0.193   5.608 -0.4528 -0.5544  0.2905
 1489TIP3    H225959   3.605   0.118   5.519 -1.0434 -0.0331  0.4882
 1490TIP3   OH225960   3.687   2.393  15.571 -0.3465 -0.0439  0.1293
 1490TIP3    H125961   3.735   2.312  15.588 -3.2437 -2.2457 -1.2676
 1490TIP3    H225962   3.623   2.399  15.641 -2.0783 -0.6687 -1.3103
 1491TIP3   OH225963   5.342   5.942   3.906  0.2681  0.3387 -0.0799
 1491TIP3    H125964   5.338   5.912   3.815  0.1825 -0.4564  0.1734
 1491TIP3    H225965   5.299   5.872   3.955 -1.2099  1.5218  0.4021
 1492TIP3   OH225966   4.206   1.460   4.062 -0.5305  0.7866  0.4191
 1492TIP3    H125967   4.283   1.415   4.028 -1.1330  0.0363  0.0090
 1492TIP3    H225968   4.241   1.527   4.120  0.4033 -1.5388  2.7706
 1493TIP3   OH225969   3.083   0.661   1.345  0.0425 -0.2196  0.5305
 1493TIP3    H125970   3.126   0.744   1.326  0.2433 -0.6080 -0.7744
 1493TIP3    H225971   3.152   0.596   1.339 -0.5823 -0.7902 -1.0748
 1494TIP3   OH225972   0.514   2.405   5.995 -0.3315  0.0011 -0.3570
 1494TIP3    H125973   0.589   2.385   5.940 -0.0930 -1.9795  0.5846
 1494TIP3    H225974   0.552   2.442   6.075 -0.5707  1.4689 -0.9022
 1495TIP3   OH225975   6.302   5.467  16.288  0.4116  0.3186 -0.2694
 1495TIP3    H125976   6.265   5.414  16.358 -0.7794  0.0509 -1.0736
 1495TIP3    H225977   6.397   5.463  16.302  0.2006  0.1984  1.2519
 1496TIP3   OH225978   4.342   2.512   2.813 -0.4416 -0.2163  0.3583
 1496TIP3    H125979   4.315   2.512   2.721 -0.1675 -1.3125  0.2632
 1496TIP3    H225980   4.407   2.442   2.818  3.3178  2.9356  0.3285
 1497TIP3   OH225981   1.658   3.125   4.074  0.3401 -0.2357  0.1885
 1497TIP3    H125982   1.689   3.213   4.056  1.9692 -0.6172  0.9873
 1497TIP3    H225983   1.576   3.118   4.025  0.0461  1.7866  0.3048
 1498TIP3   OH225984   0.605   4.632  10.769 -0.5194 -0.0937  0.5815
 1498TIP3    H125985   0.518   4.618  10.807  0.0333  0.8655  2.3163
 1498TIP3    H225986   0.595   4.609  10.677 -2.3840 -0.8625  0.9320
 1499TIP3   OH225987   3.128   5.555  13.759 -0.2696  0.1137 -0.0037
 1499TIP3    H125988   3.144   5.646  13.734 -0.1674  0.8366  2.4616
 1499TIP3    H225989   3.033   5.549  13.767 -0.5007 -0.7684 -2.6627
 1500TIP3   OH225990   2.136   2.189   0.120 -0.0304  0.5659 -0.3911
 1500TIP3    H125991   2.095   2.210   0.036 -0.6085  1.7614  0.1808
 1500TIP3    H225992   2.222   2.153   0.096 -0.5825 -0.0475 -1.5226
 1501TIP3   OH225993   3.512   4.741  14.441 -0.1029 -0.3477  0.0039
 1501TIP3    H125994   3.517   4.787  14.357  1.0268  2.5186  1.5116
 1501TIP3    H225995   3.435   4.779  14.483 -0.4981 -1.5684  0.4050
 1502TIP3   OH225996   2.389   5.683   0.557 -0.2378  0.1728  0.8466
 1502TIP3    H125997   2.369   5.772   0.585  0.0804  0.0552  1.4636
 1502TIP3    H225998   2.422   5.694   0.467  0.0098  0.7059  0.9934
 1503TIP3   OH225999   6.413   2.645  15.786 -0.7635  0.2384  0.0215
 1503TIP3    H126000   6.467   2.708  15.739  0.8875 -1.0452  0.1142
 1503TIP3    H226001   6.373   2.592  15.717 -1.6979  0.9981 -0.0373
 1504TIP3   OH226002   5.895   5.537  15.955  0.6869  0.0057  0.6600
 1504TIP3    H126003   5.967   5.578  16.003  0.8666 -2.5004  2.7170
 1504TIP3    H226004   5.920   5.445  15.947  0.1376  0.0342 -3.4502
 1505TIP3   OH226005   1.599   1.293  16.388  0.0926 -0.0879  0.3806
 1505TIP3    H126006   1.639   1.294  16.475 -0.3155  2.7242  0.6267
 1505TIP3    H226007   1.508   1.317  16.403 -0.2028 -0.4683 -0.7336
 1506TIP3   OH226008   4.927   1.612   5.100  0.8116  0.2935  0.1615
 1506TIP3    H126009   4.903   1.523   5.073  0.1801 -0.4444  2.7960
 1506TIP3    H226010   4.853   1.666   5.073  0.9704 -0.0365 -1.0133
 1507TIP3   OH226011   2.701   1.136   4.302  0.7109 -0.0328 -0.1312
 1507TIP3    H126012   2.644   1.198   4.347  1.5455  0.9748 -0.4124
 1507TIP3    H226013   2.720   1.069   4.369 -0.5018 -0.2133  0.0576
 1508TIP3   OH226014   1.206   1.818   2.067  0.7475  0.3270  0.0838
 1508TIP3    H126015   1.275   1.821   2.001  0.3749  1.6785 -0.2760
 1508TIP3    H226016   1.253   1.822   2.151  1.2338 -1.6464 -0.0440
 1509TIP3   OH226017   3.549   4.296   1.748 -0.3772  0.4525  0.2312
 1509TIP3    H126018   3.588   4.379   1.775  0.0462  0.1783  0.4823
 1509TIP3    H226019   3.473   4.321   1.696 -1.2907  0.9979  1.7774
 1510TIP3   OH226020   2.906   1.330  14.108 -0.8160  0.0684 -0.1982
 1510TIP3    H126021   2.981   1.389  14.109 -1.6844  1.3982 -3.3310
 1510TIP3    H226022   2.846   1.367  14.173 -0.0415  0.7780  0.1291
 1511TIP3   OH226023   2.088   3.827   1.840  0.5628  0.4839  0.3509
 1511TIP3    H126024   2.135   3.774   1.776 -1.2846 -1.2002  0.2777
 1511TIP3    H226025   1.997   3.798   1.832  0.1104  0.9197  3.0467
 1512TIP3   OH226026   6.613   2.965  10.228 -0.7335  0.2145  0.4412
 1512TIP3    H126027   6.657   3.047  10.204 -0.2150 -0.2514 -0.2561
 1512TIP3    H226028   6.528   2.969  10.185 -0.5073  0.1662 -0.0131
 1513TIP3   OH226029   4.636   5.835   2.474  0.3348  0.2095  0.4818
 1513TIP3    H126030   4.602   5.795   2.554 -2.2309  0.8464 -0.2018
 1513TIP3    H226031   4.681   5.914   2.503  1.3306 -0.6770  1.4350
 1514TIP3   OH226032   2.770   3.776   5.711 -0.1899  0.2661 -0.8048
 1514TIP3    H126033   2.687   3.776   5.665 -1.2806  0.2721  1.0528
 1514TIP3    H226034   2.772   3.861   5.756  0.0520 -0.3847  0.4523
 1515TIP3   OH226035   0.767   0.840  15.348 -0.0475  0.1848  0.1510
 1515TIP3    H126036   0.717   0.884  15.416 -0.2338  0.1366  0.0467
 1515TIP3    H226037   0.857   0.868  15.363 -0.3254  1.7170 -0.7497
 1516TIP3   OH226038   4.023   2.093   3.314 -0.3595  0.4672 -0.2770
 1516TIP3    H126039   4.000   2.179   3.349  0.9260  0.4853  0.6012
 1516TIP3    H226040   3.971   2.032   3.366 -0.3410  0.6447 -0.0446
 1517TIP3   OH226041   6.694   4.820   4.745 -0.3863 -0.0869 -0.7549
 1517TIP3    H126042   6.745   4.882   4.692 -1.9682  0.8269 -1.2490
 1517TIP3    H226043   6.612   4.809   4.697 -1.2816 -0.3531  0.7944
 1518TIP3   OH226044   5.138   6.395   0.320 -0.1588 -0.2791  0.5949
 1518TIP3    H126045   5.197   6.419   0.248 -0.3703 -1.3637  0.0352
 1518TIP3    H226046   5.087   6.474   0.336 -0.1813 -0.0430 -0.5204
 1519TIP3   OH226047   5.087   0.777  14.586 -0.0391 -0.0552 -0.1335
 1519TIP3    H126048   5.048   0.812  14.666 -1.4891  0.6924 -1.1315
 1519TIP3    H226049   5.177   0.757  14.611  0.2135  2.2715  1.1037
 1520TIP3   OH226050   6.781   5.238   6.319  0.2302 -0.5605  0.0736
 1520TIP3    H126051   6.842   5.312   6.324  0.1541 -0.5730  2.4306
 1520TIP3    H226052   6.801   5.196   6.235 -0.0712  2.3697 -1.5878
 1521TIP3   OH226053   6.340   0.327   3.829 -0.3598  0.4124 -0.0226
 1521TIP3    H126054   6.283   0.387   3.782 -0.1945  0.7328  0.1843
 1521TIP3    H226055   6.348   0.364   3.917 -0.3745  0.0106  0.1503
 1522TIP3   OH226056   2.621   1.101   4.612 -0.1104  0.7101 -0.1735
 1522TIP3    H126057   2.528   1.118   4.630  0.1296  0.2565  1.6744
 1522TIP3    H226058   2.650   1.046   4.684  2.0509  2.3233  0.2946
 1523TIP3   OH226059   4.086   3.934   1.405 -0.1671  0.2617  0.0793
 1523TIP3    H126060   4.162   3.988   1.382  0.0145  0.2828  0.7107
 1523TIP3    H226061   4.022   3.996   1.439  0.4540 -0.0191  1.8614
 1524TIP3   OH226062   3.409   4.787  13.712 -0.1197  0.0128 -0.0004
 1524TIP3    H126063   3.319   4.777  13.682 -0.0293 -1.3168  0.1082
 1524TIP3    H226064   3.401   4.808  13.805 -0.3356  1.0099 -0.2410
 1525TIP3   OH226065   5.537   5.132   1.644 -0.0261 -0.3773 -0.7008
 1525TIP3    H126066   5.532   5.196   1.572  0.9830 -1.0079 -1.3497
 1525TIP3    H226067   5.498   5.053   1.608  0.6559 -0.7534 -0.6325
 1526TIP3   OH226068   0.061   1.635  10.802  0.2729 -0.4467  0.3917
 1526TIP3    H126069   0.043   1.591  10.719 -1.4382 -0.4739  0.7474
 1526TIP3    H226070   0.136   1.588  10.839  0.3720 -1.1068 -0.6313
 1527TIP3   OH226071   6.195   4.302   4.934  0.1002  0.4089 -0.0065
 1527TIP3    H126072   6.250   4.226   4.952 -0.5990 -0.3549 -0.9273
 1527TIP3    H226073   6.121   4.292   4.994 -1.1306 -0.9334 -1.6373
 1528TIP3   OH226074   3.764   0.628   0.012 -0.2506 -0.1268 -0.2552
 1528TIP3    H126075   3.834   0.688  -0.014  0.7745 -1.1392  0.0567
 1528TIP3    H226076   3.693   0.646  -0.049  0.3874  0.7478 -0.7679
 1529TIP3   OH226077   6.636   4.604   6.491 -0.0965  0.7200  0.0618
 1529TIP3    H126078   6.553   4.578   6.452 -2.3846  0.4641  4.4281
 1529TIP3    H226079   6.683   4.522   6.505  0.7094  0.8089 -1.8100
 1530TIP3   OH226080   5.233   6.671  12.210 -0.4987  0.2417  0.1758
 1530TIP3    H126081   5.165   6.672  12.142  0.8263 -1.0719 -1.2499
 1530TIP3    H226082   5.273   6.758  12.204 -0.4562  0.1748 -0.6807
 1531TIP3   OH226083   6.615   2.412  12.611 -0.1579 -0.0197 -0.5698
 1531TIP3    H126084   6.694   2.439  12.657 -0.5494  0.4953 -0.1849
 1531TIP3    H226085   6.557   2.380  12.680 -0.9022  1.1322 -0.6286
 1532TIP3   OH226086   2.038   4.362   5.512  0.1178  0.4370 -0.4728
 1532TIP3    H126087   2.064   4.270   5.505  0.3539  0.4847 -0.2252
 1532TIP3    H226088   2.061   4.386   5.602 -1.8851  0.1233  0.1819
 1533TIP3   OH226089   5.706   5.897  12.871 -0.0456 -0.2026 -0.6261
 1533TIP3    H126090   5.746   5.912  12.786  1.3592 -1.3120 -0.2035
 1533TIP3    H226091   5.668   5.981  12.895 -1.5903 -0.1712 -2.8674
 1534TIP3   OH226092   5.176   5.916  11.696  0.5905  0.3378  0.3074
 1534TIP3    H126093   5.164   5.868  11.614  0.3441  1.8880 -0.6170
 1534TIP3    H226094   5.149   5.855  11.764 -2.2265  0.0176 -0.9628
 1535TIP3   OH226095   4.631   5.529  11.516 -0.5888 -0.3898 -0.0374
 1535TIP3    H126096   4.630   5.606  11.573  2.6788 -0.2720  0.0636
 1535TIP3    H226097   4.615   5.565  11.428 -1.6606 -0.0035  0.3019
 1536TIP3   OH226098   3.247   2.480  16.977 -0.2323  0.0751 -0.6497
 1536TIP3    H126099   3.253   2.397  16.930  2.8550  0.3560 -0.9382
 1536TIP3    H226100   3.274   2.546  16.913 -1.4897  1.1848 -0.0819
 1537TIP3   OH226101   5.438   0.722   5.113 -0.1908  1.1169  0.1486
 1537TIP3    H126102   5.510   0.743   5.054 -0.8813  2.3526 -0.2871
 1537TIP3    H226103   5.476   0.732   5.201  0.9147 -1.0054 -0.0330
 1538TIP3   OH226104   6.052   6.408   0.543 -0.0766 -0.4888  0.3033
 1538TIP3    H126105   6.075   6.441   0.456 -0.5770  0.4944  0.5273
 1538TIP3    H226106   5.956   6.403   0.542 -0.0803 -0.5487  0.7663
 1539TIP3   OH226107   0.905   0.587  14.768 -0.0315 -0.6966  0.2120
 1539TIP3    H126108   0.921   0.661  14.710  1.2639 -0.8863  0.2992
 1539TIP3    H226109   0.882   0.515  14.708  0.4435 -0.6687 -0.0086
 1540TIP3   OH226110   5.633   5.009   0.348  0.4058 -0.6467 -0.1788
 1540TIP3    H126111   5.584   4.945   0.400  0.5570  0.4361  1.3587
 1540TIP3    H226112   5.607   5.094   0.383 -1.2911  0.3640 -3.4654
 1541TIP3   OH226113   2.468   3.464  16.548 -0.8581  0.4323 -0.2488
 1541TIP3    H126114   2.426   3.522  16.611 -0.7023  1.5066 -1.1024
 1541TIP3    H226115   2.555   3.502  16.534 -0.6264 -0.1892 -0.5856
 1542TIP3   OH226116   5.972   0.549  12.229 -0.3304  0.1174 -0.1151
 1542TIP3    H126117   6.024   0.483  12.182  0.2648  0.1494  0.4764
 1542TIP3    H226118   5.884   0.541  12.192  0.0024 -0.2140 -0.8629
 1543TIP3   OH226119   2.003   0.221  14.148 -0.2280  0.1342  0.5783
 1543TIP3    H126120   2.093   0.250  14.134 -0.6235  1.2958  0.3273
 1543TIP3    H226121   2.011   0.143  14.202  0.9066  0.5283  1.0102
 1544TIP3   OH226122   0.050   4.049  15.465 -0.0914 -0.3018 -0.2621
 1544TIP3    H126123  -0.020   4.083  15.519  0.1856  0.9871 -0.6880
 1544TIP3    H226124   0.114   4.120  15.458  0.5755 -0.9374 -1.0649
 1545TIP3   OH226125   6.489   3.170  15.030 -0.3221 -0.5263  0.2259
 1545TIP3    H126126   6.411   3.219  15.005  1.2610  0.9565 -2.1797
 1545TIP3    H226127   6.501   3.106  14.959  1.0838 -0.1678  0.1105
 1546TIP3   OH226128   6.111   3.788  16.522 -0.7406  0.3177  0.1056
 1546TIP3    H126129   6.087   3.777  16.614 -1.3331  1.2222  0.0676
 1546TIP3    H226130   6.170   3.864  16.521  0.1873 -0.3802 -0.1258
 1547TIP3   OH226131   2.492   6.072  15.127  0.3275 -0.0714  0.1674
 1547TIP3    H126132   2.432   6.144  15.109  0.3354 -0.2830 -0.8112
 1547TIP3    H226133   2.437   5.995  15.135  0.2895  0.0820  1.5645
 1548TIP3   OH226134   0.718   2.643  11.151 -0.4157  0.2050  0.9066
 1548TIP3    H126135   0.745   2.587  11.078  0.3438  0.8044  0.7160
 1548TIP3    H226136   0.640   2.601  11.186 -1.2184  0.2906 -0.7078
 1549TIP3   OH226137   0.061   2.327  13.266  0.0317 -0.3014  0.1089
 1549TIP3    H126138  -0.016   2.351  13.317 -0.3041 -0.4858 -0.2991
 1549TIP3    H226139   0.026   2.276  13.193  0.4781  0.1403 -0.4218
 1550TIP3   OH226140   3.000   0.762  11.956 -0.0848 -0.2997 -0.4882
 1550TIP3    H126141   3.067   0.815  12.000  0.3014 -1.3083  0.1680
 1550TIP3    H226142   3.012   0.782  11.863  0.0759  0.7319 -0.2618
 1551TIP3   OH226143   2.861   2.355  14.646 -0.1061 -0.9579  0.5855
 1551TIP3    H126144   2.798   2.407  14.596 -1.1722 -1.6738  1.1585
 1551TIP3    H226145   2.881   2.281  14.589  1.3936  0.0266 -0.2209
 1552TIP3   OH226146   1.981   5.437  11.615 -0.1192  0.0379 -0.2267
 1552TIP3    H126147   2.042   5.363  11.627  0.8503  0.9791  1.0252
 1552TIP3    H226148   2.025   5.493  11.552  0.2371  0.6061  0.5052
 1553TIP3   OH226149   2.996   0.440  11.297  0.4292  0.0175  0.4750
 1553TIP3    H126150   2.974   0.463  11.207  1.2006 -0.8001  0.0599
 1553TIP3    H226151   3.027   0.521  11.337  0.0463  0.3900  0.0193
 1554TIP3   OH226152   5.086   6.799  16.566 -0.1600 -0.6374  0.2840
 1554TIP3    H126153   5.048   6.719  16.530  0.7586 -0.3817 -1.3535
 1554TIP3    H226154   5.172   6.772  16.598 -0.0682 -0.4132  0.2264
 1555TIP3   OH226155   2.666   3.783  12.866  0.1734  0.2149 -0.5414
 1555TIP3    H126156   2.576   3.815  12.855 -0.0796 -0.5768 -0.9124
 1555TIP3    H226157   2.707   3.798  12.781  0.3173  0.3464 -0.4484
 1556TIP3   OH226158   5.571   4.967  16.780  0.2281 -0.5421  0.1110
 1556TIP3    H126159   5.647   4.914  16.757  0.7305 -0.2187  0.9657
 1556TIP3    H226160   5.532   4.923  16.855  0.0740 -0.2467  0.2078
 1557TIP3   OH226161   3.828   2.895   5.975 -1.0153 -0.9134  0.4542
 1557TIP3    H126162   3.908   2.859   6.011  0.4313  1.1741 -0.4282
 1557TIP3    H226163   3.782   2.932   6.050  1.4894  2.5285  0.5758
 1558TIP3   OH226164   2.451   1.824  15.541  0.2868  0.0858  0.3159
 1558TIP3    H126165   2.452   1.790  15.631 -0.9793  0.6919  0.5850
 1558TIP3    H226166   2.407   1.909  15.549 -2.4006 -1.0423 -1.2407
 1559TIP3   OH226167   5.733   1.791  11.498  0.4221 -0.1937  0.7578
 1559TIP3    H126168   5.730   1.810  11.592  0.7677  1.0826  0.5282
 1559TIP3    H226169   5.821   1.815  11.472  0.3130 -0.5146  0.0940
 1560TIP3   OH226170   1.744   4.038   3.568 -0.0977  0.6623 -0.4166
 1560TIP3    H126171   1.761   4.118   3.518  1.0137  1.2919  0.8915
 1560TIP3    H226172   1.710   4.069   3.652 -0.2361 -0.2686 -0.1143
 1561TIP3   OH226173   1.859   0.236   2.693  0.2437  0.4323 -0.4456
 1561TIP3    H126174   1.839   0.269   2.780 -0.4279 -0.0054 -0.4268
 1561TIP3    H226175   1.816   0.297   2.633  0.3029  0.4641 -0.4556
 1562TIP3   OH226176   0.522   6.845  13.922 -0.3399  0.3421 -0.0258
 1562TIP3    H126177   0.448   6.865  13.980 -1.8521 -1.0911 -1.3467
 1562TIP3    H226178   0.531   6.750  13.928  1.6284  0.5215  0.3212
 1563TIP3   OH226179   4.581   4.962   4.819  0.2875  0.3127 -0.0757
 1563TIP3    H126180   4.643   4.893   4.798  0.5488  0.1256  1.1919
 1563TIP3    H226181   4.616   5.040   4.775 -0.1957 -0.4094 -1.7889
 1564TIP3   OH226182   4.412   6.541   6.270  0.4594 -0.1618 -0.3998
 1564TIP3    H126183   4.321   6.556   6.244  0.0761 -2.0583 -0.2661
 1564TIP3    H226184   4.407   6.510   6.361  1.0401 -2.2016 -1.0206
 1565TIP3   OH226185   5.328   3.117  10.388 -0.0521  0.0305  0.5561
 1565TIP3    H126186   5.371   3.077  10.313  0.0571 -0.8037  1.0438
 1565TIP3    H226187   5.329   3.048  10.455 -0.4098  0.6571  1.2169
 1566TIP3   OH226188   4.240   6.183  11.382 -0.2114  0.3697 -0.6799
 1566TIP3    H126189   4.298   6.132  11.326  0.4369 -0.6549  0.8527
 1566TIP3    H226190   4.279   6.270  11.384  1.9284 -0.5480  1.1236
 1567TIP3   OH226191   2.168   1.643  12.103  0.1426 -0.3519 -0.1811
 1567TIP3    H126192   2.127   1.728  12.115  1.8057  0.7180 -1.6541
 1567TIP3    H226193   2.219   1.652  12.023 -0.0711 -2.9242 -0.6885
 1568TIP3   OH226194   2.718   3.182  16.607 -0.2643 -0.0242 -0.1504
 1568TIP3    H126195   2.625   3.166  16.624 -0.3760 -1.0281 -1.5570
 1568TIP3    H226196   2.755   3.096  16.590  0.5208  0.5394 -1.4489
 1569TIP3   OH226197   3.854   1.796  16.185  0.0384  0.0642 -0.2959
 1569TIP3    H126198   3.841   1.844  16.103 -0.2035 -1.8578 -1.4194
 1569TIP3    H226199   3.850   1.704  16.161 -1.7871 -0.6085  2.1131
 1570TIP3   OH226200   4.851   3.846  16.617 -0.3454 -0.0433 -0.8853
 1570TIP3    H126201   4.856   3.794  16.537  0.5691  0.8132 -1.4149
 1570TIP3    H226202   4.894   3.929  16.594 -0.1091  0.2303  0.4733
 1571TIP3   OH226203   0.440   2.721  15.356 -0.6619  0.1872  0.1755
 1571TIP3    H126204   0.392   2.802  15.370 -0.4435  0.0296  2.1909
 1571TIP3    H226205   0.524   2.749  15.318 -0.6612  0.9046  0.6823
 1572TIP3   OH226206   6.254   2.058  15.973  0.0685  0.0632 -0.4272
 1572TIP3    H126207   6.192   2.025  16.038 -1.1689  1.1762 -1.0029
 1572TIP3    H226208   6.242   2.001  15.897 -2.1389  1.7652 -1.4575
 1573TIP3   OH226209   5.796   3.623  16.894  0.6792 -0.2620  0.0773
 1573TIP3    H126210   5.758   3.709  16.908  0.0836 -0.5246  0.1238
 1573TIP3    H226211   5.724   3.570  16.861  1.2720 -0.4987 -0.8614
 1574TIP3   OH226212   0.871   4.794  16.345  0.2206  0.2044 -0.0566
 1574TIP3    H126213   0.787   4.795  16.390  1.0204 -0.5041  1.5051
 1574TIP3    H226214   0.850   4.824  16.256 -2.1573 -2.5351 -0.5666
 1575TIP3   OH226215   0.287   5.573   1.853 -0.2751  0.2666  0.3095
 1575TIP3    H126216   0.271   5.647   1.912  2.1491 -0.1592  1.6493
 1575TIP3    H226217   0.326   5.612   1.775 -1.0386  0.5842  0.0784
 1576TIP3   OH226218   5.555   1.537   3.569 -0.0117  0.2225  0.5225
 1576TIP3    H126219   5.568   1.618   3.519  0.7142 -0.6108 -0.6952
 1576TIP3    H226220   5.640   1.520   3.610 -0.4430  0.5906  1.6019
 1577TIP3   OH226221   4.456   2.130  14.005 -0.4385 -0.1854 -0.0054
 1577TIP3    H126222   4.482   2.214  14.043 -1.1788 -1.1971  2.9942
 1577TIP3    H226223   4.363   2.122  14.023 -0.5996 -1.2461 -1.1367
 1578TIP3   OH226224   3.286   3.692  12.546 -0.3825  0.4813  0.0261
 1578TIP3    H126225   3.293   3.746  12.625 -1.3719  0.3645  0.2069
 1578TIP3    H226226   3.295   3.602  12.578  3.4425  0.4868 -0.5110
 1579TIP3   OH226227   2.814   4.223   2.631  0.3463  0.5136 -0.0065
 1579TIP3    H126228   2.880   4.253   2.693 -0.4157  1.0340  0.5706
 1579TIP3    H226229   2.852   4.238   2.545  0.4066  2.1756  0.2829
 1580TIP3   OH226230   5.523   0.614   3.771 -0.0221  0.1106 -0.3066
 1580TIP3    H126231   5.526   0.544   3.706 -0.9214 -1.3437  1.1625
 1580TIP3    H226232   5.498   0.571   3.852 -1.8629  2.3097  0.4095
 1581TIP3   OH226233   6.356   0.105   2.363  0.4916  0.1196  0.1607
 1581TIP3    H126234   6.284   0.053   2.400 -0.0193  0.9730  0.3889
 1581TIP3    H226235   6.432   0.079   2.415  0.2710 -0.4781  0.2005
 1582TIP3   OH226236   0.852   5.773   2.714  0.0498 -0.3886  0.5905
 1582TIP3    H126237   0.909   5.821   2.775 -0.3531 -2.0932  2.4270
 1582TIP3    H226238   0.875   5.681   2.727 -0.0750 -0.8274 -1.8961
 1583TIP3   OH226239   2.172   5.085  12.543 -0.7377  0.6022  0.3172
 1583TIP3    H126240   2.194   4.996  12.514  0.6238  1.2916 -0.9278
 1583TIP3    H226241   2.199   5.087  12.635  1.1141  0.2662 -0.1654
 1584TIP3   OH226242   6.172   4.938   2.118 -0.6073 -0.3261 -0.3515
 1584TIP3    H126243   6.236   5.008   2.132  0.8414 -1.4983 -0.9129
 1584TIP3    H226244   6.089   4.985   2.106  0.0196  1.2044  0.9061
 1585TIP3   OH226245   2.130   4.075   0.676 -0.2799  0.3698  0.1199
 1585TIP3    H126246   2.135   4.042   0.586 -0.6603  0.5053  0.0462
 1585TIP3    H226247   2.194   4.145   0.680 -1.1876  1.2572 -0.4358
 1586TIP3   OH226248   6.769   5.051   2.643  0.2528  0.2128  0.0818
 1586TIP3    H126249   6.727   5.060   2.728  1.6713 -1.1232  0.9773
 1586TIP3    H226250   6.838   5.118   2.643 -0.4613  0.9689 -0.5068
 1587TIP3   OH226251   6.052   6.278   1.083  0.2709  0.3782  0.4551
 1587TIP3    H126252   5.994   6.342   1.123 -1.0471 -0.4588 -0.0653
 1587TIP3    H226253   6.066   6.310   0.994 -2.1524 -1.0947 -0.5369
 1588TIP3   OH226254   3.299   4.751  12.483  0.4398 -0.5051 -1.2369
 1588TIP3    H126255   3.241   4.695  12.536  2.0182  0.2065  1.4057
 1588TIP3    H226256   3.265   4.742  12.394 -3.6217 -0.2973  0.0550
 1589TIP3   OH226257   2.412   3.771  13.249  0.1287  0.5103  0.2679
 1589TIP3    H126258   2.494   3.820  13.245 -0.1028  0.8617 -0.2555
 1589TIP3    H226259   2.378   3.788  13.336 -0.0609  1.4735  0.0149
 1590TIP3   OH226260   3.155   5.904   2.851  0.2966 -0.0317 -0.2403
 1590TIP3    H126261   3.082   5.874   2.905  1.2853 -1.6550  0.2716
 1590TIP3    H226262   3.114   5.951   2.779 -1.1027  2.4202  1.9451
 1591TIP3   OH226263   6.508   4.011   5.188  0.2237 -0.1905 -0.4171
 1591TIP3    H126264   6.483   4.051   5.105 -1.0172 -1.1263 -0.5336
 1591TIP3    H226265   6.431   3.960   5.214  1.2551 -1.4039  0.3730
 1592TIP3   OH226266   2.982   3.580  13.806 -0.5240 -0.4986  0.6213
 1592TIP3    H126267   3.051   3.526  13.843  1.2893  1.2418 -0.0495
 1592TIP3    H226268   2.901   3.533  13.827  0.8641 -2.8951  0.9342
 1593TIP3   OH226269   4.422   6.761   0.837  0.0043 -0.1377  0.4095
 1593TIP3    H126270   4.421   6.803   0.923  1.1270 -0.5537  0.6495
 1593TIP3    H226271   4.402   6.669   0.855  2.2754 -0.6673  0.5410
 1594TIP3   OH226272   0.162   3.294  11.799  0.0157  0.7497  0.0758
 1594TIP3    H126273   0.182   3.221  11.741  0.7983  1.9591 -1.2512
 1594TIP3    H226274   0.218   3.281  11.876 -0.8872 -0.7650  0.5144
 1595TIP3   OH226275   3.592   3.603   0.362  0.3551  0.7621 -0.0686
 1595TIP3    H126276   3.630   3.690   0.347 -0.4657  1.1945  0.3024
 1595TIP3    H226277   3.601   3.559   0.278  1.7010  0.8298  0.0081
 1596TIP3   OH226278   0.617   4.643   2.159  0.4166 -0.8282 -0.0705
 1596TIP3    H126279   0.553   4.676   2.096  0.0689 -1.1666  0.1058
 1596TIP3    H226280   0.702   4.671   2.124  0.1232  0.5565  0.2364
 1597TIP3   OH226281   3.715   0.857   0.605  0.0783 -0.3110 -0.0384
 1597TIP3    H126282   3.704   0.940   0.652  1.1089 -0.9105  1.3137
 1597TIP3    H226283   3.801   0.865   0.562 -0.5906 -0.0080 -1.3736
 1598TIP3   OH226284   3.930   5.166  14.404  0.4480 -0.0381 -0.1585
 1598TIP3    H126285   3.974   5.129  14.481 -3.3633 -0.5503  2.0397
 1598TIP3    H226286   3.909   5.090  14.349  1.1202  0.0600 -0.5618
 1599TIP3   OH226287   4.564   1.639   4.593  0.4354  0.3598 -0.4812
 1599TIP3    H126288   4.638   1.652   4.653 -0.1083 -0.3909  0.3712
 1599TIP3    H226289   4.571   1.548   4.566 -0.1863  0.2821 -0.3882
 1600TIP3   OH226290   1.054   6.564   5.615  0.0080 -0.0217  0.4203
 1600TIP3    H126291   1.003   6.622   5.672 -1.5731 -1.0085  0.0984
 1600TIP3    H226292   1.026   6.587   5.527 -0.1489 -0.8041  0.2566
 1601TIP3   OH226293   1.374   4.842  11.798  0.3203  0.0429  0.3413
 1601TIP3    H126294   1.442   4.816  11.859 -0.8456 -1.5289  1.0496
 1601TIP3    H226295   1.303   4.780  11.813 -1.3953  1.7728 -0.1754
 1602TIP3   OH226296   5.426   4.063  16.067 -0.8796 -0.1053 -0.7047
 1602TIP3    H126297   5.443   4.131  16.002 -1.1446  2.1453  1.4592
 1602TIP3    H226298   5.510   4.050  16.111 -1.0216 -0.6678 -0.5903
 1603TIP3   OH226299   5.666   0.075  15.797  0.0515 -0.8235 -0.4455
 1603TIP3    H126300   5.705   0.083  15.884  1.0152 -0.3093 -0.9103
 1603TIP3    H226301   5.691  -0.013  15.767  1.1999 -0.3588 -0.8919
 1604TIP3   OH226302   5.085   0.435  15.462 -0.0106  0.2397  0.0712
 1604TIP3    H126303   5.099   0.404  15.372  0.0348  2.9510 -0.9382
 1604TIP3    H226304   4.990   0.435  15.473 -0.0309  0.3144 -0.1104
 1605TIP3   OH226305   3.267   4.836   4.911 -0.1866  0.6308 -0.4204
 1605TIP3    H126306   3.361   4.821   4.919 -0.3043  0.6950  2.0475
 1605TIP3    H226307   3.227   4.754   4.940 -0.8245  1.7790  2.2312
 1606TIP3   OH226308   0.172   5.821  13.496  0.2060  0.5891  0.0124
 1606TIP3    H126309   0.229   5.897  13.486 -0.2518  0.8256 -0.9005
 1606TIP3    H226310   0.111   5.827  13.423 -0.9650  0.3188  0.9269
 1607TIP3   OH226311   0.430   5.131   4.022  0.0853 -0.0931 -0.4730
 1607TIP3    H126312   0.409   5.125   4.116 -1.1791 -0.6276 -0.7684
 1607TIP3    H226313   0.488   5.057   4.006 -1.3874 -1.2739 -0.5189
 1608TIP3   OH226314   0.949   0.058  15.060  0.1209 -0.4325 -0.6884
 1608TIP3    H126315   0.978   0.149  15.072  0.6616 -0.3757 -2.2730
 1608TIP3    H226316   0.862   0.066  15.023 -0.8389 -0.6074  1.3789
 1609TIP3   OH226317   3.801   1.345  12.474 -0.4016  0.1411 -0.3112
 1609TIP3    H126318   3.840   1.258  12.460 -2.5895 -0.6329 -2.2557
 1609TIP3    H226319   3.847   1.401  12.411  0.0975  0.1164  0.0198
 1610TIP3   OH226320   1.872   3.611  15.226 -0.5178 -0.0620 -0.3408
 1610TIP3    H126321   1.895   3.534  15.278 -0.6167  0.1775  0.0599
 1610TIP3    H226322   1.956   3.650  15.203 -0.4155 -0.8345 -1.3978
 1611TIP3   OH226323   3.807   2.837   2.945  0.4055  0.3870 -0.1874
 1611TIP3    H126324   3.829   2.859   2.854 -1.8872 -1.5840 -1.3387
 1611TIP3    H226325   3.848   2.906   2.997  1.2879  1.9363 -2.7554
 1612TIP3   OH226326   1.292   4.314   5.682 -0.8599 -0.7554  0.3015
 1612TIP3    H126327   1.233   4.349   5.615 -0.3025 -1.3072 -0.4977
 1612TIP3    H226328   1.293   4.381   5.751  1.0575  1.4273 -1.6616
 1613TIP3   OH226329   2.356   5.836  11.419 -0.2941  0.5493  0.2145
 1613TIP3    H126330   2.347   5.806  11.328  2.0048 -0.8932  0.3607
 1613TIP3    H226331   2.385   5.927  11.412  0.1550  0.3553 -0.5156
 1614TIP3   OH226332   6.164   5.722  15.103  0.0942 -0.0681 -0.4381
 1614TIP3    H126333   6.190   5.808  15.137  0.5799 -0.8431  1.2579
 1614TIP3    H226334   6.124   5.741  15.018 -0.2569  1.8872  0.1090
 1615TIP3   OH226335   1.965   3.022  11.174  0.5286  0.2401  0.2045
 1615TIP3    H126336   1.927   2.935  11.182 -0.8924  0.7979 -0.3087
 1615TIP3    H226337   1.949   3.048  11.083  1.0413  0.9969  0.3159
 1616TIP3   OH226338   1.584   0.522   0.611  0.4594  0.1084  0.6456
 1616TIP3    H126339   1.613   0.468   0.536 -1.6403 -0.1632 -0.0412
 1616TIP3    H226340   1.545   0.459   0.671  0.6114  0.5408  1.1968
 1617TIP3   OH226341   5.329   4.177   0.783 -0.1270 -0.4426 -0.4926
 1617TIP3    H126342   5.280   4.167   0.865 -2.5455 -0.1550 -1.7991
 1617TIP3    H226343   5.420   4.189   0.811 -0.9563  0.4854  2.1961
 1618TIP3   OH226344   2.372   2.110   1.395 -0.3429  0.7776  0.0729
 1618TIP3    H126345   2.343   2.019   1.402 -0.2888  0.6964 -0.6689
 1618TIP3    H226346   2.302   2.161   1.436 -1.1784  0.5230 -0.9908
 1619TIP3   OH226347   1.721   2.325   3.222 -0.3505 -0.1244 -0.6324
 1619TIP3    H126348   1.677   2.383   3.160 -0.2905 -0.6718 -1.1981
 1619TIP3    H226349   1.810   2.362   3.229 -0.7255  0.6741  0.1101
 1620TIP3   OH226350   3.733   5.256  12.052 -0.4752  0.0371  0.1084
 1620TIP3    H126351   3.733   5.191  12.123  3.1473  0.9944  1.2113
 1620TIP3    H226352   3.698   5.335  12.092  1.4455  0.5411  0.9014
 1621TIP3   OH226353   5.660   2.106   4.470  0.4492 -0.0403 -0.3181
 1621TIP3    H126354   5.586   2.153   4.509  1.4719  1.1705  0.2383
 1621TIP3    H226355   5.684   2.159   4.394  1.1931 -0.0177 -0.0738
 1622TIP3   OH226356   5.604   2.943   3.599  0.4008  0.1650 -0.1980
 1622TIP3    H126357   5.524   2.934   3.652 -0.2525 -0.9664 -1.3263
 1622TIP3    H226358   5.662   2.997   3.653 -0.7263  0.1490  1.0957
 1623TIP3   OH226359   5.334   6.125   3.120 -0.0642  0.5057 -1.1494
 1623TIP3    H126360   5.389   6.201   3.139 -0.6911  0.5481  0.7404
 1623TIP3    H226361   5.349   6.065   3.194 -1.4412 -0.1062 -1.3256
 1624TIP3   OH226362   1.846   3.555   0.747 -0.1200 -0.4179  0.5436
 1624TIP3    H126363   1.858   3.465   0.777  0.6706 -0.3655  0.3954
 1624TIP3    H226364   1.867   3.609   0.824  2.2664 -0.2690 -0.1503
 1625TIP3   OH226365   4.229   5.186   4.846 -0.2819 -0.5116 -0.0174
 1625TIP3    H126366   4.155   5.216   4.899  1.0399  1.1903  0.9556
 1625TIP3    H226367   4.287   5.141   4.909  0.1519 -0.6358 -0.4996
 1626TIP3   OH226368   6.109   6.068   1.827 -0.0334  0.3538  0.2171
 1626TIP3    H126369   6.054   6.032   1.896  0.4337  1.4684  1.1902
 1626TIP3    H226370   6.180   6.113   1.872 -1.6217  4.3055 -0.7378
 1627TIP3   OH226371   3.258   6.042  14.542  0.3153  0.6992 -0.2620
 1627TIP3    H126372   3.180   6.041  14.487  0.1570  1.0834 -0.0494
 1627TIP3    H226373   3.322   5.990  14.494  0.3816  1.5398 -1.0944
 1628TIP3   OH226374   2.075   0.508   6.444 -0.2102 -0.0069 -0.2091
 1628TIP3    H126375   1.990   0.520   6.486  0.1177 -1.5214  0.9758
 1628TIP3    H226376   2.055   0.461   6.363 -0.5830  0.5658 -0.4605
 1629TIP3   OH226377   3.004   6.589  16.683  0.1332  0.3097 -0.4941
 1629TIP3    H126378   2.912   6.563  16.688 -0.2796  1.4700 -1.5987
 1629TIP3    H226379   3.040   6.565  16.769 -1.1990 -0.1309 -0.0272
 1630TIP3   OH226380   0.847   2.406  15.668 -0.6452  0.2004  0.5608
 1630TIP3    H126381   0.769   2.350  15.663  0.4918 -1.4583  0.7207
 1630TIP3    H226382   0.839   2.464  15.592 -2.5260  0.7598  1.1259
 1631TIP3   OH226383   3.168   2.236  16.830 -0.2124  0.3710  0.2591
 1631TIP3    H126384   3.091   2.230  16.773 -0.1278 -0.6559  0.2397
 1631TIP3    H226385   3.157   2.164  16.892  1.1963 -0.3455 -0.3047
 1632TIP3   OH226386   6.578   4.804   5.472 -0.5266  0.0957 -1.4566
 1632TIP3    H126387   6.601   4.794   5.379  1.5860 -1.5859 -0.8467
 1632TIP3    H226388   6.520   4.730   5.490  0.1406 -0.3668 -1.1628
 1633TIP3   OH226389   0.974   5.688   0.843 -0.1760  0.0811  0.8382
 1633TIP3    H126390   1.000   5.773   0.808  0.7055 -0.0981  1.0401
 1633TIP3    H226391   0.914   5.652   0.777  0.3589  0.3615  0.1862
 1634TIP3   OH226392   4.771   2.236   1.490  0.3244 -0.9898 -0.5424
 1634TIP3    H126393   4.722   2.317   1.501  0.9093 -0.8420  1.3717
 1634TIP3    H226394   4.861   2.265   1.476  0.5825 -1.2774  0.4225
 1635TIP3   OH226395   6.450   4.621   3.494 -0.3551 -0.3337  0.1362
 1635TIP3    H126396   6.407   4.550   3.445 -0.0622 -0.4912  0.1086
 1635TIP3    H226397   6.501   4.668   3.428  0.0852 -0.5801  0.2980
 1636TIP3   OH226398   0.388   1.187  12.179 -0.3291  0.4285 -0.5276
 1636TIP3    H126399   0.425   1.145  12.102 -1.1617 -2.8073  0.6891
 1636TIP3    H226400   0.303   1.220  12.151 -0.3852 -0.2201 -1.1324
 1637TIP3   OH226401   2.481   1.456  13.483  0.0856 -0.0180  0.5304
 1637TIP3    H126402   2.531   1.375  13.472  0.5389 -0.3383  3.9784
 1637TIP3    H226403   2.537   1.523  13.444  0.0697 -1.1839 -1.6405
 1638TIP3   OH226404   0.550   1.422  12.706 -0.7329 -0.9979 -0.0501
 1638TIP3    H126405   0.608   1.403  12.633 -0.4132  0.1185 -0.1034
 1638TIP3    H226406   0.477   1.471  12.668 -0.2194  0.2033  0.4622
 1639TIP3   OH226407   0.275   0.004   3.863  0.4695 -0.4716 -0.7013
 1639TIP3    H126408   0.288  -0.030   3.952 -1.7966 -1.4969 -0.6783
 1639TIP3    H226409   0.231   0.088   3.875 -0.2580 -0.8278 -0.8511
 1640TIP3   OH226410   3.189   4.213  14.972  0.2749  0.3227 -0.2990
 1640TIP3    H126411   3.158   4.265  15.046 -2.2691  1.3749 -1.9756
 1640TIP3    H226412   3.165   4.123  14.994 -0.4797  0.6247  0.1489
 1641TIP3   OH226413   0.014   4.708   2.251  0.5894  0.2071  0.3815
 1641TIP3    H126414  -0.021   4.626   2.215  1.7122 -0.3582  0.5237
 1641TIP3    H226415   0.071   4.680   2.323 -0.2658  1.2246  1.4883
 1642TIP3   OH226416   3.309   4.293   2.968 -0.0378 -0.0287  0.1906
 1642TIP3    H126417   3.306   4.331   2.880  0.3191 -0.1769  0.1137
 1642TIP3    H226418   3.354   4.360   3.021 -0.4419  0.1521  0.3080
 1643TIP3   OH226419   0.733   5.143  12.219 -0.0701 -0.4329 -0.2960
 1643TIP3    H126420   0.647   5.106  12.236  0.3969 -1.8589 -0.9373
 1643TIP3    H226421   0.721   5.199  12.142 -0.1896 -1.6076 -1.1544
 1644TIP3   OH226422   5.712   0.299   2.841  0.4872 -0.7231 -0.5045
 1644TIP3    H126423   5.682   0.375   2.890  0.5142 -1.0818  0.0764
 1644TIP3    H226424   5.649   0.230   2.863  1.1755 -1.2141 -0.0328
 1645TIP3   OH226425   5.130   1.511  16.111 -0.4614 -0.0509 -0.4183
 1645TIP3    H126426   5.087   1.571  16.050 -0.9328  0.6128  0.5411
 1645TIP3    H226427   5.214   1.552  16.131  0.0277 -0.6429 -1.1834
 1646TIP3   OH226428   2.684   6.294   0.516  0.3921 -0.1572 -0.1202
 1646TIP3    H126429   2.589   6.299   0.509  0.4486 -1.4160 -4.7214
 1646TIP3    H226430   2.715   6.382   0.494  0.2487 -0.5699 -2.1526
 1647TIP3   OH226431   4.559   2.718   4.862  0.2826 -0.3982  0.6759
 1647TIP3    H126432   4.591   2.798   4.820  0.0656 -1.0983 -0.8943
 1647TIP3    H226433   4.466   2.736   4.879  0.1644 -0.4098  0.0638
 1648TIP3   OH226434   2.121   2.781   5.411 -0.5585  0.2722  1.1425
 1648TIP3    H126435   2.177   2.838   5.463 -1.6157  1.0425  1.4537
 1648TIP3    H226436   2.072   2.840   5.354  2.2542 -0.6014 -2.5969
 1649TIP3   OH226437   6.424   3.134   5.827  0.0233  0.5523 -0.4937
 1649TIP3    H126438   6.481   3.193   5.876 -0.6711  1.9117 -1.2655
 1649TIP3    H226439   6.401   3.183   5.748  0.0019 -1.0436 -1.5305
 1650TIP3   OH226440   5.432   0.430   3.959  0.5565  0.2270  0.0071
 1650TIP3    H126441   5.470   0.472   4.037 -2.8182  2.7372  0.5143
 1650TIP3    H226442   5.417   0.340   3.986  1.4335  0.4925  1.5124
 1651TIP3   OH226443   1.234   1.218  12.900 -0.2747  0.2046  0.0898
 1651TIP3    H126444   1.263   1.296  12.947 -1.3104  0.8711 -0.3350
 1651TIP3    H226445   1.155   1.246  12.854 -0.3877 -0.9680 -0.4662
 1652TIP3   OH226446   6.433   5.013  14.407 -0.4590  0.2485  0.0325
 1652TIP3    H126447   6.421   5.053  14.321 -0.6538 -0.2685 -0.1849
 1652TIP3    H226448   6.516   4.965  14.399  0.1263  1.1446  0.5042
 1653TIP3   OH226449   6.662   1.939  14.809 -0.5033 -0.0057 -0.0706
 1653TIP3    H126450   6.677   1.847  14.830  1.4052 -0.7138 -3.8404
 1653TIP3    H226451   6.672   1.984  14.893  1.4079 -2.9312  1.4261
 1654TIP3   OH226452   1.626   6.306  15.511 -0.0397 -0.1798 -1.2786
 1654TIP3    H126453   1.682   6.232  15.486 -0.4683 -1.7597  1.9523
 1654TIP3    H226454   1.540   6.284  15.477 -0.3408 -1.6767  0.2859
 1655TIP3   OH226455   4.645   0.128   5.281 -0.1240  0.1519 -0.0730
 1655TIP3    H126456   4.610   0.062   5.340  0.7150 -0.4341 -0.2122
 1655TIP3    H226457   4.721   0.164   5.327 -0.5994  1.0684  0.0236
 1656TIP3   OH226458   3.001   2.793   5.812 -0.1608 -0.3921  0.4874
 1656TIP3    H126459   3.019   2.779   5.719  0.2358 -0.8423  0.6234
 1656TIP3    H226460   3.082   2.827   5.848  0.4048 -2.2053  1.0623
 1657TIP3   OH226461   0.117   1.821  13.021  0.2850 -0.0460  0.7594
 1657TIP3    H126462   0.114   1.762  12.945 -1.6729 -1.4058  1.7937
 1657TIP3    H226463   0.038   1.874  13.012  0.4152  0.2675  1.4597
 1658TIP3   OH226464   3.811   1.586   0.553 -0.8781  0.2288 -0.8225
 1658TIP3    H126465   3.717   1.581   0.568 -0.9357  1.0439 -0.8516
 1658TIP3    H226466   3.828   1.520   0.485 -1.2991 -0.4475 -0.2817
 1659TIP3   OH226467   1.875   1.997  13.263  0.2971  0.4867 -0.3587
 1659TIP3    H126468   1.806   2.038  13.316 -0.2603 -0.6830 -0.1559
 1659TIP3    H226469   1.884   2.054  13.187 -0.1557  1.2174  0.1246
 1660TIP3   OH226470   2.503   0.844   1.921  0.4655  0.3571 -0.6135
 1660TIP3    H126471   2.419   0.798   1.916  0.9075 -0.5327 -0.0896
 1660TIP3    H226472   2.479   0.936   1.933 -0.4442 -0.1275  1.7000
 1661TIP3   OH226473   0.484   6.770  16.450  0.1815  0.5016  0.7771
 1661TIP3    H126474   0.549   6.840  16.444  0.4987  0.0719 -2.1155
 1661TIP3    H226475   0.535   6.690  16.461 -0.0136  0.4199  1.1156
 1662TIP3   OH226476   2.180   2.884  11.645  0.1044 -0.0635  0.4705
 1662TIP3    H126477   2.205   2.975  11.663 -0.0385 -0.4271  2.7917
 1662TIP3    H226478   2.253   2.832  11.679  0.6393 -0.8615 -1.6915
 1663TIP3   OH226479   4.384   3.433   1.431  0.3390  0.3894  0.6679
 1663TIP3    H126480   4.375   3.349   1.386 -0.1870  0.5321  0.4971
 1663TIP3    H226481   4.346   3.497   1.370 -1.2003  0.4771  1.6636
 1664TIP3   OH226482   5.601   5.880  12.318  0.1549  0.3907 -0.1210
 1664TIP3    H126483   5.602   5.952  12.381 -0.3319 -0.8016  1.3159
 1664TIP3    H226484   5.509   5.854  12.312  0.5137 -1.2120  0.7554
 1665TIP3   OH226485   6.278   1.531   3.241  0.6735  0.1864 -0.4868
 1665TIP3    H126486   6.319   1.469   3.182 -0.6082 -2.2722  1.0286
 1665TIP3    H226487   6.187   1.537   3.211  0.1369 -0.7120  0.8491
 1666TIP3   OH226488   0.683   3.345   3.605 -0.4089  0.4853 -0.0524
 1666TIP3    H126489   0.654   3.363   3.515 -0.5675  1.1157  0.1163
 1666TIP3    H226490   0.716   3.255   3.602 -0.4435  0.4856 -0.7329
 1667TIP3   OH226491   2.500   2.038  10.847 -0.7847  0.3767 -0.3859
 1667TIP3    H126492   2.471   2.004  10.762  1.5099  1.5778 -1.7708
 1667TIP3    H226493   2.539   2.123  10.826 -1.1449  1.2031  2.0713
 1668TIP3   OH226494   1.342   2.568   1.996  0.5292 -0.0100  0.4179
 1668TIP3    H126495   1.328   2.584   2.089  0.8736  2.4384  0.1071
 1668TIP3    H226496   1.396   2.641   1.966  0.5280 -0.7892 -1.6871
 1669TIP3   OH226497   2.264   2.612   4.831 -0.0657 -0.3575  0.4469
 1669TIP3    H126498   2.270   2.579   4.921  1.6884 -0.8414  0.2016
 1669TIP3    H226499   2.297   2.540   4.777 -0.4115  0.1893 -0.5111
 1670TIP3   OH226500   2.287   2.374  15.573 -0.0415 -0.6725 -0.8774
 1670TIP3    H126501   2.239   2.410  15.499 -3.4865 -0.6862  1.1122
 1670TIP3    H226502   2.225   2.314  15.614  1.9237 -1.1537  1.6321
 1671TIP3   OH226503   5.251   4.447   4.003  0.2147  0.1582  0.5857
 1671TIP3    H126504   5.165   4.463   3.964  0.9481  1.4921 -0.5583
 1671TIP3    H226505   5.280   4.533   4.033  2.0957  0.2100 -1.1235
 1672TIP3   OH226506   0.406   3.971   2.649  0.5851  0.6797 -0.3207
 1672TIP3    H126507   0.381   3.883   2.676  1.8873  0.0976 -0.8874
 1672TIP3    H226508   0.343   3.994   2.581  1.1503 -0.4699 -1.2727
 1673TIP3   OH226509   0.770   3.757  14.670  0.0203 -0.2076 -0.5311
 1673TIP3    H126510   0.709   3.683  14.660 -0.9167  0.7132 -2.0122
 1673TIP3    H226511   0.780   3.767  14.765  2.7713 -4.2808 -0.1332
 1674TIP3   OH226512   2.392   6.450  12.970 -0.0284  0.3263  0.0296
 1674TIP3    H126513   2.376   6.542  12.993  0.5219  0.0836  1.4833
 1674TIP3    H226514   2.487   6.440  12.975 -0.0759 -0.3022 -0.2157
 1675TIP3   OH226515   6.443   5.808   5.318 -0.6026  0.1969 -0.9930
 1675TIP3    H126516   6.406   5.731   5.276  0.5538 -1.2256  0.4719
 1675TIP3    H226517   6.419   5.800   5.410  0.0909  1.2394 -0.7019
 1676TIP3   OH226518   6.002   5.126  12.059 -0.1869  0.3565  0.9256
 1676TIP3    H126519   5.950   5.144  12.138  0.5448 -0.6608  1.6645
 1676TIP3    H226520   6.092   5.148  12.084  0.0277  0.1829  0.3210
 1677TIP3   OH226521   4.364   2.599  10.272  0.3344  0.0213  0.3133
 1677TIP3    H126522   4.392   2.652  10.198  0.2526  0.5623  0.6645
 1677TIP3    H226523   4.445   2.577  10.318  0.4023 -0.4603 -0.0269
 1678TIP3   OH226524   0.326   3.019  12.090  0.2207 -0.3399 -0.1769
 1678TIP3    H126525   0.288   2.984  12.010  1.2029 -2.0100  0.0469
 1678TIP3    H226526   0.421   3.016  12.076  0.3777  0.8357  0.4545
 1679TIP3   OH226527   1.356   1.649   5.041 -0.1616  0.2430  0.6062
 1679TIP3    H126528   1.338   1.583   4.974 -1.3611  1.8091 -0.7043
 1679TIP3    H226529   1.292   1.633   5.110 -1.9163  1.3039 -0.7052
 1680TIP3   OH226530   2.039   6.130   4.981  0.0844 -0.3191 -0.0678
 1680TIP3    H126531   2.034   6.035   4.975  1.8351 -0.4495 -0.0731
 1680TIP3    H226532   2.132   6.148   4.996 -0.2244  1.3893  0.0058
 1681TIP3   OH226533   3.753   5.018   1.857 -0.2532  0.5239  0.0432
 1681TIP3    H126534   3.818   5.042   1.923  0.7153  1.3043 -1.1492
 1681TIP3    H226535   3.770   5.077   1.783 -0.8379 -0.7836 -1.1885
 1682TIP3   OH226536   2.347   3.239   4.327 -0.0539  0.0131 -0.0694
 1682TIP3    H126537   2.330   3.155   4.370 -1.7788  0.3226 -0.0432
 1682TIP3    H226538   2.293   3.302   4.376  0.1010  0.8767 -0.9779
 1683TIP3   OH226539   1.160   6.184   1.493 -0.0268 -0.0240 -0.1748
 1683TIP3    H126540   1.102   6.109   1.474 -0.3344  0.0505  0.4429
 1683TIP3    H226541   1.217   6.152   1.562  0.6835 -0.0936 -0.7790
 1684TIP3   OH226542   1.544   2.639   5.253 -0.2040  0.2962  0.2246
 1684TIP3    H126543   1.534   2.658   5.346 -1.0049  1.5728 -0.0937
 1684TIP3    H226544   1.564   2.546   5.249 -1.3634 -0.0391  1.6073
 1685TIP3   OH226545   6.256   0.555   5.244  0.6837  0.0708 -0.4858
 1685TIP3    H126546   6.193   0.483   5.243 -0.0823  0.6986  0.4939
 1685TIP3    H226547   6.239   0.603   5.163 -0.7866  0.7723  0.1988
 1686TIP3   OH226548   5.281   3.064  14.219  0.3327  0.2159 -0.2421
 1686TIP3    H126549   5.225   2.987  14.209  0.9595 -0.5750  1.7465
 1686TIP3    H226550   5.366   3.036  14.186  0.4016  0.2428 -0.0915
 1687TIP3   OH226551   5.373   3.522   5.226  0.1862  0.0424  0.8912
 1687TIP3    H126552   5.310   3.550   5.292  0.3696 -0.4184  1.2687
 1687TIP3    H226553   5.337   3.440   5.192 -0.6755  1.0065 -0.6533
 1688TIP3   OH226554   6.633   4.386  10.520  0.4979 -0.4082 -0.3668
 1688TIP3    H126555   6.672   4.340  10.594  0.9687  0.5153 -0.0202
 1688TIP3    H226556   6.561   4.330  10.491 -0.5014 -0.2059  1.5922
 1689TIP3   OH226557   5.583   6.590   1.956 -0.6447 -0.0608  0.1521
 1689TIP3    H126558   5.527   6.638   2.018 -0.2985  0.3629  0.1449
 1689TIP3    H226559   5.545   6.503   1.952 -4.2151  1.3342 -3.3234
 1690TIP3   OH226560   5.002   0.335  14.234 -0.0765  0.4606  0.0805
 1690TIP3    H126561   4.935   0.299  14.293  0.6875 -0.5109  0.3722
 1690TIP3    H226562   5.021   0.264  14.172 -0.0686  1.0925 -0.6603
 1691TIP3   OH226563   5.826   4.939   5.679 -0.8069 -0.6763 -0.0890
 1691TIP3    H126564   5.874   4.873   5.629  0.4270 -0.7187  1.0794
 1691TIP3    H226565   5.892   5.004   5.702 -1.8792  0.6412 -0.6477
 1692TIP3   OH226566   6.777   6.827   2.815  0.6046 -0.3598  0.9736
 1692TIP3    H126567   6.849   6.819   2.877  1.3056 -0.0555  0.2207
 1692TIP3    H226568   6.749   6.737   2.798  0.3272 -0.4341  1.8134
 1693TIP3   OH226569   0.054   4.022  14.627 -0.1151  0.0534  0.0152
 1693TIP3    H126570   0.021   3.973  14.552 -0.9283 -0.9200  0.9738
 1693TIP3    H226571  -0.021   4.072  14.658 -0.7640 -2.0824  2.1447
 1694TIP3   OH226572   6.286   0.195   3.141  0.5960 -1.3117 -0.7989
 1694TIP3    H126573   6.313   0.103   3.146  0.7071 -1.2432  0.0360
 1694TIP3    H226574   6.319   0.226   3.057  1.6466 -1.6937 -0.5375
 1695TIP3   OH226575   2.892   1.663   3.690 -0.2400 -0.0048  0.0125
 1695TIP3    H126576   2.871   1.600   3.621  1.1971  0.2794 -0.7216
 1695TIP3    H226577   2.833   1.737   3.674  0.7687  0.4989 -1.5761
 1696TIP3   OH226578   0.706   5.912   3.169 -0.3956 -0.1362 -0.5271
 1696TIP3    H126579   0.778   5.865   3.128 -0.4926 -0.4305 -0.3625
 1696TIP3    H226580   0.733   6.004   3.168 -0.9383  0.0425 -2.3949
 1697TIP3   OH226581   5.806   4.890  16.444  0.5441  0.4851 -0.4037
 1697TIP3    H126582   5.761   4.968  16.476  0.6702  0.7916 -0.9591
 1697TIP3    H226583   5.844   4.917  16.360  0.0978 -0.3421 -0.8879
 1698TIP3   OH226584   3.709   1.594   5.178  0.1752  0.3136 -0.4752
 1698TIP3    H126585   3.713   1.690   5.176  0.0106  0.3424  0.2577
 1698TIP3    H226586   3.801   1.567   5.182  0.2187  0.4453 -0.5645
 1699TIP3   OH226587   4.868   6.697  11.320  0.1520  0.5190 -0.4712
 1699TIP3    H126588   4.903   6.692  11.231 -1.8088  1.3242 -1.3400
 1699TIP3    H226589   4.773   6.699  11.308 -0.1868 -0.3965  1.7129
 1700TIP3   OH226590   1.742   1.454  13.595 -0.4176 -0.0954 -0.0233
 1700TIP3    H126591   1.819   1.510  13.596 -1.6149  1.6580  1.1054
 1700TIP3    H226592   1.776   1.365  13.583  1.8456  0.5154  1.2786
 1701TIP3   OH226593   4.392   6.174  15.689 -0.1534  0.0918  0.0931
 1701TIP3    H126594   4.303   6.173  15.723  0.3951  0.3114  1.6263
 1701TIP3    H226595   4.397   6.253  15.636 -0.7558  0.2660  0.2931
 1702TIP3   OH226596   5.291   2.836   4.175  0.2001 -0.1840  0.3423
 1702TIP3    H126597   5.202   2.850   4.142  0.7399 -0.6733 -1.4158
 1702TIP3    H226598   5.290   2.874   4.263 -0.9438  2.5198 -0.7113
 1703TIP3   OH226599   3.014   4.072  11.669  0.1287  0.4930 -0.3148
 1703TIP3    H126600   2.998   3.978  11.681  1.2443  0.3265 -0.0778
 1703TIP3    H226601   3.031   4.104  11.758  0.4096  0.7924 -0.4780
 1704TIP3   OH226602   0.990   4.100  15.646  0.4661  0.3875 -0.2342
 1704TIP3    H126603   1.022   4.190  15.655 -2.6512  1.7878 -1.6791
 1704TIP3    H226604   1.064   4.053  15.607  2.2887  2.1841  0.8018
 1705TIP3   OH226605   5.110   1.700  11.154  0.3448  0.6618 -0.3266
 1705TIP3    H126606   5.054   1.760  11.105 -0.3108  0.3658  0.0488
 1705TIP3    H226607   5.080   1.613  11.128  1.7080  0.4628 -1.3560
 1706TIP3   OH226608   1.865   3.249  14.858  0.2437 -0.0523 -0.1842
 1706TIP3    H126609   1.862   3.176  14.796  0.1309 -1.0034  0.9162
 1706TIP3    H226610   1.773   3.261  14.884  0.3356  0.1147  0.0610
 1707TIP3   OH226611   5.044   5.401  13.876  0.2562  0.1208 -0.2778
 1707TIP3    H126612   5.050   5.448  13.959 -1.4542  0.2307 -0.1639
 1707TIP3    H226613   4.950   5.403  13.855  0.4386 -1.3269 -1.3798
 1708TIP3   OH226614   5.082   6.643   4.340  0.4201 -0.5535 -0.3020
 1708TIP3    H126615   5.102   6.559   4.298  0.0830 -0.2991 -0.9905
 1708TIP3    H226616   5.004   6.626   4.391  0.7457 -0.8293  0.1117
 1709TIP3   OH226617   6.723   1.360   3.704  0.3694  0.2443  0.3310
 1709TIP3    H126618   6.696   1.449   3.727  0.5764  0.9373 -1.9081
 1709TIP3    H226619   6.641   1.310   3.703 -0.1464  1.0634 -1.0395
 1710TIP3   OH226620   4.140   4.455  14.255  0.2521 -0.5452 -0.1369
 1710TIP3    H126621   4.090   4.530  14.288  1.6333  1.1754 -1.7434
 1710TIP3    H226622   4.143   4.394  14.329 -1.8771  0.4508  0.8631
 1711TIP3   OH226623   4.622   1.895   0.400  0.4529 -0.1919 -0.2138
 1711TIP3    H126624   4.708   1.880   0.439  0.0574  2.5591  2.0591
 1711TIP3    H226625   4.640   1.907   0.306  2.6457  0.7039  0.2551
 1712TIP3   OH226626   1.315   0.002   1.802  0.1646  0.1186 -0.4576
 1712TIP3    H126627   1.334  -0.063   1.870 -1.7632  1.0921  1.0843
 1712TIP3    H226628   1.335   0.086   1.842 -1.1898  0.7273 -0.9865
 1713TIP3   OH226629   4.809   0.342   5.700 -0.0310  0.6918 -0.3813
 1713TIP3    H126630   4.714   0.332   5.707 -0.0491  0.6688 -0.6716
 1713TIP3    H226631   4.844   0.258   5.732 -0.0468  1.2832  1.3202
 1714TIP3   OH226632   3.961   3.634  16.252 -0.0017  0.5584 -0.5880
 1714TIP3    H126633   3.974   3.606  16.342 -1.1759  0.7780 -0.3336
 1714TIP3    H226634   4.045   3.618  16.209 -0.8734 -4.8682 -0.9017
 1715TIP3   OH226635   4.817   3.705  13.806 -0.0659  0.1347 -0.4144
 1715TIP3    H126636   4.723   3.690  13.822 -0.3183  0.5359 -1.4418
 1715TIP3    H226637   4.846   3.756  13.882 -0.3243 -1.2714  0.6602
 1716TIP3   OH226638   1.596   0.987   2.212 -0.0335  0.0713 -0.3648
 1716TIP3    H126639   1.601   0.919   2.279 -0.2496 -2.7306 -3.0226
 1716TIP3    H226640   1.671   0.971   2.155  0.7467  3.0339 -0.3231
 1717TIP3   OH226641   0.732   3.537   1.407  0.1903  0.1596 -0.1903
 1717TIP3    H126642   0.775   3.463   1.364 -0.7275  0.2057 -1.2603
 1717TIP3    H226643   0.693   3.586   1.334 -3.4325 -0.9940  0.7521
 1718TIP3   OH226644   1.423   5.644  16.761  0.0653 -0.2086 -0.3175
 1718TIP3    H126645   1.507   5.690  16.760  0.2235 -0.5121 -1.0705
 1718TIP3    H226646   1.419   5.598  16.677 -0.6519 -0.5609 -0.0988
 1719TIP3   OH226647   3.693   6.702   2.094 -0.1975 -0.0800  0.5155
 1719TIP3    H126648   3.619   6.649   2.065  0.8020 -0.4080 -1.6064
 1719TIP3    H226649   3.770   6.651   2.071  0.7795  1.8965 -0.8619
 1720TIP3   OH226650   1.972   4.617  16.879 -0.6412  0.2504  0.0897
 1720TIP3    H126651   2.023   4.653  16.807  1.1947  1.6728  1.9642
 1720TIP3    H226652   1.881   4.623  16.850  0.0244  0.8182 -2.0346
 1721TIP3   OH226653   1.661   3.194  15.275  0.2138 -0.0234 -0.2454
 1721TIP3    H126654   1.729   3.260  15.290 -0.3517  0.8623 -1.4485
 1721TIP3    H226655   1.704   3.126  15.224  1.0920 -1.1778  1.8728
 1722TIP3   OH226656   2.481   0.045   1.211  0.2645 -0.0643 -0.1467
 1722TIP3    H126657   2.552   0.110   1.215  1.0827 -0.6553 -2.8832
 1722TIP3    H226658   2.524  -0.039   1.227 -0.1235 -0.2655 -0.1500
 1723TIP3   OH226659   3.280   1.971  12.044  0.1317 -0.5909 -0.4928
 1723TIP3    H126660   3.219   2.024  11.993  0.6118 -1.0812 -1.6133
 1723TIP3    H226661   3.314   2.031  12.111 -0.7771 -0.0327 -0.5130
 1724TIP3   OH226662   6.395   0.511   2.087 -0.3659  0.2533 -0.2360
 1724TIP3    H126663   6.490   0.518   2.083 -0.2687 -1.2925 -1.7998
 1724TIP3    H226664   6.363   0.600   2.078  0.9120  0.8464  0.7391
 1725TIP3   OH226665   4.756   3.662   6.049  0.0332 -0.2688 -0.2653
 1725TIP3    H126666   4.696   3.721   6.096 -0.0678  0.7310 -1.5937
 1725TIP3    H226667   4.827   3.646   6.111 -0.9982 -0.5054  0.9019
 1726TIP3   OH226668   0.104   3.684  11.650  0.1624 -0.2056 -0.3355
 1726TIP3    H126669   0.033   3.737  11.612  1.1239  1.4520  0.0721
 1726TIP3    H226670   0.060   3.624  11.709 -0.9044  1.0924  0.2458
 1727TIP3   OH226671   4.179   4.332   3.943 -0.4074  0.1984  0.1713
 1727TIP3    H126672   4.099   4.384   3.939 -0.3145  0.4066  0.8973
 1727TIP3    H226673   4.208   4.326   3.852 -0.1523  1.8364  0.1084
 1728TIP3   OH226674   4.132   3.467  14.928 -0.0998 -0.3089 -0.5183
 1728TIP3    H126675   4.157   3.381  14.962 -1.6520 -0.4849  0.2833
 1728TIP3    H226676   4.036   3.464  14.923 -0.1217  1.0319 -1.4207
 1729TIP3   OH226677   5.970   3.082  10.793  0.4978 -0.2939 -0.4529
 1729TIP3    H126678   6.063   3.106  10.797  0.0965  1.1838  0.8786
 1729TIP3    H226679   5.940   3.082  10.884 -0.2088 -3.5193 -0.5565
 1730TIP3   OH226680   3.612   2.656   0.514  0.0594  0.5733 -0.3953
 1730TIP3    H126681   3.523   2.639   0.543 -0.3196  0.6576 -1.4496
 1730TIP3    H226682   3.663   2.580   0.544 -0.0427  1.2199  1.4957
 1731TIP3   OH226683   1.775   1.002  15.846  0.1640 -0.2177  0.4988
 1731TIP3    H126684   1.716   1.077  15.854 -0.9070 -0.4087 -3.4542
 1731TIP3    H226685   1.862   1.039  15.862 -0.5563  1.3546  0.9416
 1732TIP3   OH226686   6.813   1.165   4.119 -0.8307 -0.4453  0.1966
 1732TIP3    H126687   6.848   1.097   4.061 -1.3434 -0.2418 -0.3598
 1732TIP3    H226688   6.720   1.168   4.099 -0.9848 -0.2258  0.8931
 1733TIP3   OH226689   0.248   3.746   5.661  0.3118  0.3096 -0.4673
 1733TIP3    H126690   0.185   3.680   5.631 -1.1249  2.0537 -1.4824
 1733TIP3    H226691   0.304   3.699   5.723  0.4300 -2.2734 -2.3769
 1734TIP3   OH226692   4.848   1.489  14.152 -0.0839 -0.4341 -0.2663
 1734TIP3    H126693   4.881   1.428  14.218 -0.1131 -0.8609 -0.6418
 1734TIP3    H226694   4.922   1.545  14.131 -0.2569  0.1279  0.6078
 1735TIP3   OH226695   1.005   3.029   0.588 -0.1962 -0.0037  0.1832
 1735TIP3    H126696   1.052   3.110   0.571 -0.3027 -0.1826 -1.0615
 1735TIP3    H226697   1.014   2.979   0.507 -0.1455 -1.2331  0.9196
 1736TIP3   OH226698   6.322   5.675   3.883 -0.1165 -0.4563  0.2656
 1736TIP3    H126699   6.333   5.739   3.954 -0.1083 -2.9006  2.6670
 1736TIP3    H226700   6.228   5.662   3.878 -0.2441  0.7673 -1.3033
 1737TIP3   OH226701   2.339   3.702   0.279  0.5609  0.3521 -0.3476
 1737TIP3    H126702   2.319   3.672   0.368 -0.0433 -1.1093 -0.9371
 1737TIP3    H226703   2.434   3.696   0.273  0.4877 -1.5378 -0.4099
 1738TIP3   OH226704   6.241   5.182   2.943 -0.6698  0.4439  0.3076
 1738TIP3    H126705   6.333   5.206   2.949 -0.6854  0.5239  0.2264
 1738TIP3    H226706   6.217   5.156   3.032 -0.9237  1.7065  0.6137
 1739TIP3   OH226707   6.293   1.165   3.875 -0.7319 -0.1115 -0.1745
 1739TIP3    H126708   6.286   1.241   3.933 -0.2887 -0.1329 -0.0927
 1739TIP3    H226709   6.211   1.165   3.826 -2.0629 -1.3010  1.9064
 1740TIP3   OH226710   3.486   6.450   4.892 -0.5137 -0.6549  0.3706
 1740TIP3    H126711   3.478   6.405   4.808  0.2948 -1.8092  0.8798
 1740TIP3    H226712   3.550   6.520   4.876 -0.7300 -0.5593 -0.0849
 1741TIP3   OH226713   2.989   4.907  13.052 -0.2405 -0.0021  0.2476
 1741TIP3    H126714   3.017   4.848  13.122  0.0133  0.5806  0.6460
 1741TIP3    H226715   2.929   4.854  12.999  1.1899 -1.1340 -0.3327
 1742TIP3   OH226716   6.835   5.505   2.637 -0.3968 -0.4701 -0.2010
 1742TIP3    H126717   6.805   5.471   2.722 -1.2491 -2.8444 -1.3567
 1742TIP3    H226718   6.766   5.566   2.611 -0.3305 -0.0254  0.6249
 1743TIP3   OH226719   5.191   5.968  12.939 -0.1586 -0.0307  0.2240
 1743TIP3    H126720   5.124   5.984  13.004 -0.4661 -0.8705  0.1235
 1743TIP3    H226721   5.238   6.051  12.932  0.3705 -0.1306  2.0657
 1744TIP3   OH226722   6.002   4.921   6.308 -0.4796  0.2599 -0.3352
 1744TIP3    H126723   6.019   5.011   6.338 -2.6855  0.9277 -0.9176
 1744TIP3    H226724   6.013   4.925   6.213 -0.1732 -0.1928 -0.3202
 1745TIP3   OH226725   2.156   4.820  11.139  0.3114  0.3981  0.4036
 1745TIP3    H126726   2.121   4.909  11.140 -0.7507 -0.0114  1.1855
 1745TIP3    H226727   2.079   4.764  11.135  0.9692 -0.5081 -2.9895
 1746TIP3   OH226728   2.143   1.642  13.207  0.5645  0.9089  0.2390
 1746TIP3    H126729   2.195   1.678  13.136 -0.6989  1.7969 -0.2577
 1746TIP3    H226730   2.146   1.708  13.276 -2.5250  2.6006 -1.0210
 1747TIP3   OH226731   2.157   1.703   0.619  0.3800 -0.2205  0.1645
 1747TIP3    H126732   2.095   1.745   0.680 -0.5800 -2.0123  0.4935
 1747TIP3    H226733   2.101   1.650   0.562  1.0533  2.5329 -3.4063
 1748TIP3   OH226734   3.781   0.096  10.685  0.1297 -0.6455 -0.2549
 1748TIP3    H126735   3.717   0.147  10.635  0.8633  0.8098  0.2535
 1748TIP3    H226736   3.772   0.126  10.775  0.5540 -1.4593  0.0751
 1749TIP3   OH226737   1.511   0.647   4.533  0.1209 -0.1479 -0.5075
 1749TIP3    H126738   1.482   0.699   4.608 -0.0401 -0.1610 -0.5616
 1749TIP3    H226739   1.589   0.693   4.502 -0.1244  0.1701 -0.6676
 1750TIP3   OH226740   2.565   5.721  15.962  0.1569 -0.0032 -0.5171
 1750TIP3    H126741   2.540   5.795  15.908  1.8254  1.7022  0.9317
 1750TIP3    H226742   2.625   5.670  15.907  0.3089  0.6192 -0.9284
 1751TIP3   OH226743   1.816   5.966  10.866  0.1821 -0.1887 -0.1995
 1751TIP3    H126744   1.842   5.896  10.926  1.2900  2.3636  2.6019
 1751TIP3    H226745   1.891   5.976  10.807  0.0413 -1.2671 -0.5776
 1752TIP3   OH226746   3.231   2.114   2.989 -0.5263  0.4360 -0.1547
 1752TIP3    H126747   3.279   2.129   2.907 -0.7492  0.9138 -0.2010
 1752TIP3    H226748   3.291   2.062   3.043 -0.4541 -0.0460 -0.6948
 1753TIP3   OH226749   2.727   0.522   0.182  0.4599 -0.0207  0.3276
 1753TIP3    H126750   2.803   0.568   0.220  0.1710  2.1262 -1.4784
 1753TIP3    H226751   2.672   0.592   0.148 -1.2565 -1.6600 -0.4249
 1754TIP3   OH226752   0.326   1.141   1.581  0.3942  0.1187 -0.0481
 1754TIP3    H126753   0.369   1.130   1.666 -0.9942  1.7003  0.9148
 1754TIP3    H226754   0.338   1.233   1.560 -2.4528  0.6480  0.2744
 1755TIP3   OH226755   4.874   0.759   0.943 -0.2352  0.1771 -0.2811
 1755TIP3    H126756   4.800   0.699   0.945 -0.5489  0.4853 -1.8197
 1755TIP3    H226757   4.946   0.709   0.903  0.2750  0.0308  0.7745
 1756TIP3   OH226758   5.442   4.048   3.106  0.3467  0.4031 -0.1601
 1756TIP3    H126759   5.454   3.980   3.039 -0.5842  1.4114 -1.3986
 1756TIP3    H226760   5.476   4.127   3.065  1.0199  0.7850  1.1043
 1757TIP3   OH226761   2.366   2.643   2.453  0.0668 -0.3801  0.3693
 1757TIP3    H126762   2.316   2.663   2.533  0.9497 -1.0195  1.1073
 1757TIP3    H226763   2.429   2.577   2.481  0.6634 -0.3162 -0.7821
 1758TIP3   OH226764   2.113   6.476  15.782 -0.5195 -0.2174 -0.0077
 1758TIP3    H126765   2.066   6.545  15.829 -0.5411  2.1232 -3.1335
 1758TIP3    H226766   2.044   6.420  15.747 -0.5836 -0.9027  1.1813
 1759TIP3   OH226767   4.437   4.924   4.034  0.3876  0.2011 -0.0991
 1759TIP3    H126768   4.405   4.863   4.100  0.4931 -1.7634 -1.7867
 1759TIP3    H226769   4.421   5.011   4.072 -1.2220 -0.8122  1.7035
 1760TIP3   OH226770   5.335   4.747  16.462 -0.2043 -0.2918 -0.2279
 1760TIP3    H126771   5.240   4.764  16.466 -0.1906 -0.4901  2.6444
 1760TIP3    H226772   5.375   4.833  16.477  0.0390 -0.5309  0.5000
 1761TIP3   OH226773   4.990   6.096  15.200  0.2188 -0.2944  0.6681
 1761TIP3    H126774   5.059   6.161  15.213 -0.0468 -0.5538  4.5908
 1761TIP3    H226775   4.909   6.148  15.193  0.4397 -0.1169 -1.2232
 1762TIP3   OH226776   2.556   1.235  11.231  0.4594  0.2946  0.0148
 1762TIP3    H126777   2.614   1.284  11.288  2.3152 -2.1489  0.4036
 1762TIP3    H226778   2.611   1.208  11.157 -0.2845 -1.6014  0.0869
 1763TIP3   OH226779   4.155   1.616  12.847 -0.0946 -0.3322 -0.0680
 1763TIP3    H126780   4.128   1.708  12.855  1.5215  0.1672  0.0662
 1763TIP3    H226781   4.123   1.574  12.926  1.3736  0.7507  1.1827
 1764TIP3   OH226782   5.321   3.963   1.535  0.0115  0.1260 -0.7508
 1764TIP3    H126783   5.370   3.899   1.483 -1.4029 -1.6562  0.0138
 1764TIP3    H226784   5.232   3.960   1.499 -1.0264 -1.2026  1.7034
 1765TIP3   OH226785   1.259   5.368  13.648 -0.0564  0.1352  0.4063
 1765TIP3    H126786   1.335   5.309  13.644  1.4943  2.0584  0.3107
 1765TIP3    H226787   1.251   5.391  13.741 -1.4418 -1.0973  0.6495
 1766TIP3   OH226788   0.190   0.879  12.787 -0.0711 -0.0481  0.0817
 1766TIP3    H126789   0.108   0.830  12.783  0.2893 -0.6250 -0.3460
 1766TIP3    H226790   0.191   0.917  12.874 -0.2641 -0.9723  0.4944
 1767TIP3   OH226791   1.850   3.307  14.250 -0.4223  0.5520  0.2638
 1767TIP3    H126792   1.888   3.308  14.162  1.6898 -1.2849  1.0478
 1767TIP3    H226793   1.841   3.214  14.271 -1.1365  0.9574  1.8831
 1768TIP3   OH226794   3.911   3.582   4.470 -0.3885 -0.5539  0.5941
 1768TIP3    H126795   3.968   3.519   4.515 -0.7563 -0.6888  0.8755
 1768TIP3    H226796   3.922   3.664   4.519 -1.7175 -1.0008  1.7211
 1769TIP3   OH226797   2.885   0.777   4.241 -0.0225 -0.2142 -0.8327
 1769TIP3    H126798   2.810   0.755   4.297  1.0566 -0.1718  0.6870
 1769TIP3    H226799   2.953   0.804   4.302  0.6091  1.7120 -2.2863
 1770TIP3   OH226800   1.735   2.702   0.462 -0.0365  0.1197  0.1715
 1770TIP3    H126801   1.676   2.710   0.537  1.5553  1.0395  1.3993
 1770TIP3    H226802   1.822   2.695   0.501  0.7939  0.0589 -1.5964
 1771TIP3   OH226803   4.718   3.576   5.359  0.2422  0.2743  0.0388
 1771TIP3    H126804   4.667   3.549   5.435  0.5478  0.5164  0.3357
 1771TIP3    H226805   4.675   3.656   5.328 -0.0044  0.0634 -0.1711
 1772TIP3   OH226806   2.061   4.708  17.118 -0.4212 -0.1123 -0.2054
 1772TIP3    H126807   2.122   4.643  17.152 -0.4434  0.3481  0.7561
 1772TIP3    H226808   1.997   4.658  17.067  0.8358 -0.5902 -1.3645
 1773TIP3   OH226809   4.030   5.806  13.333 -0.2248  0.4361 -0.4678
 1773TIP3    H126810   4.066   5.871  13.272 -0.7650  1.6009  0.3948
 1773TIP3    H226811   3.944   5.842  13.357 -1.0099 -1.1410 -0.7507
 1774TIP3   OH226812   2.630   0.984   1.553 -0.4618  0.3890 -0.0157
 1774TIP3    H126813   2.643   0.896   1.588 -1.9219  0.2449  0.2192
 1774TIP3    H226814   2.626   1.041   1.630 -0.7035  0.4941 -0.1053
 1775TIP3   OH226815   4.091   2.571   3.457 -0.1898  0.2974  0.4984
 1775TIP3    H126816   4.060   2.649   3.410  0.5250 -0.2933 -1.0298
 1775TIP3    H226817   4.152   2.605   3.522  0.3768  1.0035 -0.3841
 1776TIP3   OH226818   1.634   5.710   4.787  0.5856  0.6413  0.2861
 1776TIP3    H126819   1.541   5.705   4.763  0.5735 -0.4042  0.4854
 1776TIP3    H226820   1.636   5.768   4.863 -0.2905 -1.4070  1.9751
 1777TIP3   OH226821   1.326   1.417  15.398  0.4087  0.3316  0.5261
 1777TIP3    H126822   1.264   1.431  15.326 -0.6472  1.8869  1.6836
 1777TIP3    H226823   1.412   1.424  15.356 -0.0311 -3.1786 -1.3725
 1778TIP3   OH226824   4.951   2.936  15.498  0.8364  0.2854 -0.0443
 1778TIP3    H126825   4.985   2.846  15.496  2.6201  0.9047  0.6153
 1778TIP3    H226826   4.918   2.947  15.587 -1.1630 -0.2902 -0.6627
 1779TIP3   OH226827   0.573   5.972  12.680 -0.5967  0.3176 -0.5986
 1779TIP3    H126828   0.619   5.900  12.635 -1.7456 -0.5199 -0.4781
 1779TIP3    H226829   0.605   5.968  12.770  0.3219  0.8137 -0.8882
 1780TIP3   OH226830   1.163   1.280   3.198 -0.0546 -0.0096 -0.2132
 1780TIP3    H126831   1.072   1.252   3.184  0.4207 -1.6517 -0.2959
 1780TIP3    H226832   1.210   1.198   3.213  0.9876  0.9825  2.4044
 1781TIP3   OH226833   6.505   0.820  16.259  0.3809 -0.1687  0.7586
 1781TIP3    H126834   6.581   0.788  16.309  1.5988 -0.9031 -1.3845
 1781TIP3    H226835   6.453   0.741  16.242 -0.0189  0.0696  0.8661
 1782TIP3   OH226836   5.597   3.273   1.609  0.0421 -0.7244 -0.2077
 1782TIP3    H126837   5.537   3.342   1.636  0.3873  0.2335 -1.7844
 1782TIP3    H226838   5.544   3.214   1.556 -0.0024 -1.1227  0.2642
 1783TIP3   OH226839   3.308   3.916  14.941 -0.1922  0.3516 -0.5388
 1783TIP3    H126840   3.369   3.968  14.888 -1.9588  2.7265 -0.3726
 1783TIP3    H226841   3.364   3.876  15.008  1.2586  2.1735 -0.5700
 1784TIP3   OH226842   3.684   6.025  13.481 -0.5602 -0.4207 -0.4825
 1784TIP3    H126843   3.709   6.117  13.466  0.7778 -0.0583  3.0864
 1784TIP3    H226844   3.600   6.031  13.526 -0.0164 -0.8334  0.6255
 1785TIP3   OH226845   4.209   0.225  16.950 -0.2025  0.4089 -0.0985
 1785TIP3    H126846   4.261   0.274  17.014  1.2998  1.4637 -2.0075
 1785TIP3    H226847   4.221   0.133  16.975  0.9910  0.7540  0.6952
 1786TIP3   OH226848   1.463   2.451  15.651 -0.3185 -0.4612 -0.5331
 1786TIP3    H126849   1.452   2.533  15.698  2.3023 -0.3492  0.0428
 1786TIP3    H226850   1.455   2.474  15.558 -0.7224  0.2356 -0.3216
 1787TIP3   OH226851   0.094   1.332   5.142 -0.1988  0.7903  0.2943
 1787TIP3    H126852   0.041   1.388   5.085 -0.1863  1.4356  0.9021
 1787TIP3    H226853   0.117   1.257   5.087 -0.7748  1.0592 -0.3299
 1788TIP3   OH226854   5.409   4.839  16.992  0.1230  0.1760 -0.1019
 1788TIP3    H126855   5.454   4.811  17.072 -0.1173  0.4602  0.1379
 1788TIP3    H226856   5.396   4.759  16.942  1.3045  0.1530 -0.3879
 1789TIP3   OH226857   6.716   4.219  11.582  0.0181 -1.0230  0.4376
 1789TIP3    H126858   6.752   4.279  11.647 -1.2413 -1.0989  1.2454
 1789TIP3    H226859   6.661   4.273  11.526 -0.7299 -1.3139  0.8686
 1790TIP3   OH226860   2.667   4.561   0.463 -0.4058 -0.0362 -0.0125
 1790TIP3    H126861   2.675   4.648   0.425 -0.1033  0.3007  0.7989
 1790TIP3    H226862   2.756   4.527   0.465 -0.5691 -0.5323 -0.6846
 1791TIP3   OH226863   4.371   4.423  13.606  0.0792 -0.0512 -0.1111
 1791TIP3    H126864   4.364   4.460  13.694 -0.9131 -1.5274  0.4622
 1791TIP3    H226865   4.282   4.427  13.571  0.4492  0.4367 -1.0276
 1792TIP3   OH226866   2.043   1.122  15.838  0.6904 -0.0217 -0.2223
 1792TIP3    H126867   1.975   1.149  15.776  2.0422 -0.5741 -2.0258
 1792TIP3    H226868   2.073   1.204  15.878  0.0140  0.3788 -0.5252
 1793TIP3   OH226869   1.969   2.986  14.599  0.2074  0.8053 -0.3227
 1793TIP3    H126870   1.887   2.974  14.646 -0.0150  0.5201 -0.7730
 1793TIP3    H226871   1.943   3.018  14.513  0.3582 -1.5905 -1.3489
 1794TIP3   OH226872   2.791   4.591   5.626 -0.9173 -0.1078  0.7700
 1794TIP3    H126873   2.752   4.657   5.684  1.3884  0.6143  1.6417
 1794TIP3    H226874   2.802   4.637   5.542 -0.9863  0.0228  0.8313
 1795TIP3   OH226875   5.207   6.491   0.884  0.2118 -0.2644  0.5384
 1795TIP3    H126876   5.151   6.479   0.807  0.4065  0.7550  0.2160
 1795TIP3    H226877   5.286   6.439   0.865 -0.4169 -1.3420  0.7966
 1796TIP3   OH226878   0.559   1.750   5.113 -0.5327 -0.1477 -0.2897
 1796TIP3    H126879   0.647   1.788   5.120 -1.6604  2.6124  0.2181
 1796TIP3    H226880   0.573   1.665   5.072  2.3304  0.3407 -0.5449
 1797TIP3   OH226881   6.302   4.325  13.207  0.5141 -0.2280 -0.1275
 1797TIP3    H126882   6.282   4.356  13.119  0.0781  0.5340  0.2268
 1797TIP3    H226883   6.315   4.405  13.258 -0.3454 -0.6320  0.7504
 1798TIP3   OH226884   0.678   0.214  14.685 -0.4704  0.9475 -0.1555
 1798TIP3    H126885   0.735   0.287  14.659 -0.4452  0.4443 -1.6596
 1798TIP3    H226886   0.589   0.246  14.668 -0.4653  0.7019 -0.6875
 1799TIP3   OH226887   4.483   1.752   2.291 -0.1964 -0.4825 -0.1373
 1799TIP3    H126888   4.430   1.810   2.236  0.9893  0.4431 -0.3623
 1799TIP3    H226889   4.574   1.779   2.274  0.2551 -0.5692  1.8031
 1800TIP3   OH226890   4.109   6.377   5.834 -0.2385 -0.4582 -1.0048
 1800TIP3    H126891   4.134   6.334   5.916 -1.2650  1.0558  0.1647
 1800TIP3    H226892   4.180   6.438   5.816 -0.2685 -0.4115 -0.9623
 1801TIP3   OH226893   3.486   3.802  12.414 -0.0227 -0.3640  0.6347
 1801TIP3    H126894   3.405   3.796  12.465 -0.5391  2.7830  0.4101
 1801TIP3    H226895   3.457   3.817  12.324  0.8307 -0.9790  0.2446
 1802TIP3   OH226896   4.225   1.127  14.341 -0.2942 -0.3843  0.3340
 1802TIP3    H126897   4.156   1.087  14.395  0.1119  1.1311  2.0661
 1802TIP3    H226898   4.217   1.083  14.257 -1.5369 -2.2575  1.3453
 1803TIP3   OH226899   4.491   1.873   2.012 -0.0721  0.3833  0.7516
 1803TIP3    H126900   4.462   1.964   2.008 -0.1506  0.4423  2.0746
 1803TIP3    H226901   4.582   1.876   1.980 -0.3331  0.7884  0.0294
 1804TIP3   OH226902   0.965   2.856  14.786 -0.5043 -0.3469 -0.0981
 1804TIP3    H126903   0.881   2.851  14.833 -0.5115 -0.8325 -0.1578
 1804TIP3    H226904   1.021   2.793  14.831 -0.1663 -0.0167 -0.0548
 1805TIP3   OH226905   5.139   1.147  16.188  0.2564 -0.1543  0.4397
 1805TIP3    H126906   5.105   1.077  16.244 -1.2521 -0.2791 -0.5591
 1805TIP3    H226907   5.226   1.118  16.163  0.8608 -0.2381  2.4429
 1806TIP3   OH226908   5.468   2.195   3.181 -0.2257 -0.0076  0.4338
 1806TIP3    H126909   5.520   2.270   3.211 -0.8931  0.7203 -0.1857
 1806TIP3    H226910   5.406   2.178   3.252 -0.1688  0.1294  0.5156
 1807TIP3   OH226911   0.166   0.799  13.453  0.5093  0.0099 -0.3083
 1807TIP3    H126912   0.213   0.839  13.380 -1.3657  1.9270 -0.5655
 1807TIP3    H226913   0.212   0.830  13.531  0.4602  0.8146 -0.5906
 1808TIP3   OH226914   2.225   0.454   2.435  0.4756 -0.6775  0.6662
 1808TIP3    H126915   2.203   0.447   2.528 -0.0190  1.9659  0.8364
 1808TIP3    H226916   2.237   0.548   2.421 -0.7242 -0.8605 -2.2241
 1809TIP3   OH226917   0.778   1.361  11.875  0.0112  0.2849  0.0596
 1809TIP3    H126918   0.772   1.449  11.837 -2.3291  0.0958 -0.1474
 1809TIP3    H226919   0.797   1.376  11.967 -0.0475  1.0019 -0.0391
 1810TIP3   OH226920   0.389   0.779  12.652  0.2560 -0.1770 -0.8280
 1810TIP3    H126921   0.357   0.689  12.650  1.1575 -0.5063 -0.5206
 1810TIP3    H226922   0.325   0.826  12.706  1.2002 -1.1949  1.2600
 1811TIP3   OH226923   3.269   2.575   0.123 -0.8281 -0.0738 -0.4489
 1811TIP3    H126924   3.255   2.631   0.047 -1.0548 -0.8332 -0.9759
 1811TIP3    H226925   3.344   2.521   0.099  0.1400  0.7729  0.5187
 1812TIP3   OH226926   2.240   3.374   3.770  0.6045  0.0210 -0.0864
 1812TIP3    H126927   2.179   3.358   3.698  0.7415  0.2936 -0.2666
 1812TIP3    H226928   2.202   3.327   3.844  0.0283  0.4155 -0.1224
 1813TIP3   OH226929   3.535   4.032   2.970 -0.5488 -0.2092  0.4120
 1813TIP3    H126930   3.489   3.981   2.903  0.0638 -0.7369  0.3849
 1813TIP3    H226931   3.495   4.119   2.965 -1.0664 -0.4665 -0.0812
 1814TIP3   OH226932   1.670   3.552   3.651  0.0184  0.2677 -0.0390
 1814TIP3    H126933   1.724   3.595   3.585  0.2442  0.6372  0.3867
 1814TIP3    H226934   1.615   3.623   3.687  0.2826  0.1770  0.5551
 1815TIP3   OH226935   4.968   5.622   1.325  0.2064 -0.3458 -0.1364
 1815TIP3    H126936   5.057   5.595   1.302  0.8436  0.6164  1.0423
 1815TIP3    H226937   4.915   5.543   1.314  1.5982 -1.5324  1.1998
 1816TIP3   OH226938   5.979   0.268  13.383 -0.2388  0.0117 -0.4831
 1816TIP3    H126939   5.978   0.363  13.399  0.4813 -0.0797  0.1314
 1816TIP3    H226940   6.069   0.249  13.360 -0.3169 -0.5741 -0.3071
 1817TIP3   OH226941   4.427   6.462  15.564  0.0118 -0.0479 -0.3384
 1817TIP3    H126942   4.335   6.486  15.568 -0.2142 -1.0229  1.0158
 1817TIP3    H226943   4.464   6.520  15.497 -1.4491  0.7439 -0.5041
 1818TIP3   OH226944   2.211   5.146  14.788  0.5994  0.5912 -0.4935
 1818TIP3    H126945   2.252   5.096  14.859 -2.0834 -1.0304  0.0688
 1818TIP3    H226946   2.157   5.082  14.742 -0.9960  2.4752 -1.3923
 1819TIP3   OH226947   2.714   1.188   2.877  0.1376 -0.5166 -0.0448
 1819TIP3    H126948   2.680   1.120   2.819  0.6124  0.8526 -2.0476
 1819TIP3    H226949   2.750   1.140   2.951 -2.1596 -2.2418  0.0501
 1820TIP3   OH226950   6.095   4.820   5.798 -0.2647 -0.4313  0.1750
 1820TIP3    H126951   6.027   4.772   5.845  0.2289 -1.2902  0.0399
 1820TIP3    H226952   6.073   4.809   5.706 -0.2745 -0.2111  0.1516
 1821TIP3   OH226953   1.243   1.282  16.335  0.1848  0.7172 -0.3423
 1821TIP3    H126954   1.266   1.295  16.427 -1.4561  1.9553 -0.0662
 1821TIP3    H226955   1.241   1.370  16.297  0.6337  0.2446 -1.5237
 1822TIP3   OH226956   3.399   5.242  13.170  0.5856 -0.1285 -0.2891
 1822TIP3    H126957   3.468   5.224  13.234  0.3301 -1.2374 -0.3113
 1822TIP3    H226958   3.322   5.198  13.205  0.8444 -2.2462 -2.1510
 1823TIP3   OH226959   4.661   4.194  13.482 -0.3266  0.3662  0.0074
 1823TIP3    H126960   4.652   4.171  13.574  1.9175  1.9132  0.7100
 1823TIP3    H226961   4.572   4.193  13.448 -1.2020 -0.3666  2.1382
 1824TIP3   OH226962   1.804   1.669   0.314 -0.3998  0.0053  0.8049
 1824TIP3    H126963   1.795   1.755   0.271  1.4877  0.3091  0.9303
 1824TIP3    H226964   1.847   1.614   0.249 -1.2713 -0.7636  0.8581
 1825TIP3   OH226965   0.408   2.250  16.127  0.2654  0.2090 -0.1469
 1825TIP3    H126966   0.417   2.240  16.222  0.7243  0.7838 -0.1245
 1825TIP3    H226967   0.323   2.292  16.116 -0.5461 -1.3341 -0.1018
 1826TIP3   OH226968   1.530   4.883  12.545  0.1665  0.5717 -0.1743
 1826TIP3    H126969   1.582   4.846  12.616 -1.1156 -4.8846 -1.6467
 1826TIP3    H226970   1.593   4.931  12.491  2.4529 -0.6937  1.2393
 1827TIP3   OH226971   6.302   4.798   4.214  0.1528 -0.1964 -0.3689
 1827TIP3    H126972   6.214   4.832   4.196  0.2747  1.2587  1.4849
 1827TIP3    H226973   6.359   4.848   4.156 -0.1985 -1.0084 -1.4403
 1828TIP3   OH226974   2.694   2.442  14.400 -0.4664 -0.7330 -0.0496
 1828TIP3    H126975   2.614   2.486  14.371  1.4040  2.2842 -1.1109
 1828TIP3    H226976   2.727   2.400  14.321  0.1512  0.0338 -0.2127
 1829TIP3   OH226977   5.746   6.501   0.873  0.3406  0.2595  0.6200
 1829TIP3    H126978   5.806   6.549   0.929 -1.0995 -0.2764  2.7532
 1829TIP3    H226979   5.800   6.433   0.832  1.5758  1.1090  0.7941
 1830TIP3   OH226980   0.645   6.121  14.387  0.2912 -0.0399 -0.1686
 1830TIP3    H126981   0.663   6.210  14.419  0.5247  0.0370 -0.5121
 1830TIP3    H226982   0.566   6.094  14.434  0.4752  0.1769  0.2737
 1831TIP3   OH226983   4.751   0.912   2.831 -0.1018 -0.1200  0.2947
 1831TIP3    H126984   4.729   0.819   2.826 -3.2204  0.5203  0.6306
 1831TIP3    H226985   4.670   0.956   2.855  2.0949  2.3580  4.3910
 1832TIP3   OH226986   1.432   4.279  13.543  0.9047  0.1327  0.1154
 1832TIP3    H126987   1.445   4.236  13.628  1.8363 -0.7661 -0.4480
 1832TIP3    H226988   1.337   4.279  13.530  0.8266 -0.9253  0.5656
 1833TIP3   OH226989   5.328   4.399   2.542  0.1976 -0.0537  0.3436
 1833TIP3    H126990   5.272   4.386   2.466  0.6231  1.4187 -0.2618
 1833TIP3    H226991   5.353   4.492   2.538  1.0112 -0.1803  1.7392
 1834TIP3   OH226992   5.053   5.151  16.708 -0.3194  0.6968  0.6494
 1834TIP3    H126993   5.134   5.110  16.678  0.5204  1.8163  1.3191
 1834TIP3    H226994   5.011   5.185  16.629 -0.0725  0.2289  0.3194
 1835TIP3   OH226995   6.191   2.650  12.045  0.4913  0.3054 -0.4791
 1835TIP3    H126996   6.224   2.737  12.027 -1.2169  1.1456  0.1900
 1835TIP3    H226997   6.237   2.623  12.125 -0.5032  1.5417  0.5663
 1836TIP3   OH226998   5.239   2.576   2.773  0.4263  0.5899  0.1107
 1836TIP3    H126999   5.322   2.562   2.726  1.2275  2.2753  0.9676
 1836TIP3    H227000   5.263   2.575   2.865 -1.0487 -2.0487  0.5805
 1837TIP3   OH227001   2.908   1.237  13.269 -0.0300 -0.3185  0.0473
 1837TIP3    H127002   2.917   1.281  13.184 -2.1147  1.9498  0.8760
 1837TIP3    H227003   2.816   1.210  13.272  0.2607 -1.2513  1.2115
 1838TIP3   OH227004   0.681   4.866   5.898  0.4304  0.1722  0.3708
 1838TIP3    H127005   0.611   4.803   5.913 -0.1909  0.6667 -0.3485
 1838TIP3    H227006   0.637   4.951   5.898  0.5514  0.3471 -2.5104
 1839TIP3   OH227007   5.978   0.409   5.519 -0.1288 -0.2492  0.2975
 1839TIP3    H127008   5.987   0.335   5.579  1.1739 -1.3418 -1.1854
 1839TIP3    H227009   5.886   0.437   5.530 -0.0123 -0.5346  2.5786
 1840TIP3   OH227010   4.212   1.601  10.773  0.0056  0.3633  0.7122
 1840TIP3    H127011   4.171   1.530  10.822 -2.4403  0.8994 -0.3638
 1840TIP3    H227012   4.158   1.678  10.793  1.5083  1.5268  0.4625
 1841TIP3   OH227013   3.271   6.795  15.674 -0.5474  0.0503 -0.5040
 1841TIP3    H127014   3.355   6.751  15.689 -1.2998 -1.8346 -1.4555
 1841TIP3    H227015   3.260   6.853  15.749  0.5597 -1.3535  0.8025
 1842TIP3   OH227016   2.207   4.646  16.476  0.0379  0.4208  0.2419
 1842TIP3    H127017   2.185   4.697  16.554  1.0453  1.6663 -0.2479
 1842TIP3    H227018   2.258   4.707  16.421 -2.3520  0.3222 -2.3503
 1843TIP3   OH227019   0.622   5.350  16.861 -0.5466 -0.1984 -0.0183
 1843TIP3    H127020   0.665   5.433  16.839 -0.7862 -0.2461 -0.6736
 1843TIP3    H227021   0.633   5.342  16.956 -0.2116  0.4111 -0.0019
 1844TIP3   OH227022   4.102   5.629   5.375 -0.0969  0.1249  0.1245
 1844TIP3    H127023   4.166   5.690   5.337 -0.8384  0.0390 -1.3520
 1844TIP3    H227024   4.122   5.628   5.468  0.5716  1.8691  0.0427
 1845TIP3   OH227025   5.814   2.258   5.721  0.1379 -0.2164 -0.1556
 1845TIP3    H127026   5.866   2.200   5.776 -1.3497 -0.0320  1.5470
 1845TIP3    H227027   5.793   2.332   5.777 -1.1655  0.1523 -1.0698
 1846TIP3   OH227028   1.505   1.037  15.086  0.4529  0.5222 -0.0103
 1846TIP3    H127029   1.444   1.048  15.159  0.4085 -1.1143  0.2548
 1846TIP3    H227030   1.520   1.125  15.053 -1.2825  1.0718  0.5451
 1847TIP3   OH227031   3.116   6.449  12.278 -0.0616  0.3486  0.0799
 1847TIP3    H127032   3.177   6.491  12.218  1.0442 -1.8842 -0.4841
 1847TIP3    H227033   3.068   6.387  12.223  0.1553 -0.9042  1.2563
 1848TIP3   OH227034   4.844   6.365  16.544 -0.6391  0.2466 -0.3591
 1848TIP3    H127035   4.762   6.338  16.503 -1.8575 -0.2395  2.1905
 1848TIP3    H227036   4.867   6.292  16.601  1.3639  0.5725 -0.6901
 1849TIP3   OH227037   1.374   4.431  11.894  0.6338  0.2358  0.0838
 1849TIP3    H127038   1.467   4.435  11.870  0.3255  1.6460 -1.0229
 1849TIP3    H227039   1.341   4.353  11.851  0.9882  0.5653 -0.8127
 1850TIP3   OH227040   1.103   6.641   2.415  0.1370 -0.2899  0.9744
 1850TIP3    H127041   1.083   6.717   2.360 -0.6802 -1.7390 -0.8387
 1850TIP3    H227042   1.126   6.572   2.352 -2.7922 -2.6360  2.2714
 1851TIP3   OH227043   0.956   4.863  13.863 -0.7612 -0.4603 -0.2505
 1851TIP3    H127044   0.962   4.846  13.957 -0.9518  1.6376  0.1868
 1851TIP3    H227045   1.044   4.893  13.839 -0.9420 -0.1926 -0.5764
 1852TIP3   OH227046   2.960   5.300   0.764  0.1298  0.4905  0.1171
 1852TIP3    H127047   2.895   5.366   0.786  1.0329  1.9420 -1.3134
 1852TIP3    H227048   2.995   5.328   0.679  0.9885 -1.5100 -0.2552
 1853TIP3   OH227049   1.332   3.978   5.168  0.0257 -0.6581 -0.2853
 1853TIP3    H127050   1.313   3.928   5.089  1.6608 -0.6223 -0.7362
 1853TIP3    H227051   1.412   4.025   5.148 -0.7303  1.1137  0.6165
 1854TIP3   OH227052   1.791   6.224  16.796  0.8114  0.3697  0.2807
 1854TIP3    H127053   1.842   6.154  16.838  0.4111 -0.7125 -0.9586
 1854TIP3    H227054   1.700   6.205  16.822  0.2403 -1.6780 -2.7180
 1855TIP3   OH227055   1.274   4.731   4.853  0.1793  0.0622 -0.1788
 1855TIP3    H127056   1.206   4.688   4.801 -1.2146  0.0908  1.5310
 1855TIP3    H227057   1.284   4.818   4.814  0.9571 -0.7472 -1.8785
 1856TIP3   OH227058   4.588   0.337   1.475  0.4577  0.4506  0.4055
 1856TIP3    H127059   4.623   0.279   1.408 -1.1447  0.6863 -0.7042
 1856TIP3    H227060   4.506   0.295   1.503  0.4961  0.9707  1.3210
 1857TIP3   OH227061   1.836   0.749  15.110 -0.0764 -0.3131  0.1359
 1857TIP3    H127062   1.857   0.803  15.187 -0.1098  0.4313 -0.3664
 1857TIP3    H227063   1.892   0.784  15.041 -0.0458 -0.9817 -0.1789
 1858TIP3   OH227064   2.777   3.799  12.624 -0.3334 -0.1197 -0.5152
 1858TIP3    H127065   2.741   3.812  12.536  1.4072 -1.0958 -1.4227
 1858TIP3    H227066   2.834   3.722  12.615  0.7727  0.4516  1.1952
 1859TIP3   OH227067   4.423   6.011   5.481  0.7670 -0.4810 -0.6689
 1859TIP3    H127068   4.394   6.101   5.492 -0.6616 -1.1102  1.3135
 1859TIP3    H227069   4.518   6.018   5.468  0.8028  1.2593  0.1942
 1860TIP3   OH227070   1.676   6.384   2.005  0.0689  0.4371  0.0858
 1860TIP3    H127071   1.684   6.289   1.995 -0.1317  0.5743 -1.5775
 1860TIP3    H227072   1.740   6.406   2.073 -0.8502 -1.0416  1.5138
 1861TIP3   OH227073   0.220   0.174   3.434  0.0541  0.1912 -0.5282
 1861TIP3    H127074   0.177   0.235   3.375 -1.9721  0.8948  1.5349
 1861TIP3    H227075   0.271   0.230   3.493 -1.7797  0.0170  1.3437
 1862TIP3   OH227076   4.615   4.709   2.290 -0.4440 -0.2529 -0.2091
 1862TIP3    H127077   4.567   4.626   2.298 -1.7116  0.4764  0.0025
 1862TIP3    H227078   4.576   4.751   2.214  1.7031 -0.7760 -1.7155
 1863TIP3   OH227079   6.850   5.828   3.335  0.3436  0.4984 -0.4901
 1863TIP3    H127080   6.809   5.825   3.248 -0.3362  1.0599 -0.1974
 1863TIP3    H227081   6.777   5.821   3.396  0.6785  1.4584  0.0438
 1864TIP3   OH227082   1.543   2.671   1.745 -0.2379  0.0414  0.1500
 1864TIP3    H127083   1.638   2.681   1.736 -0.1491 -0.7010  0.1309
 1864TIP3    H227084   1.525   2.693   1.836 -0.0053 -0.0603  0.2229
 1865TIP3   OH227085   2.844   5.433  13.031 -0.3849 -0.5859  0.1880
 1865TIP3    H127086   2.919   5.373  13.030  0.1865 -0.0150  2.4628
 1865TIP3    H227087   2.772   5.380  13.065 -0.5321 -0.6189 -0.1668
 1866TIP3   OH227088   1.055   4.257  11.192  0.0629  0.2479 -0.4974
 1866TIP3    H127089   1.063   4.308  11.112 -0.5098  1.2707  0.0782
 1866TIP3    H227090   1.046   4.167  11.162 -0.7625  0.6717 -1.6053
 1867TIP3   OH227091   0.068   5.308   5.179 -0.2395 -0.1101  0.3383
 1867TIP3    H127092   0.110   5.340   5.259  0.0497 -0.3119  0.2664
 1867TIP3    H227093   0.139   5.295   5.117 -0.2735 -1.3629  0.5220
 1868TIP3   OH227094   1.434   2.791   3.558 -0.6106 -0.3528 -0.1196
 1868TIP3    H127095   1.371   2.860   3.535 -0.7975 -0.9955 -1.6323
 1868TIP3    H227096   1.428   2.784   3.654 -2.4470 -0.0319 -0.1826
 1869TIP3   OH227097   3.335   0.007  13.253  0.3016  0.6583 -0.2848
 1869TIP3    H127098   3.390   0.077  13.288 -1.1995  0.5943  2.5567
 1869TIP3    H227099   3.279   0.050  13.189  0.8665  1.5730 -0.1794
 1870TIP3   OH227100   0.157   4.352  14.262  0.6804  0.1687 -0.5041
 1870TIP3    H127101   0.086   4.292  14.285  1.1486 -0.7576 -1.4122
 1870TIP3    H227102   0.115   4.438  14.255 -0.5535 -0.5118 -2.0075
 1871TIP3   OH227103   4.916   0.531   2.921  0.3099 -0.4799  0.5201
 1871TIP3    H127104   4.886   0.601   2.979  1.8745  0.4839  0.2423
 1871TIP3    H227105   4.854   0.532   2.848  0.7970  1.2545  0.0792
 1872TIP3   OH227106   4.134   4.327   2.957  0.4326  0.5268 -0.1380
 1872TIP3    H127107   4.059   4.334   2.898  0.0387  2.3390  0.5124
 1872TIP3    H227108   4.211   4.334   2.900  0.1941 -1.8889 -0.8811
 1873TIP3   OH227109   0.260   1.067  16.976 -0.0748 -0.3292  0.2730
 1873TIP3    H127110   0.298   1.140  17.025  0.3402 -0.8338  0.7210
 1873TIP3    H227111   0.336   1.019  16.943 -0.3104  1.0415 -2.5059
 1874TIP3   OH227112   0.369   1.863  12.366  0.1046  0.0264 -0.1875
 1874TIP3    H127113   0.276   1.839  12.365 -0.2385  1.2444  0.3251
 1874TIP3    H227114   0.370   1.955  12.341  1.2078 -0.0515 -0.4644
 1875TIP3   OH227115   6.583   2.031  15.092  0.0355 -0.4353  0.3807
 1875TIP3    H127116   6.569   2.125  15.102  0.8137 -0.1539 -0.8734
 1875TIP3    H227117   6.598   1.999  15.181  1.5815  0.9563  0.6827
 1876TIP3   OH227118   5.781   1.699  12.370  0.0314  0.1984  0.2260
 1876TIP3    H127119   5.791   1.616  12.324  0.9467  0.4267 -0.0047
 1876TIP3    H227120   5.806   1.679  12.461  2.2572  0.6367 -0.2289
 1877TIP3   OH227121   4.952   1.199  12.309 -0.5354  0.0493  0.3322
 1877TIP3    H127122   5.040   1.226  12.284 -0.7661  0.4367 -0.0641
 1877TIP3    H227123   4.912   1.168  12.229 -0.7749 -0.0935  0.5050
 1878TIP3   OH227124   1.625   2.146   5.648  0.0196  0.1261 -0.1990
 1878TIP3    H127125   1.530   2.154   5.635 -0.1002 -0.9721 -0.0964
 1878TIP3    H227126   1.634   2.118   5.739  0.3768 -0.8902 -0.5407
 1879TIP3   OH227127   6.458   6.336   0.587 -0.0996 -0.6335 -0.2031
 1879TIP3    H127128   6.382   6.367   0.637  0.2350  1.3261 -0.8254
 1879TIP3    H227129   6.531   6.385   0.624  0.4202 -0.4491 -1.4412
 1880TIP3   OH227130   4.788   0.214  16.702 -0.3612  1.0208 -0.2564
 1880TIP3    H127131   4.819   0.260  16.624 -1.0203  0.1301 -1.0603
 1880TIP3    H227132   4.701   0.182  16.678  0.2318 -0.9918  0.1254
 1881TIP3   OH227133   3.302   0.173   1.997  0.2239  0.1118 -0.0681
 1881TIP3    H127134   3.210   0.196   1.982  0.5525  0.3568 -1.8895
 1881TIP3    H227135   3.301   0.078   2.009 -0.2586  0.1013 -0.1571
 1882TIP3   OH227136   0.291   3.346   1.648  0.0012 -0.1256 -0.0755
 1882TIP3    H127137   0.336   3.409   1.591  2.4940 -2.3589 -0.7672
 1882TIP3    H227138   0.261   3.277   1.589  1.0145 -1.5966  1.0648
 1883TIP3   OH227139   0.463   6.428  14.675 -0.7547 -0.4745 -0.3989
 1883TIP3    H127140   0.515   6.497  14.635  0.4077  1.1132  3.3572
 1883TIP3    H227141   0.372   6.451  14.655 -0.2669  0.5392 -1.5227
 1884TIP3   OH227142   3.643   2.956   0.856  0.3154  0.0135 -0.6161
 1884TIP3    H127143   3.668   2.957   0.763 -2.2787  1.4532 -1.3963
 1884TIP3    H227144   3.549   2.940   0.855  0.1379  0.6036  1.7610
 1885TIP3   OH227145   1.326   2.135  17.061 -0.8456  0.4321  0.6203
 1885TIP3    H127146   1.358   2.067  17.002 -1.0548 -0.1605  1.1925
 1885TIP3    H227147   1.303   2.089  17.141 -2.9020  0.8663  0.3335
 1886TIP3   OH227148   0.388   6.094   0.482  0.2075  0.2298  0.2251
 1886TIP3    H127149   0.424   6.181   0.496  0.5231 -0.0724  1.5094
 1886TIP3    H227150   0.460   6.035   0.506  0.4959 -0.4107 -2.0317
 1887TIP3   OH227151   3.485   6.416  13.377 -0.1997  0.0530 -0.0672
 1887TIP3    H127152   3.478   6.407  13.472  0.6854 -1.5316 -0.1139
 1887TIP3    H227153   3.430   6.345  13.343 -1.1435  1.0885 -0.7798
 1888TIP3   OH227154   3.382   4.475  12.607 -0.1201  0.1493 -0.0030
 1888TIP3    H127155   3.293   4.508  12.610 -0.1853 -0.0892  1.4997
 1888TIP3    H227156   3.386   4.408  12.675  1.1800  0.1014 -0.0866
 1889TIP3   OH227157   4.792   1.762  13.967 -0.3892  0.1471  0.1260
 1889TIP3    H127158   4.844   1.716  13.902 -1.3202  0.7556 -1.1065
 1889TIP3    H227159   4.845   1.760  14.047  1.5444  0.8334 -1.0755
 1890TIP3   OH227160   2.488   6.736   3.639 -0.0614  0.3063  0.0186
 1890TIP3    H127161   2.437   6.789   3.701 -0.7371  0.2096 -0.4472
 1890TIP3    H227162   2.557   6.698   3.693 -1.2322 -0.6000  0.9530
 1891TIP3   OH227163   2.116   6.315  14.398  0.1132  0.2850 -0.4009
 1891TIP3    H127164   2.198   6.342  14.439  1.5483 -3.7349 -0.2057
 1891TIP3    H227165   2.124   6.343  14.307  1.9342 -0.3066 -0.4651
 1892TIP3   OH227166   1.782   6.451  15.761 -0.2864 -0.1161  0.1361
 1892TIP3    H127167   1.747   6.371  15.799 -0.0895 -0.3771 -0.2263
 1892TIP3    H227168   1.763   6.444  15.668 -1.4712  0.8837  0.2710
 1893TIP3   OH227169   1.361   3.198   4.256 -0.0253 -0.7773 -0.0718
 1893TIP3    H127170   1.359   3.103   4.250  0.3534 -0.8119  0.3342
 1893TIP3    H227171   1.427   3.217   4.322 -0.0673 -0.2302 -0.1799
 1894TIP3   OH227172   4.382   0.974   1.316 -0.3533  0.0115  0.3908
 1894TIP3    H127173   4.335   1.054   1.296 -3.5153 -0.9392  3.0178
 1894TIP3    H227174   4.438   0.997   1.391  0.1234  0.1722 -0.0139
 1895TIP3   OH227175   6.268   4.407  12.970  0.0372  0.0515 -0.3921
 1895TIP3    H127176   6.216   4.459  12.909 -1.2023  0.4886  0.9826
 1895TIP3    H227177   6.327   4.357  12.914 -1.0037  0.4688 -1.9362
 1896TIP3   OH227178   6.776   3.343  11.708  0.0471  1.1142 -0.5480
 1896TIP3    H127179   6.717   3.387  11.770  0.6180  0.2243  0.6525
 1896TIP3    H227180   6.858   3.334  11.755  0.9528  1.6640 -1.9443
 1897TIP3   OH227181   6.846   0.392  11.508 -0.6247 -0.5564 -0.3490
 1897TIP3    H127182   6.798   0.475  11.504 -0.9847 -0.5977  1.9639
 1897TIP3    H227183   6.922   0.411  11.562  0.1317 -1.3900 -1.0785
 1898TIP3   OH227184   1.283   6.188  14.383 -0.2579  0.1889 -0.0616
 1898TIP3    H127185   1.254   6.235  14.462  1.0328  2.6062 -0.9075
 1898TIP3    H227186   1.376   6.174  14.397 -0.4947 -1.6535 -0.1264
 1899TIP3   OH227187   4.055   1.034   5.406 -0.3981 -0.1984  0.2070
 1899TIP3    H127188   4.015   0.949   5.424  1.5933 -0.7248  2.7554
 1899TIP3    H227189   4.000   1.096   5.454 -1.0211 -0.1848 -0.4907
 1900TIP3   OH227190   2.307   2.541   5.401 -0.0675  0.6415  0.7308
 1900TIP3    H127191   2.214   2.537   5.425 -0.1341 -1.4233  0.2567
 1900TIP3    H227192   2.338   2.623   5.441 -2.4360  2.2635 -0.4978
 1901TIP3   OH227193   1.265   5.635  12.872  0.4869 -0.2962 -0.4115
 1901TIP3    H127194   1.237   5.545  12.891 -2.3382  0.5839  0.1114
 1901TIP3    H227195   1.247   5.683  12.953  1.5223  0.8452 -0.8354
 1902TIP3   OH227196   2.741   0.553   0.515 -0.0636  0.1797 -0.2819
 1902TIP3    H127197   2.813   0.585   0.460 -0.0805  0.5498 -0.0879
 1902TIP3    H227198   2.663   0.563   0.460  0.1983 -1.5446 -1.0341
 1903TIP3   OH227199   3.226   2.160   4.247 -0.2547  0.2669 -0.2434
 1903TIP3    H127200   3.208   2.084   4.191  0.3259 -0.5946  0.7138
 1903TIP3    H227201   3.260   2.123   4.328  0.8244  1.6022 -0.0549
 1904TIP3   OH227202   0.777   0.322  11.911  0.7185 -0.1522  0.1797
 1904TIP3    H127203   0.743   0.392  11.967  0.0116 -0.5968  0.3134
 1904TIP3    H227204   0.715   0.250  11.921  1.2017 -0.6473 -0.2958
 1905TIP3   OH227205   6.191   2.006  16.718 -0.0733 -0.2083 -0.0509
 1905TIP3    H127206   6.166   1.913  16.711 -0.5056 -0.4441  2.9946
 1905TIP3    H227207   6.161   2.031  16.806  0.0990  2.8301 -0.7658
 1906TIP3   OH227208   5.823   4.652  15.703 -0.4237  0.4736  0.3971
 1906TIP3    H127209   5.755   4.716  15.683  0.8675  2.2240  1.3199
 1906TIP3    H227210   5.853   4.621  15.618 -0.1585  2.1441 -0.1433
 1907TIP3   OH227211   0.754   2.901   2.280 -0.2541 -0.2900  0.3159
 1907TIP3    H127212   0.690   2.961   2.320  0.6852  1.1718 -0.2635
 1907TIP3    H227213   0.836   2.923   2.324  0.0313 -1.5180  0.4177
 1908TIP3   OH227214   0.144   1.035  12.545 -0.0480 -0.5428  0.2116
 1908TIP3    H127215   0.168   0.963  12.604 -1.6397 -1.1994  0.0907
 1908TIP3    H227216   0.049   1.038  12.547 -0.0604  0.7260 -0.8037
 1909TIP3   OH227217   6.358   2.591   2.179 -0.0631 -0.7566  0.2556
 1909TIP3    H127218   6.370   2.597   2.084 -1.8763  0.3777  0.0547
 1909TIP3    H227219   6.356   2.496   2.196  4.2429 -1.1494 -0.1630
 1910TIP3   OH227220   5.352   4.044   3.356 -0.9090  0.0122 -0.4453
 1910TIP3    H127221   5.373   4.059   3.264 -1.7587 -2.9338 -1.2440
 1910TIP3    H227222   5.411   3.973   3.382  0.5140  1.8948  1.8803
 1911TIP3   OH227223   2.818   3.264   3.945 -0.4677  0.7585 -0.1575
 1911TIP3    H127224   2.730   3.228   3.946 -0.0438 -0.6530 -2.9827
 1911TIP3    H227225   2.870   3.202   3.995 -0.6695  0.2177 -0.6016
 1912TIP3   OH227226   4.139   5.143   2.155 -0.3218 -0.0341 -0.2910
 1912TIP3    H127227   4.047   5.124   2.134 -0.1239 -0.2064 -1.0229
 1912TIP3    H227228   4.134   5.219   2.213 -0.8929  0.4552 -0.9605
 1913TIP3   OH227229   4.032   4.900  15.282 -0.1188 -0.2664 -0.8769
 1913TIP3    H127230   4.124   4.887  15.259 -0.1681  0.8933 -1.8516
 1913TIP3    H227231   3.983   4.861  15.209 -0.2863  3.0461 -2.7142
 1914TIP3   OH227232   5.606   0.378   3.315  0.2717 -0.2661 -0.0001
 1914TIP3    H127233   5.512   0.381   3.296  0.3855 -0.4912 -0.6118
 1914TIP3    H227234   5.636   0.296   3.276  0.3975 -1.1016  1.7562
 1915TIP3   OH227235   2.892   6.459   2.970  0.2093 -0.3827  0.0329
 1915TIP3    H127236   2.936   6.493   3.048 -0.1519 -0.4585  0.2748
 1915TIP3    H227237   2.941   6.379   2.949  0.1085 -0.5372  0.3768
 1916TIP3   OH227238   2.124   1.366  14.764 -0.5130 -0.7399  0.0925
 1916TIP3    H127239   2.050   1.421  14.738  0.7547 -0.1045 -2.5518
 1916TIP3    H227240   2.175   1.422  14.823  0.5155  0.9221 -2.1878
 1917TIP3   OH227241   6.640   5.656  16.191  0.0775 -0.2986 -0.4886
 1917TIP3    H127242   6.591   5.599  16.250  0.0506  0.1369 -0.0841
 1917TIP3    H227243   6.721   5.675  16.238 -0.3577  0.8314 -0.1626
 1918TIP3   OH227244   1.405   6.146  11.213 -0.2674  0.1995 -0.0676
 1918TIP3    H127245   1.345   6.073  11.224  0.6470 -0.6539 -0.5725
 1918TIP3    H227246   1.406   6.163  11.119  1.9713 -1.3418 -0.4247
 1919TIP3   OH227247   5.581   1.054  12.830  0.5009  0.0590  0.4869
 1919TIP3    H127248   5.518   1.115  12.867 -0.1251 -0.5090  0.3785
 1919TIP3    H227249   5.640   1.108  12.778  0.1317  0.5993  0.6274
 1920TIP3   OH227250   5.669   3.823  11.856 -0.0223  0.1504  0.0589
 1920TIP3    H127251   5.595   3.883  11.865  0.6463  0.8679  0.8827
 1920TIP3    H227252   5.682   3.816  11.761 -1.0286  0.1395 -0.0924
 1921TIP3   OH227253   3.619   1.640  11.490  0.0583 -0.4297  0.3496
 1921TIP3    H127254   3.635   1.572  11.425 -1.4759 -2.7301  2.2379
 1921TIP3    H227255   3.707   1.671  11.513  0.7173 -0.7202 -1.5292
 1922TIP3   OH227256   3.600   0.549  16.793  0.0246  0.2772  0.3183
 1922TIP3    H127257   3.675   0.541  16.733 -1.0346  1.4034 -1.2470
 1922TIP3    H227258   3.540   0.610  16.748 -0.1682  2.4428  3.2353
 1923TIP3   OH227259   3.685   3.869   3.611  0.1057  0.5044  0.1780
 1923TIP3    H127260   3.593   3.892   3.627 -0.4246 -0.3095 -1.4497
 1923TIP3    H227261   3.735   3.927   3.668 -1.3583  2.1997 -0.1983
 1924TIP3   OH227262   3.778   2.297  13.209 -0.0752  0.0440  0.6699
 1924TIP3    H127263   3.746   2.375  13.164  0.4792 -0.3005 -0.3490
 1924TIP3    H227264   3.866   2.320  13.238 -0.4058  0.2404  1.5295
 1925TIP3   OH227265   6.260   6.768  16.185  0.2145 -0.3235  0.3473
 1925TIP3    H127266   6.285   6.676  16.194 -0.4467 -0.7006 -1.2861
 1925TIP3    H227267   6.197   6.769  16.112  1.8731  1.7146 -1.1843
 1926TIP3   OH227268   5.661   3.516  11.908  0.0972 -0.4565 -0.1080
 1926TIP3    H127269   5.682   3.601  11.947  1.3656 -0.6781 -0.2437
 1926TIP3    H227270   5.664   3.531  11.814 -0.7154 -0.4273 -0.1340
 1927TIP3   OH227271   5.815   2.569  15.388 -0.2852  0.0698  0.4050
 1927TIP3    H127272   5.770   2.506  15.444  0.5158 -0.4063  0.5231
 1927TIP3    H227273   5.779   2.552  15.301 -0.0987 -0.5424  0.4387
 1928TIP3   OH227274   4.635   4.547  15.023 -0.1727 -0.2318 -0.1766
 1928TIP3    H127275   4.660   4.457  15.042  0.9964  0.1482  0.1782
 1928TIP3    H227276   4.613   4.548  14.930 -0.0592 -0.8528 -0.2100
 1929TIP3   OH227277   0.570   0.943   0.393 -0.6544 -0.0117  0.0797
 1929TIP3    H127278   0.632   0.977   0.328 -0.2589 -1.7065 -0.4969
 1929TIP3    H227279   0.556   0.852   0.366 -1.3903 -0.4073  1.7076
 1930TIP3   OH227280   3.559   5.470   4.315  0.0870  0.0638 -0.1979
 1930TIP3    H127281   3.638   5.523   4.310  0.0857  0.3420  1.8169
 1930TIP3    H227282   3.494   5.517   4.262  1.1662 -0.0472 -1.6732
 1931TIP3   OH227283   0.077   1.948  12.347  0.4004  0.1106 -0.7621
 1931TIP3    H127284   0.011   1.884  12.321  1.0384 -0.6922 -0.4666
 1931TIP3    H227285   0.066   1.956  12.442  0.6987 -0.0090 -0.7153
 1932TIP3   OH227286   1.248   4.691   2.272  0.3234  0.2881  0.5287
 1932TIP3    H127287   1.193   4.764   2.300 -0.1494 -0.2179  0.9725
 1932TIP3    H227288   1.242   4.628   2.344 -0.0001 -0.5689 -0.2271
 1933TIP3   OH227289   4.997   5.601  11.390  0.3747  0.3577  0.1857
 1933TIP3    H127290   4.936   5.631  11.322 -0.9111 -1.2397  0.5665
 1933TIP3    H227291   5.050   5.534  11.347 -0.2492 -0.4514  0.6256
 1934TIP3   OH227292   2.385   4.375  11.917 -0.1267 -0.0537  0.3749
 1934TIP3    H127293   2.467   4.423  11.902  1.2610 -2.1939  0.6587
 1934TIP3    H227294   2.409   4.305  11.978 -1.5228 -2.3066 -1.4656
 1935TIP3   OH227295   2.771   0.651   4.934  0.2492 -0.4459  0.1496
 1935TIP3    H127296   2.684   0.689   4.920  1.0861  1.4279 -0.2592
 1935TIP3    H227297   2.766   0.611   5.021 -1.5714 -2.0987 -0.6498
 1936TIP3   OH227298   6.755   3.958  15.011 -1.2665  0.7120  0.2109
 1936TIP3    H127299   6.824   3.991  15.070 -0.9131  1.7150 -0.7235
 1936TIP3    H227300   6.780   3.868  14.993 -0.9947  0.6120  1.0484
 1937TIP3   OH227301   2.204   4.283  11.597  0.3754 -0.1726  0.1678
 1937TIP3    H127302   2.238   4.251  11.680 -0.2538  0.2240  0.5872
 1937TIP3    H227303   2.112   4.301  11.614 -0.6043 -2.9700 -1.4019
 1938TIP3   OH227304   2.264   6.253  15.071  0.1242  0.4549  0.1697
 1938TIP3    H127305   2.303   6.317  15.011 -0.2924  0.5774  0.0214
 1938TIP3    H227306   2.215   6.194  15.014 -0.1570  0.4866  0.3759
 1939TIP3   OH227307   2.781   1.506  15.582  0.0588 -0.4060 -0.2582
 1939TIP3    H127308   2.759   1.571  15.648  0.3584  1.3968 -1.8426
 1939TIP3    H227309   2.875   1.491  15.594 -0.3085 -1.8611  1.1655
 1940TIP3   OH227310   0.155   6.015  12.313 -0.5614  0.1695 -0.2138
 1940TIP3    H127311   0.239   6.020  12.266  1.2273  0.4446  2.7751
 1940TIP3    H227312   0.177   6.033  12.404 -3.7526 -0.7847  0.8847
 1941TIP3   OH227313   6.046   5.843   0.173 -0.1177 -0.2074  0.3962
 1941TIP3    H127314   6.135   5.875   0.161 -0.5173  0.8188 -0.0043
 1941TIP3    H227315   6.047   5.798   0.258  0.7860 -0.2582  0.3633
 1942TIP3   OH227316   4.766   5.338   1.923 -0.0060 -0.2462  0.7425
 1942TIP3    H127317   4.801   5.344   1.834 -0.8958 -0.1272  0.3913
 1942TIP3    H227318   4.695   5.275   1.916 -0.8795  0.6728  1.0982
 1943TIP3   OH227319   4.563   3.971  13.014 -0.5564 -0.5356  0.5538
 1943TIP3    H127320   4.545   3.988  13.106 -0.9075 -0.5868  0.4971
 1943TIP3    H227321   4.655   3.995  13.002  0.0862 -2.4350  1.3740
 1944TIP3   OH227322   0.764   4.046  11.320 -0.6810 -0.3778  0.0744
 1944TIP3    H127323   0.716   4.126  11.300  0.4198  0.3138  0.1260
 1944TIP3    H227324   0.816   4.067  11.397  0.3349 -0.8314 -0.4641
 1945TIP3   OH227325   0.837   2.312  12.472 -0.1246  0.0167  0.3649
 1945TIP3    H127326   0.764   2.372  12.455 -0.4371 -0.5120 -0.1658
 1945TIP3    H227327   0.900   2.329  12.402  0.3425  0.5768  0.9054
 1946TIP3   OH227328   2.680   2.467  15.777 -0.5100 -0.0005 -0.2795
 1946TIP3    H127329   2.689   2.428  15.690 -1.2528 -0.8717  0.0143
 1946TIP3    H227330   2.589   2.450  15.802 -0.7254  1.5154  0.0747
 1947TIP3   OH227331   6.198   2.872  14.955 -0.2272  0.6156  0.4978
 1947TIP3    H127332   6.120   2.888  15.007 -1.6570  2.1493 -1.9602
 1947TIP3    H227333   6.173   2.803  14.893  0.2619  1.2969 -0.4867
 1948TIP3   OH227334   4.778   4.832   4.642  0.0791  0.3193  0.3311
 1948TIP3    H127335   4.714   4.763   4.626  0.8784 -0.5307  0.7162
 1948TIP3    H227336   4.784   4.880   4.559 -0.5951  0.0232  0.1124
 1949TIP3   OH227337   2.285   1.054   0.373 -0.4631 -0.4774  0.1982
 1949TIP3    H127338   2.376   1.024   0.366  0.2821  1.8915 -1.1444
 1949TIP3    H227339   2.287   1.122   0.440 -0.7980  1.0106 -1.2519
 1950TIP3   OH227340   0.728   5.117  16.982 -0.2928  0.3834 -0.3317
 1950TIP3    H127341   0.688   5.032  16.998  1.5864 -0.5059 -0.1709
 1950TIP3    H227342   0.679   5.153  16.908 -0.7254 -1.1056 -0.7963
 1951TIP3   OH227343   0.351   3.568   6.084  0.3069 -0.0497  0.4669
 1951TIP3    H127344   0.323   3.493   6.136 -0.7069 -0.3228 -0.4556
 1951TIP3    H227345   0.364   3.638   6.148  0.0565 -0.6548  1.1898
 1952TIP3   OH227346   5.042   1.671   3.156 -0.6602  0.5978  0.6807
 1952TIP3    H127347   5.100   1.735   3.115 -2.6261  2.1637  0.1574
 1952TIP3    H227348   4.955   1.712   3.154 -1.7095 -1.3548  1.9770
 1953TIP3   OH227349   4.560   4.272  14.148  0.1124 -0.5657  0.1338
 1953TIP3    H127350   4.585   4.252  14.238 -0.0941  0.5688  0.4579
 1953TIP3    H227351   4.507   4.197  14.121 -1.1543 -0.2076  1.5126
 1954TIP3   OH227352   6.749   6.070   0.223  0.3512  0.2616 -0.8786
 1954TIP3    H127353   6.745   6.012   0.298 -1.4821  1.0724 -0.2852
 1954TIP3    H227354   6.778   6.154   0.259 -0.1450  0.5478 -1.1253
 1955TIP3   OH227355   5.521   5.099   3.084 -1.0240 -0.1747 -0.0683
 1955TIP3    H127356   5.567   5.095   3.168 -1.6282 -4.3077  0.2771
 1955TIP3    H227357   5.429   5.100   3.107 -1.2092 -1.8724 -0.5792
 1956TIP3   OH227358   6.762   0.911   1.512 -0.0285 -0.5403 -0.4789
 1956TIP3    H127359   6.690   0.972   1.526  0.0071 -0.4974 -0.4829
 1956TIP3    H227360   6.828   0.962   1.465 -0.1914 -0.7135 -0.8963
 1957TIP3   OH227361   2.220   5.959  13.163  0.3233 -0.4243  0.1142
 1957TIP3    H127362   2.145   6.018  13.157  1.2409  0.6568 -1.6811
 1957TIP3    H227363   2.293   6.014  13.190  0.9887 -0.9082 -0.6121
 1958TIP3   OH227364   0.149   1.635   5.592 -0.0164  0.0192  0.3013
 1958TIP3    H127365   0.153   1.574   5.519  1.5685  0.0089  0.3606
 1958TIP3    H227366   0.159   1.581   5.670 -0.2219  0.1851  0.4457
 1959TIP3   OH227367   5.750   0.539  16.606 -0.0660 -0.4425  0.4568
 1959TIP3    H127368   5.667   0.568  16.568  0.5410 -0.5147 -1.0069
 1959TIP3    H227369   5.770   0.457  16.561  1.6195  0.4324 -0.4873
 1960TIP3   OH227370   1.838   5.514  15.095  0.0842  0.4018 -0.0739
 1960TIP3    H127371   1.891   5.440  15.064 -1.0689 -0.1067 -0.9196
 1960TIP3    H227372   1.875   5.590  15.050 -0.0840  0.0104 -0.8926
 1961TIP3   OH227373   4.333   6.759   5.321 -0.8427 -0.0726 -0.4296
 1961TIP3    H127374   4.322   6.854   5.325 -1.1661 -0.0944 -0.6820
 1961TIP3    H227375   4.274   6.732   5.251 -0.9818 -0.4929 -0.1549
 1962TIP3   OH227376   0.361   6.838   5.511 -0.5513  0.4179 -0.9146
 1962TIP3    H127377   0.398   6.759   5.551 -0.9903 -0.4960 -2.2483
 1962TIP3    H227378   0.338   6.894   5.586 -0.3585 -0.7717  0.0719
 1963TIP3   OH227379   2.262   5.103  15.298 -0.5496 -1.1897 -0.1045
 1963TIP3    H127380   2.189   5.160  15.276  0.8352  0.1220 -1.5025
 1963TIP3    H227381   2.242   5.072  15.386 -1.2272  1.7625  0.9036
 1964TIP3   OH227382   4.034   2.090   0.738 -0.0311  0.1999  0.3875
 1964TIP3    H127383   3.947   2.111   0.705  0.5681 -0.9025 -2.1117
 1964TIP3    H227384   4.083   2.172   0.732 -0.3225  0.3318 -0.2113
 1965TIP3   OH227385   6.505   4.648  13.624  0.0318 -0.3542  0.2256
 1965TIP3    H127386   6.447   4.695  13.684  0.5056 -0.7586  1.0286
 1965TIP3    H227387   6.464   4.562  13.614 -0.6982  0.1158 -1.0361
 1966TIP3   OH227388   4.059   2.801  15.048  0.2592 -0.4727  0.7853
 1966TIP3    H127389   4.115   2.872  15.019  2.0685 -2.3286 -0.5900
 1966TIP3    H227390   4.018   2.833  15.128  0.1307  2.4766 -0.3383
 1967TIP3   OH227391   5.879   2.317   2.567 -0.2159  0.1298  0.0114
 1967TIP3    H127392   5.919   2.275   2.491 -0.4876  0.1002 -0.1185
 1967TIP3    H227393   5.803   2.363   2.531 -0.4712 -0.0667  0.2979
 1968TIP3   OH227394   3.251   5.472  15.527 -0.7732  0.2821  0.2148
 1968TIP3    H127395   3.175   5.431  15.567 -0.5337 -0.4599 -0.0595
 1968TIP3    H227396   3.222   5.560  15.505 -1.5338  0.0336  0.1754
 1969TIP3   OH227397   5.463   5.915  13.145 -0.1905  0.1195  0.3335
 1969TIP3    H127398   5.508   5.833  13.167 -0.9770 -0.3183  0.3618
 1969TIP3    H227399   5.441   5.953  13.230  1.2538  0.9970  0.3478
 1970TIP3   OH227400   2.728   0.779  12.013 -0.0489 -1.0256 -0.3016
 1970TIP3    H127401   2.819   0.777  11.982  0.1788 -0.5386  0.3105
 1970TIP3    H227402   2.720   0.699  12.066  0.9181  0.2921  2.0059
 1971TIP3   OH227403   4.607   1.388  11.182 -0.7096  0.3837 -0.4739
 1971TIP3    H127404   4.600   1.479  11.155  0.1292  0.2569 -1.1593
 1971TIP3    H227405   4.542   1.379  11.252 -2.3116  0.9526 -1.8276
 1972TIP3   OH227406   4.055   0.853  11.784 -0.0599  0.0476  0.1217
 1972TIP3    H127407   4.116   0.920  11.754 -1.7419  0.8938 -1.6492
 1972TIP3    H227408   4.085   0.773  11.741 -1.0879  0.7927 -2.1436
 1973TIP3   OH227409   5.428   5.511   0.716 -0.2991  0.5322  0.3205
 1973TIP3    H127410   5.400   5.493   0.627 -0.8019  0.8924  0.4031
 1973TIP3    H227411   5.495   5.444   0.734 -0.1394  0.5078 -0.3460
 1974TIP3   OH227412   6.345   2.365  11.137 -0.3283 -0.3068 -0.6474
 1974TIP3    H127413   6.334   2.460  11.143  3.5097  0.3185 -0.5795
 1974TIP3    H227414   6.285   2.338  11.068 -3.4008  1.6554  1.0288
 1975TIP3   OH227415   3.211   3.947   4.415  0.2492  0.2784 -0.7163
 1975TIP3    H127416   3.304   3.961   4.396  0.2155  0.5044 -0.7158
 1975TIP3    H227417   3.200   3.978   4.505  0.0428  0.8262 -0.9291
 1976TIP3   OH227418   1.048   6.184   2.557 -0.0134 -0.3838 -0.4962
 1976TIP3    H127419   1.087   6.258   2.511 -0.4333 -0.3752 -0.8535
 1976TIP3    H227420   1.069   6.199   2.649 -1.1918  0.8906 -0.3913
 1977TIP3   OH227421   4.957   5.189   0.379  0.1873  0.1696  0.2222
 1977TIP3    H127422   4.864   5.208   0.370  0.2642 -0.1852 -1.6814
 1977TIP3    H227423   4.961   5.094   0.392  0.3354 -0.1580 -1.8473
 1978TIP3   OH227424   0.964   6.205  17.021  0.0239 -0.0517  0.1144
 1978TIP3    H127425   0.930   6.141  17.083 -0.2938 -0.8320 -0.8389
 1978TIP3    H227426   1.033   6.158  16.973  0.1274  0.4684 -0.2538
 1979TIP3   OH227427   1.887   6.718   5.849 -0.3754  0.1554 -0.1729
 1979TIP3    H127428   1.931   6.771   5.782 -1.7619  1.2108 -0.2944
 1979TIP3    H227429   1.907   6.763   5.931 -0.3861  0.0585 -0.1176
 1980TIP3   OH227430   3.736   2.062   2.142  0.0584  0.8264 -0.4398
 1980TIP3    H127431   3.770   2.010   2.215  0.3867  1.9167  0.2169
 1980TIP3    H227432   3.648   2.028   2.127  0.8354 -1.0216 -1.1527
 1981TIP3   OH227433   6.406   4.957  13.299 -0.1154  0.0469 -0.2437
 1981TIP3    H127434   6.391   5.025  13.233 -0.0203 -0.8123 -1.1818
 1981TIP3    H227435   6.339   4.972  13.366 -1.4249 -0.1747 -1.4549
 1982TIP3   OH227436   6.572   4.018  13.541  0.3849  0.1967  0.1923
 1982TIP3    H127437   6.490   4.029  13.493  1.6895 -0.4292 -2.3338
 1982TIP3    H227438   6.582   4.099  13.591 -2.2680 -0.1682  1.4859
 1983TIP3   OH227439   4.456   1.312   2.960  0.6654  0.6498  0.1677
 1983TIP3    H127440   4.384   1.266   3.004  0.7898 -0.0449 -0.3375
 1983TIP3    H227441   4.476   1.386   3.018 -0.3884  0.8044  0.3576
 1984TIP3   OH227442   5.823   3.857  12.371  0.3936 -0.1269  0.0715
 1984TIP3    H127443   5.759   3.807  12.320 -1.0331 -0.8715  2.4571
 1984TIP3    H227444   5.898   3.797  12.378 -0.0153 -0.6399  0.1654
 1985TIP3   OH227445   3.360   2.490  16.213  0.3195 -0.3119  0.2252
 1985TIP3    H127446   3.361   2.399  16.245  2.0441 -0.8305 -1.1539
 1985TIP3    H227447   3.417   2.537  16.274  0.0867 -0.3347  0.4617
 1986TIP3   OH227448   3.803   5.700   6.388 -0.3697 -0.5878  0.3044
 1986TIP3    H127449   3.725   5.646   6.401 -1.6906  1.4836  1.4240
 1986TIP3    H227450   3.774   5.771   6.330  1.4805 -1.2975 -1.6167
 1987TIP3   OH227451   2.707   5.954  14.927  0.1501  0.3757 -0.0216
 1987TIP3    H127452   2.650   5.972  14.853 -0.5174 -0.0711  0.3743
 1987TIP3    H227453   2.664   5.995  15.002  0.2135 -0.1736  0.3233
 1988TIP3   OH227454   2.241   4.947   3.362  0.2052  0.5945 -0.2698
 1988TIP3    H127455   2.289   4.886   3.417  0.7675  1.0226 -0.2762
 1988TIP3    H227456   2.199   4.893   3.295  0.6969  0.2184 -0.2740
 1989TIP3   OH227457   6.348   0.165  15.318  0.5547  0.6353  0.0387
 1989TIP3    H127458   6.370   0.209  15.236 -0.9867 -0.3454 -0.9677
 1989TIP3    H227459   6.414   0.096  15.327  0.1396  0.0869 -0.9490
 1990TIP3   OH227460   3.129   0.129   3.518 -0.5778  0.5039 -0.1096
 1990TIP3    H127461   3.194   0.062   3.497 -1.8595 -0.5856 -0.7502
 1990TIP3    H227462   3.082   0.093   3.593  0.7760  2.1659  1.6370
 1991TIP3   OH227463   4.390   2.927  13.538 -0.8542  0.3061 -0.5735
 1991TIP3    H127464   4.450   2.895  13.605  1.4909  1.2761 -2.0767
 1991TIP3    H227465   4.333   2.989  13.584  0.2442  0.4359  0.6657
 1992TIP3   OH227466   1.446   6.478  15.687 -0.0834  0.1570  0.1961
 1992TIP3    H127467   1.507   6.425  15.636  0.2804 -0.0530  0.8532
 1992TIP3    H227468   1.377   6.417  15.714 -1.3103  0.6364 -1.6346
 1993TIP3   OH227469   1.171   6.843  16.064  0.4393  0.0666  0.3199
 1993TIP3    H127470   1.251   6.888  16.091  1.5097 -0.1637 -2.2122
 1993TIP3    H227471   1.201   6.757  16.035 -0.6449  0.1555 -1.1699
 1994TIP3   OH227472   6.260   0.658   1.738  0.1874  0.2296  0.1718
 1994TIP3    H127473   6.247   0.645   1.644 -1.6616 -1.5793  0.6037
 1994TIP3    H227474   6.355   0.664   1.749  0.4685 -0.2264 -1.7393
 1995TIP3   OH227475   4.965   4.483  13.366  0.3701  0.3146  0.4788
 1995TIP3    H127476   4.954   4.484  13.461  0.8784 -0.2558  0.5486
 1995TIP3    H227477   4.975   4.575  13.342  0.3668  0.4503  0.9902
 1996TIP3   OH227478   1.211   2.018   4.525 -0.0086 -0.0748 -0.7768
 1996TIP3    H127479   1.262   2.050   4.599  0.1198  0.3230 -1.0309
 1996TIP3    H227480   1.237   2.074   4.452 -0.6749  0.0189 -0.9500
 1997TIP3   OH227481   2.734   6.548   6.096  0.0496  0.4393 -0.3608
 1997TIP3    H127482   2.707   6.619   6.154  1.6912  0.6435  0.1890
 1997TIP3    H227483   2.790   6.492   6.149  0.2932 -0.2476 -1.3042
 1998TIP3   OH227484   4.240   4.221  13.051  0.7158 -0.3580  0.2813
 1998TIP3    H127485   4.193   4.260  12.977 -0.4565 -1.1509  0.5853
 1998TIP3    H227486   4.333   4.234  13.030  0.4174 -0.7737 -1.4453
 1999TIP3   OH227487   5.883   0.764   5.457 -0.1182 -0.0653 -0.5966
 1999TIP3    H127488   5.966   0.758   5.506 -0.4519 -0.7639 -0.1009
 1999TIP3    H227489   5.822   0.710   5.507 -1.2067  1.3555 -0.3074
 2000TIP3   OH227490   4.481   4.692  15.891  0.3560  0.5270 -0.0813
 2000TIP3    H127491   4.421   4.619  15.876  1.9135 -0.9583  0.6665
 2000TIP3    H227492   4.449   4.733  15.971  0.7369 -0.7050  0.7231
 2001TIP3   OH227493   3.965   2.879   0.409  0.4614 -0.2920 -0.5965
 2001TIP3    H127494   3.906   2.895   0.483  2.2471 -2.3520  1.4233
 2001TIP3    H227495   3.909   2.838   0.344 -0.8562  0.1485  0.1954
 2002TIP3   OH227496   1.301   5.708  16.356 -0.2892 -0.0590  0.1309
 2002TIP3    H127497   1.279   5.790  16.401 -2.3992 -0.2109 -0.4901
 2002TIP3    H227498   1.267   5.639  16.413 -0.3056 -0.3970 -0.2827
 2003TIP3   OH227499   0.733   4.278   5.783 -0.4962  0.4941 -0.0914
 2003TIP3    H127500   0.667   4.213   5.758  0.5248  0.1811 -2.2015
 2003TIP3    H227501   0.808   4.227   5.811 -1.0683  0.8489  2.2631
 2004TIP3   OH227502   2.556   0.305   2.096 -0.2506  0.6246  0.1177
 2004TIP3    H127503   2.480   0.252   2.118  0.3525 -1.7224 -2.8137
 2004TIP3    H227504   2.530   0.394   2.120 -2.6272 -0.4864  2.1426
 2005TIP3   OH227505   6.532   1.461   1.178 -0.1943  0.3490  0.3705
 2005TIP3    H127506   6.484   1.471   1.260 -0.1035  3.5408  0.1548
 2005TIP3    H227507   6.501   1.533   1.123  1.1846 -0.5186 -1.6643
 2006TIP3   OH227508   5.215   5.596   5.897  0.8357 -0.2306  0.3198
 2006TIP3    H127509   5.141   5.652   5.919  0.6023 -1.0884  1.8388
 2006TIP3    H227510   5.197   5.514   5.942  2.3147 -0.7225  0.0569
 2007TIP3   OH227511   3.268   6.793  13.526  0.1059 -0.3400  0.2550
 2007TIP3    H127512   3.185   6.746  13.513  0.2245 -0.2674 -0.8618
 2007TIP3    H227513   3.311   6.790  13.441  1.0617  0.0129  0.7080
 2008TIP3   OH227514   3.342   3.299   6.207 -0.2764 -0.0571  0.4561
 2008TIP3    H127515   3.357   3.251   6.289  0.8445  0.2105  0.4201
 2008TIP3    H227516   3.301   3.381   6.235 -1.4404 -0.6635  0.5894
 2009TIP3   OH227517   1.357   3.212   5.869  0.1044 -0.0161  1.1212
 2009TIP3    H127518   1.406   3.294   5.871  0.5685 -0.2047 -0.5334
 2009TIP3    H227519   1.295   3.218   5.941  1.0730  1.1866  1.8749
 2010TIP3   OH227520   3.613   6.237   0.848 -0.3123  0.2841 -0.3086
 2010TIP3    H127521   3.536   6.194   0.886 -0.3560  2.0934  1.8626
 2010TIP3    H227522   3.576   6.301   0.786 -0.3920 -0.6735 -1.2697
 2011TIP3   OH227523   3.008   6.494  11.150  0.1763 -0.0047 -0.8414
 2011TIP3    H127524   2.929   6.547  11.156 -0.5189 -1.0126 -0.8477
 2011TIP3    H227525   3.029   6.490  11.057  0.4538  0.5760 -0.8040
 2012TIP3   OH227526   2.912   3.534  11.207 -0.0857  0.1035 -0.1066
 2012TIP3    H127527   2.935   3.460  11.264 -0.7622  0.3330  0.4850
 2012TIP3    H227528   2.989   3.548  11.153  0.3944 -0.4342  0.4252
 2013TIP3   OH227529   4.910   4.702   2.506  0.0049 -0.1508 -0.1677
 2013TIP3    H127530   4.974   4.706   2.436 -0.1401  1.7074 -0.2219
 2013TIP3    H227531   4.929   4.777   2.562 -1.4635 -0.1495  0.3915
 2014TIP3   OH227532   3.752   6.542   5.586 -0.1555 -0.1612  0.0989
 2014TIP3    H127533   3.788   6.472   5.639 -0.7838  0.0746  0.8504
 2014TIP3    H227534   3.681   6.501   5.537  1.0152 -0.5980 -1.2928
 2015TIP3   OH227535   3.052   3.450   1.914 -0.2073  0.5315  0.4864
 2015TIP3    H127536   3.001   3.370   1.928  0.0563  0.1106 -0.8200
 2015TIP3    H227537   2.989   3.513   1.878  0.0593  0.1503 -0.7066
 2016TIP3   OH227538   0.201   4.787   3.689  0.0567 -0.1116  0.1891
 2016TIP3    H127539   0.288   4.758   3.662 -0.5168 -2.0370  0.2966
 2016TIP3    H227540   0.141   4.738   3.633 -1.0161 -0.2983  1.4698
 2017TIP3   OH227541   2.913   0.042   1.087 -0.1837  0.3707  0.2078
 2017TIP3    H127542   2.872  -0.031   1.041 -0.2257  0.8928 -0.6014
 2017TIP3    H227543   2.953   0.002   1.164 -0.1383 -0.5190 -0.2610
 2018TIP3   OH227544   3.335   5.833  14.315  0.4861 -0.9579  0.1295
 2018TIP3    H127545   3.271   5.868  14.253  0.3724  1.9532  1.7193
 2018TIP3    H227546   3.282   5.790  14.382  0.1864  0.4926  0.8691
 2019TIP3   OH227547   3.996   4.875  11.237 -0.1927  0.3221 -0.1264
 2019TIP3    H127548   4.082   4.835  11.225  0.1722  1.4663 -1.6354
 2019TIP3    H227549   4.010   4.946  11.298 -0.1421  0.2791 -0.0887
 2020TIP3   OH227550   6.060   4.990  14.609  0.0286  0.2588 -0.3299
 2020TIP3    H127551   6.044   4.968  14.517 -1.1090 -0.5717  0.0358
 2020TIP3    H227552   5.982   4.959  14.654  0.2574  1.2998  0.8313
 2021TIP3   OH227553   3.219   0.850   1.572  0.9799 -0.4226  1.0658
 2021TIP3    H127554   3.262   0.912   1.512 -2.6244  1.0326 -0.2995
 2021TIP3    H227555   3.229   0.890   1.658 -1.9508  2.7657  0.1337
 2022TIP3   OH227556   0.424   5.157  14.778  0.4609  0.2253 -0.3880
 2022TIP3    H127557   0.355   5.142  14.714 -0.1310  0.1437  0.2457
 2022TIP3    H227558   0.438   5.251  14.777  1.0851  0.1328 -1.2603
 2023TIP3   OH227559   3.633   5.245  16.251 -0.3358 -0.0517  0.1397
 2023TIP3    H127560   3.672   5.214  16.169 -2.0681  3.2446 -2.1828
 2023TIP3    H227561   3.671   5.331  16.265  1.1453 -1.1155  3.9013
 2024TIP3   OH227562   6.028   1.200  15.781 -0.1824  0.0503  0.2783
 2024TIP3    H127563   5.995   1.117  15.815 -0.8414 -0.2957 -1.1377
 2024TIP3    H227564   5.950   1.253  15.765  0.2948  1.5977  2.6554
 2025TIP3   OH227565   0.227   6.466  15.557  0.3196 -0.2169 -1.2457
 2025TIP3    H127566   0.260   6.485  15.645 -1.3807 -1.2529 -0.3120
 2025TIP3    H227567   0.132   6.481  15.564  0.2220  0.1810 -3.0641
 2026TIP3   OH227568   2.204   1.393  13.277  0.5124  0.4980 -0.1377
 2026TIP3    H127569   2.259   1.408  13.354  1.2683  0.7717 -0.7184
 2026TIP3    H227570   2.192   1.481  13.239 -0.6527  0.4938  0.1978
 2027TIP3   OH227571   6.157   1.190  11.753 -0.2251 -0.5544  0.4712
 2027TIP3    H127572   6.079   1.227  11.795 -0.3625  0.2116 -0.4353
 2027TIP3    H227573   6.129   1.104  11.721 -0.9048  0.0104 -0.4701
 2028TIP3   OH227574   4.473   1.524  15.683  0.5359 -0.7043  0.1740
 2028TIP3    H127575   4.417   1.453  15.718 -0.7762  0.3472  0.2857
 2028TIP3    H227576   4.554   1.517  15.734  0.3607 -1.9944  0.3224
 2029TIP3   OH227577   1.763   0.985   6.056  0.4340 -0.1002  0.0089
 2029TIP3    H127578   1.840   0.937   6.087  0.5456  0.0619 -0.0121
 2029TIP3    H227579   1.718   1.012   6.136  0.0011 -0.8221  0.0170
 2030TIP3   OH227580   3.787   4.782   2.184  0.6266  0.1808 -0.6469
 2030TIP3    H127581   3.821   4.696   2.160  0.8598 -0.2435  1.1054
 2030TIP3    H227582   3.692   4.772   2.180  0.6122 -0.6659  1.1198
 2031TIP3   OH227583   3.374   3.525   4.775 -0.6799  0.4928 -0.5596
 2031TIP3    H127584   3.465   3.551   4.790 -0.7027  0.2854 -0.0344
 2031TIP3    H227585   3.326   3.562   4.850 -0.9557  0.2337 -0.6063
 2032TIP3   OH227586   1.361   2.236  10.936  0.6375 -0.3616  0.6295
 2032TIP3    H127587   1.449   2.241  10.974  0.8529 -3.5295  0.8146
 2032TIP3    H227588   1.305   2.280  11.000  1.7160 -0.7525  1.8873
 2033TIP3   OH227589   4.645   4.616   4.326  0.6571 -0.1142 -0.1042
 2033TIP3    H127590   4.724   4.570   4.299  0.7922 -1.2405  2.0297
 2033TIP3    H227591   4.621   4.577   4.410 -1.0137  1.6053  0.2983
 2034TIP3   OH227592   0.064   3.199  13.619 -0.0762  0.0328  0.0435
 2034TIP3    H127593  -0.021   3.230  13.586 -0.3705 -0.0783  0.6714
 2034TIP3    H227594   0.055   3.203  13.715  1.1995  1.5875  0.1309
 2035TIP3   OH227595   2.192   3.688  15.550  0.0958 -0.0839 -0.0274
 2035TIP3    H127596   2.165   3.601  15.523 -1.3938  0.5261 -0.6126
 2035TIP3    H227597   2.258   3.673  15.619 -1.0342 -1.6673  0.7659
 2036TIP3   OH227598   1.323   5.450  15.947 -0.1572 -0.0888 -0.0552
 2036TIP3    H127599   1.351   5.466  15.857  3.2134 -0.0096  0.8496
 2036TIP3    H227600   1.288   5.361  15.946  1.9363 -0.9731 -1.1056
 2037TIP3   OH227601   4.668   2.350  12.998 -0.1578 -0.7068  0.0547
 2037TIP3    H127602   4.686   2.260  13.025 -2.3468 -0.8413  1.2992
 2037TIP3    H227603   4.576   2.364  13.020 -0.3371  1.3098 -1.6637
 2038TIP3   OH227604   4.166   6.638   4.718  0.1559 -0.4023 -0.4822
 2038TIP3    H127605   4.107   6.687   4.660  0.2653 -0.7032 -0.8538
 2038TIP3    H227606   4.224   6.704   4.755 -1.1678  0.0711  0.8173
 2039TIP3   OH227607   5.468   0.400  11.567  0.7073 -0.1928  0.2641
 2039TIP3    H127608   5.474   0.340  11.493 -0.7936  0.0683 -0.1157
 2039TIP3    H227609   5.432   0.480  11.530 -1.5522 -0.5593  1.4789
 2040TIP3   OH227610   6.074   2.834  13.458  0.0400 -0.7948 -0.3800
 2040TIP3    H127611   6.071   2.767  13.389 -0.8524 -0.4162 -0.7288
 2040TIP3    H227612   6.027   2.908  13.421 -1.1478 -0.8479  0.9134
 2041TIP3   OH227613   0.117   4.770  16.758  0.5156  0.1409  0.0224
 2041TIP3    H127614   0.120   4.818  16.676  2.3458 -0.6214 -0.4223
 2041TIP3    H227615   0.203   4.785  16.797  0.0508 -0.3770  1.2788
 2042TIP3   OH227616   4.007   0.521   0.669 -0.1960 -0.4770  0.3609
 2042TIP3    H127617   3.989   0.489   0.758  0.2161 -1.7477  0.0034
 2042TIP3    H227618   4.054   0.604   0.683 -0.2055 -0.6193  1.3277
 2043TIP3   OH227619   2.131   2.493  15.391  0.2732  0.2571 -0.1949
 2043TIP3    H127620   2.064   2.479  15.324  0.4510 -0.5620 -0.2093
 2043TIP3    H227621   2.175   2.574  15.365 -0.8631  0.9303 -0.0521
 2044TIP3   OH227622   4.791   2.170  16.495  0.4942  0.1347 -0.2311
 2044TIP3    H127623   4.886   2.156  16.494  0.5350  0.4260 -0.5776
 2044TIP3    H227624   4.764   2.156  16.405  0.2296  0.2127 -0.1645
 2045TIP3   OH227625   4.597   1.143  15.490  0.3147 -0.1249 -0.1705
 2045TIP3    H127626   4.553   1.110  15.568  1.2645  0.4800  0.6327
 2045TIP3    H227627   4.560   1.230  15.476  1.2126  0.3793  0.4976
 2046TIP3   OH227628   6.424   2.751  13.312 -0.4353  0.3744 -0.0584
 2046TIP3    H127629   6.514   2.734  13.282 -0.6804 -0.0697 -0.5442
 2046TIP3    H227630   6.415   2.846  13.307 -0.4842  0.3123 -1.4367
 2047TIP3   OH227631   6.098   4.026  12.519 -0.3694 -0.0131 -0.1899
 2047TIP3    H127632   6.041   3.978  12.459 -2.1524  0.3302  1.1396
 2047TIP3    H227633   6.121   4.106  12.471 -0.6590 -0.3534 -0.9102
 2048TIP3   OH227634   4.379   4.659  11.380 -0.2720  0.2843 -0.4702
 2048TIP3    H127635   4.323   4.597  11.333  0.3776 -2.4876  2.1340
 2048TIP3    H227636   4.318   4.724  11.415 -1.2000  0.1454 -1.7608
 2049TIP3   OH227637   4.998   6.008  15.754 -0.6402 -0.0009 -0.6781
 2049TIP3    H127638   4.987   6.017  15.659 -2.2067  0.6475 -0.4566
 2049TIP3    H227639   5.002   5.914  15.768 -2.1083 -0.1718 -1.2338
 2050TIP3   OH227640   4.586   4.825   0.538 -0.0214 -0.2398  0.3013
 2050TIP3    H127641   4.491   4.817   0.529  0.0965 -0.1018 -1.3399
 2050TIP3    H227642   4.622   4.758   0.480  0.8593  1.6829 -1.5356
 2051TIP3   OH227643   2.878   0.272  14.477  0.0829 -0.0665 -0.3126
 2051TIP3    H127644   2.804   0.315  14.519 -0.5436 -0.7898 -0.6524
 2051TIP3    H227645   2.839   0.219  14.408  0.6867 -2.2296  0.9264
 2052TIP3   OH227646   0.319   0.468  14.920  0.5871  0.1669  0.6154
 2052TIP3    H127647   0.397   0.513  14.887 -0.0009  0.6020 -0.2280
 2052TIP3    H227648   0.258   0.539  14.942 -0.5090 -0.1701 -1.1185
 2053TIP3   OH227649   0.051   5.486   6.311 -0.8158 -0.4172  0.2111
 2053TIP3    H127650   0.141   5.487   6.343 -0.5222 -0.5525 -0.5918
 2053TIP3    H227651   0.021   5.576   6.321 -0.1976 -0.1060 -0.5716
 2054TIP3   OH227652   5.899   0.446  16.125 -0.5000 -0.8210  0.0419
 2054TIP3    H127653   5.908   0.463  16.218 -0.2649  1.9487 -0.4064
 2054TIP3    H227654   5.982   0.475  16.087 -1.6330  0.9450 -1.2870
 2055TIP3   OH227655   0.026   3.402   3.578  0.0040 -0.1599  0.1045
 2055TIP3    H127656  -0.024   3.457   3.518 -0.1860  2.3591  2.3764
 2055TIP3    H227657   0.108   3.383   3.533 -1.2236 -0.7771 -1.9951
 2056TIP3   OH227658   2.306   3.099  13.678  0.2089  0.3146 -0.2926
 2056TIP3    H127659   2.218   3.090  13.716  0.4304 -1.4149 -0.1171
 2056TIP3    H227660   2.294   3.159  13.604 -0.7009  1.7794  0.9794
 2057TIP3   OH227661   3.508   1.987   4.019  0.1172  0.1225  0.1626
 2057TIP3    H127662   3.430   1.969   3.967 -0.3817  1.4894  0.3786
 2057TIP3    H227663   3.576   2.006   3.954 -0.7322  2.7357 -0.0818
 2058TIP3   OH227664   4.039   2.810   3.283  0.0543 -0.3474  0.3461
 2058TIP3    H127665   3.982   2.749   3.237 -1.5670  1.0263  0.4403
 2058TIP3    H227666   4.126   2.794   3.246 -0.6082 -1.6201 -0.7251
 2059TIP3   OH227667   4.804   0.510   4.802 -0.2359  0.1068  0.4078
 2059TIP3    H127668   4.897   0.490   4.817 -0.0359  0.2741 -0.5702
 2059TIP3    H227669   4.804   0.600   4.770 -0.7749  0.2348  0.7512
 2060TIP3   OH227670   5.221   5.481   2.896 -0.4160 -0.1069 -0.0512
 2060TIP3    H127671   5.176   5.433   2.965 -1.0121  1.3404  0.6029
 2060TIP3    H227672   5.306   5.503   2.934 -0.5959  0.3525  0.0964
 2061TIP3   OH227673   4.030   1.522   3.410 -0.4488  0.3240 -0.2127
 2061TIP3    H127674   3.946   1.497   3.447 -0.2639 -1.1834 -0.7438
 2061TIP3    H227675   4.093   1.512   3.482 -0.3499 -0.9670 -0.4655
 2062TIP3   OH227676   3.672   1.196   1.338  0.4641  0.7413  0.4867
 2062TIP3    H127677   3.625   1.276   1.364 -0.8683 -0.1883  1.0265
 2062TIP3    H227678   3.748   1.194   1.396  0.9567  2.0242 -0.0688
 2063TIP3   OH227679   6.175   2.121   5.851  0.3183 -0.0849  0.1321
 2063TIP3    H127680   6.217   2.204   5.875  1.6047 -1.1421  1.6948
 2063TIP3    H227681   6.194   2.110   5.758  3.1978 -0.2890  0.6543
 2064TIP3   OH227682   1.918   5.461  13.863 -0.1973 -0.5858  0.1306
 2064TIP3    H127683   1.928   5.543  13.815  0.8885 -0.5164  0.4341
 2064TIP3    H227684   1.894   5.397  13.796 -0.5068 -0.1317 -0.2002
 2065TIP3   OH227685   3.781   5.250  13.022 -0.2295 -0.5097  0.0160
 2065TIP3    H127686   3.861   5.288  13.057 -1.0868  1.5359 -0.1005
 2065TIP3    H227687   3.722   5.243  13.097  0.0047 -1.9871  0.0996
 2066TIP3   OH227688   5.053   4.278   0.725  0.3781 -0.2982  0.0314
 2066TIP3    H127689   5.039   4.238   0.640  2.3595 -1.8912  0.3728
 2066TIP3    H227690   5.119   4.223   0.767  0.1025  0.9401  2.2605
 2067TIP3   OH227691   5.124   5.019   1.639  0.1029  0.2093 -0.0211
 2067TIP3    H127692   5.081   5.000   1.555 -0.4647 -0.3944  0.4071
 2067TIP3    H227693   5.135   5.115   1.638  0.6895  0.1501 -1.0610
 2068TIP3   OH227694   5.501   3.717  14.750  0.1599 -0.2959  0.5732
 2068TIP3    H127695   5.424   3.761  14.713  1.4510  1.8026  0.2570
 2068TIP3    H227696   5.486   3.720  14.845 -0.5697 -0.7769  0.4863
 2069TIP3   OH227697   4.151   2.564  15.776 -0.2547  0.1346 -0.3947
 2069TIP3    H127698   4.188   2.492  15.827  1.6460  1.3678  0.0614
 2069TIP3    H227699   4.074   2.591  15.826  2.0005  1.8662  2.4830
 2070TIP3   OH227700   0.363   6.186   3.176  0.3802  0.0927 -0.4082
 2070TIP3    H127701   0.415   6.136   3.114  1.4990  0.9257 -0.1694
 2070TIP3    H227702   0.341   6.123   3.245  2.4171  0.0489  0.2787
 2071TIP3   OH227703   2.782   2.901  13.128  0.3067  0.0875 -0.2196
 2071TIP3    H127704   2.866   2.941  13.151 -0.1442  1.9937 -1.6451
 2071TIP3    H227705   2.794   2.808  13.147  1.7573  0.7075  2.2930
 2072TIP3   OH227706   2.171   1.853   5.197 -0.7159  0.4102  0.0485
 2072TIP3    H127707   2.106   1.924   5.202 -0.8728  0.2425  0.4764
 2072TIP3    H227708   2.191   1.834   5.289  0.8575  1.2848 -0.0799
 2073TIP3   OH227709   1.572   0.923   5.659 -0.3810  0.4378  0.2704
 2073TIP3    H127710   1.560   0.830   5.643  0.5140  0.4684 -0.6761
 2073TIP3    H227711   1.571   0.963   5.572 -4.4714  1.8615  0.7325
 2074TIP3   OH227712   0.852   0.393  14.539  0.0484  0.1877  0.7084
 2074TIP3    H127713   0.872   0.486  14.535  3.9862 -0.4027  2.0555
 2074TIP3    H227714   0.828   0.369  14.449 -1.7832  2.5689  0.5002
 2075TIP3   OH227715   1.125   1.050   1.454 -0.3636  0.5361 -0.6132
 2075TIP3    H127716   1.069   1.014   1.523 -0.6188  0.7436 -0.7068
 2075TIP3    H227717   1.064   1.096   1.396 -0.1927  0.0958 -1.1536
 2076TIP3   OH227718   1.107   6.816  16.612 -0.3851 -0.0472 -0.6203
 2076TIP3    H127719   1.039   6.864  16.660  1.2111  2.0310 -0.2600
 2076TIP3    H227720   1.068   6.731  16.593 -2.2966  0.2750  1.4377
 2077TIP3   OH227721   0.356   3.033   5.470 -0.4047  0.1350 -0.5426
 2077TIP3    H127722   0.367   3.123   5.440 -0.0413 -0.1759 -1.3820
 2077TIP3    H227723   0.425   2.984   5.425 -1.0841 -0.6973 -0.7194
 2078TIP3   OH227724   4.657   2.646  13.470  0.1951  0.1994 -0.4219
 2078TIP3    H127725   4.584   2.680  13.418  0.8168  2.2202 -0.0196
 2078TIP3    H227726   4.719   2.613  13.405 -0.9076 -1.2717 -0.7743
 2079TIP3   OH227727   1.508   1.053  13.805 -0.1553  0.2261 -0.2454
 2079TIP3    H127728   1.582   0.993  13.796  0.2321  0.5588  0.5768
 2079TIP3    H227729   1.508   1.077  13.898 -1.6604 -0.2108 -0.1117
 2080TIP3   OH227730   6.175   5.964   1.365 -0.5383  0.4756  0.4893
 2080TIP3    H127731   6.171   5.878   1.408  0.8102 -0.0711 -0.3924
 2080TIP3    H227732   6.221   6.020   1.427  0.1180  0.0820  0.3670
 2081TIP3   OH227733   5.109   5.772  14.336 -0.7614  0.2460  0.0822
 2081TIP3    H127734   5.156   5.733  14.410 -2.0073 -0.4739  0.5217
 2081TIP3    H227735   5.125   5.866  14.343 -0.0943  0.0923  0.7036
 2082TIP3   OH227736   5.192   2.097  11.727 -0.5549  0.2889  0.0065
 2082TIP3    H127737   5.254   2.158  11.687 -1.5681  2.4690  1.5750
 2082TIP3    H227738   5.161   2.143  11.805 -1.5467 -2.1794  1.1583
 2083TIP3   OH227739   4.887   4.339  13.129 -0.0407 -0.4037 -0.4046
 2083TIP3    H127740   4.840   4.405  13.077  0.6163 -0.9066 -1.6897
 2083TIP3    H227741   4.920   4.387  13.205 -0.3668  0.5447 -0.8445
 2084TIP3   OH227742   2.372   0.954  17.080 -0.1327 -0.8965  0.6649
 2084TIP3    H127743   2.367   0.866  17.120  0.3157 -1.3975 -0.3688
 2084TIP3    H227744   2.452   0.953  17.029 -0.1725  0.1004  0.5746
 2085TIP3   OH227745   1.403   5.499  13.106 -0.6156  0.9316  0.2454
 2085TIP3    H127746   1.434   5.536  13.189  0.2509 -3.1461  1.9964
 2085TIP3    H227747   1.315   5.468  13.126 -0.2706 -0.3860 -0.2030
 2086TIP3   OH227748   1.919   1.150   5.480 -0.3271 -0.5657  0.1715
 2086TIP3    H127749   1.880   1.133   5.395 -0.4675 -0.8280  0.2897
 2086TIP3    H227750   1.955   1.066   5.508 -0.2832 -0.4817  0.3734
 2087TIP3   OH227751   5.121   0.757  11.324  0.0755 -0.4563 -0.3558
 2087TIP3    H127752   5.206   0.766  11.282 -0.1010 -2.1400 -1.1968
 2087TIP3    H227753   5.074   0.694  11.269 -2.0781  1.1132 -0.4574
 2088TIP3   OH227754   2.030   5.085   5.849  0.3132 -0.3849 -0.0134
 2088TIP3    H127755   1.950   5.126   5.882 -0.2337 -2.0971  0.8853
 2088TIP3    H227756   2.031   5.109   5.756 -1.3794 -0.5213 -0.1099
 2089TIP3   OH227757   0.777   3.428  11.225 -0.5976  0.6002  0.0079
 2089TIP3    H127758   0.776   3.502  11.286 -1.6410  1.6794 -1.2228
 2089TIP3    H227759   0.818   3.463  11.146  0.0597 -0.5374 -0.1720
 2090TIP3   OH227760   0.808   6.492  11.322  0.2143 -0.1110  0.0391
 2090TIP3    H127761   0.726   6.519  11.364 -0.5714 -1.7964 -0.3179
 2090TIP3    H227762   0.792   6.402  11.295  2.5595 -0.8278  0.8458
 2091TIP3   OH227763   2.431   1.546   3.990 -0.2263 -0.1859  0.2797
 2091TIP3    H127764   2.480   1.517   4.066  0.7325  0.4670 -0.0662
 2091TIP3    H227765   2.493   1.539   3.917 -1.0039 -0.4454 -0.3781
 2092TIP3   OH227766   6.715   0.263   2.018  0.3247 -1.1697 -0.1025
 2092TIP3    H127767   6.680   0.282   2.105 -1.0231 -2.6924 -0.2671
 2092TIP3    H227768   6.764   0.342   1.994  0.6169 -0.6656  1.9625
 2093TIP3   OH227769   3.078   1.477  11.409 -0.0984  0.3576 -0.0054
 2093TIP3    H127770   3.105   1.569  11.401  1.1111 -0.0848 -1.5098
 2093TIP3    H227771   2.983   1.479  11.406 -0.1324  1.6166  0.8499
 2094TIP3   OH227772   5.352   0.498   5.375 -0.4767  0.4074 -0.3266
 2094TIP3    H127773   5.334   0.425   5.315 -0.7491 -0.2676  0.5534
 2094TIP3    H227774   5.445   0.516   5.364 -0.2429 -0.5625 -0.0414
 2095TIP3   OH227775   3.548   0.457  14.332  0.2562  0.0395 -0.1873
 2095TIP3    H127776   3.513   0.495  14.252  2.1006 -0.4559 -1.2808
 2095TIP3    H227777   3.533   0.524  14.399 -1.2583  0.4833 -0.9261
 2096TIP3   OH227778   1.593   3.035   2.504 -0.4828 -0.0077 -0.0927
 2096TIP3    H127779   1.608   2.977   2.578 -2.0431 -0.8149 -0.3550
 2096TIP3    H227780   1.501   3.021   2.481 -0.1389  0.4460 -1.9640
 2097TIP3   OH227781   3.799   4.218   6.405  0.1776 -0.0185  0.2864
 2097TIP3    H127782   3.778   4.226   6.312 -1.9598 -1.1167  0.6035
 2097TIP3    H227783   3.827   4.127   6.416  0.5000  0.1243  0.7154
 2098TIP3   OH227784   0.320   5.937  16.994 -0.2498  0.2564 -0.6835
 2098TIP3    H127785   0.283   5.937  17.083  2.1906 -0.0730  0.4327
 2098TIP3    H227786   0.275   5.866  16.949 -0.0426 -1.0264  1.0288
 2099TIP3   OH227787   2.844   4.565   2.237  0.1145  0.4010 -0.0459
 2099TIP3    H127788   2.824   4.605   2.153 -0.2700  1.3236  0.4745
 2099TIP3    H227789   2.759   4.550   2.278  0.2608 -0.7013 -0.1061
 2100TIP3   OH227790   2.790   5.133   4.399  0.1412 -0.2000  0.2574
 2100TIP3    H127791   2.832   5.218   4.392 -1.5874  0.7918  1.3212
 2100TIP3    H227792   2.844   5.084   4.462  0.2678  0.6696  0.8346
 2101TIP3   OH227793   5.993   4.892  13.405  0.4619 -0.4460 -0.1886
 2101TIP3    H127794   6.039   4.833  13.346  0.9146 -0.4546  0.1683
 2101TIP3    H227795   5.938   4.946  13.348 -0.3666 -1.5628 -0.4829
 2102TIP3   OH227796   1.589   3.322   5.600 -0.6611 -0.5355 -0.5298
 2102TIP3    H127797   1.507   3.352   5.562  0.4650  2.0452 -1.1541
 2102TIP3    H227798   1.580   3.337   5.694 -0.3050  1.5036 -0.7801
 2103TIP3   OH227799   3.364   3.032   0.712 -0.5312  0.0395  1.0040
 2103TIP3    H127800   3.364   3.003   0.621 -3.2277 -0.9008  1.2115
 2103TIP3    H227801   3.412   3.115   0.711 -0.3993 -0.0144 -1.2461
 2104TIP3   OH227802   4.024   2.524  10.070 -0.2492 -0.2806  0.7190
 2104TIP3    H127803   4.016   2.602  10.126 -0.9411 -0.1108  0.3999
 2104TIP3    H227804   4.113   2.494  10.084  0.8978  1.9889 -1.0280
 2105TIP3   OH227805   2.366   3.052  11.910  0.2060 -0.2178  0.7825
 2105TIP3    H127806   2.324   3.112  11.848  2.4280  0.7632  0.1210
 2105TIP3    H227807   2.303   3.045  11.982 -0.8853  1.5282  0.0827
 2106TIP3   OH227808   5.556   1.001  15.608 -0.0513  0.2060  0.2003
 2106TIP3    H127809   5.495   1.063  15.567  0.5691  0.4479 -0.3759
 2106TIP3    H227810   5.510   0.917  15.607  0.6211 -0.2224 -2.7163
 2107TIP3   OH227811   4.936   4.188  12.557  0.3794 -0.5813 -0.0359
 2107TIP3    H127812   4.896   4.268  12.521 -2.0034 -2.1930 -1.2867
 2107TIP3    H227813   4.935   4.127  12.484  1.6038 -1.9657  1.0542
 2108TIP3   OH227814   0.649   2.194   3.264 -0.0152  0.0007  0.3651
 2108TIP3    H127815   0.657   2.131   3.336  0.1675 -1.3921 -0.8233
 2108TIP3    H227816   0.640   2.139   3.186 -0.1432  1.4730 -0.6818
 2109TIP3   OH227817   4.917   2.116   1.808 -0.2764  0.0326  0.3311
 2109TIP3    H127818   4.842   2.172   1.824 -0.8700  0.2778 -2.7513
 2109TIP3    H227819   4.988   2.176   1.786  0.3887 -0.2796  1.5259
 2110TIP3   OH227820   3.594   5.583   3.169 -0.1528  0.6152 -0.3494
 2110TIP3    H127821   3.563   5.559   3.257 -1.6394  0.4585 -0.8753
 2110TIP3    H227822   3.632   5.670   3.180 -1.8187  1.3246  0.1886
 2111TIP3   OH227823   4.533   5.623   5.376 -0.1930 -0.3250 -0.1622
 2111TIP3    H127824   4.595   5.671   5.431  0.4222 -0.1473 -1.0004
 2111TIP3    H227825   4.465   5.688   5.356  0.2257 -0.0191 -0.6288
 2112TIP3   OH227826   6.673   0.655  16.708 -0.6461 -0.1675 -0.3282
 2112TIP3    H127827   6.708   0.721  16.767  1.4690  1.2610 -2.9976
 2112TIP3    H227828   6.649   0.582  16.766  0.3237  1.4999  2.3569
 2113TIP3   OH227829   2.403   1.982   2.359  0.0728 -0.0234 -0.2033
 2113TIP3    H127830   2.375   1.927   2.286 -0.7879 -1.2686  1.0368
 2113TIP3    H227831   2.388   1.929   2.437  2.8637  0.4934  0.7934
 2114TIP3   OH227832   5.113   3.619  17.123 -0.2174 -0.0971  0.4116
 2114TIP3    H127833   5.104   3.572  17.040  3.0027  0.2849 -0.3018
 2114TIP3    H227834   5.026   3.655  17.140 -1.4473 -1.7761 -1.7919
 2115TIP3   OH227835   1.097   4.801  16.875  0.4402 -0.4101  0.3926
 2115TIP3    H127836   1.013   4.767  16.845  1.2040 -2.5100  0.5092
 2115TIP3    H227837   1.126   4.738  16.941  1.6035  0.8710  1.1491
 2116TIP3   OH227838   6.219   2.002   5.319 -0.3578 -0.2283  0.5427
 2116TIP3    H127839   6.125   1.986   5.328 -0.9261  1.1079 -2.1282
 2116TIP3    H227840   6.257   1.914   5.310 -1.2047 -0.8259  2.3141
 2117TIP3   OH227841   4.382   0.891   6.336  0.2851 -0.0834 -0.0981
 2117TIP3    H127842   4.466   0.856   6.306 -0.0624 -2.0344  1.0458
 2117TIP3    H227843   4.405   0.973   6.381  1.2236  0.8574 -2.1346
 2118TIP3   OH227844   5.634   3.780  12.733  0.2620  0.2811  0.0452
 2118TIP3    H127845   5.563   3.839  12.757 -0.8802 -0.2268 -1.8163
 2118TIP3    H227846   5.713   3.834  12.737 -0.4221  1.2627  0.7361
 2119TIP3   OH227847   4.330   1.910   0.792  0.3111 -0.1115  0.0371
 2119TIP3    H127848   4.396   1.975   0.816  0.9413 -0.9488  0.6430
 2119TIP3    H227849   4.307   1.931   0.702 -0.6277  1.8758  0.6750
 2120TIP3   OH227850   1.763   1.209   3.278  0.2074 -0.1142 -0.2577
 2120TIP3    H127851   1.738   1.155   3.203 -2.9517 -1.1138  1.3210
 2120TIP3    H227852   1.756   1.299   3.246  0.3027 -0.5241 -1.5087
 2121TIP3   OH227853   0.317   4.094  14.109  0.1032 -0.1355 -0.4656
 2121TIP3    H127854   0.262   4.141  14.047 -0.6272 -0.7085 -0.2594
 2121TIP3    H227855   0.267   4.016  14.132 -0.2489  0.7055  1.8815
 2122TIP3   OH227856   4.149   4.812   4.555  0.0585  0.8685  0.0354
 2122TIP3    H127857   4.159   4.892   4.606 -0.0644  0.3637  0.8919
 2122TIP3    H227858   4.060   4.816   4.520 -0.0013  1.0340  0.2055
 2123TIP3   OH227859   0.396   4.346   5.766  0.1313 -0.1771  0.2036
 2123TIP3    H127860   0.308   4.333   5.729  0.2103 -3.2337  0.8072
 2123TIP3    H227861   0.453   4.294   5.710  0.9532 -1.1971  1.9184
 2124TIP3   OH227862   1.979   3.721   2.904  0.1873  0.2421  0.6644
 2124TIP3    H127863   1.972   3.816   2.898  1.1894  0.3311  0.7242
 2124TIP3    H227864   1.893   3.692   2.934 -1.0981  0.8620 -2.0786
 2125TIP3   OH227865   6.139   2.830  16.538  0.0373 -0.2444 -0.2313
 2125TIP3    H127866   6.223   2.861  16.504 -0.3891  0.0043 -1.0789
 2125TIP3    H227867   6.133   2.739  16.508  0.8043 -0.8573  1.3562
 2126TIP3   OH227868   1.507   4.242  15.636 -0.3955 -1.1396  0.0281
 2126TIP3    H127869   1.475   4.158  15.668  0.5650 -1.9707 -1.0875
 2126TIP3    H227870   1.537   4.224  15.547 -2.0557  0.8416 -1.0245
 2127TIP3   OH227871   6.328   0.343  14.430 -0.2522 -0.0073  0.0464
 2127TIP3    H127872   6.238   0.323  14.454 -0.0366 -1.0515  0.0231
 2127TIP3    H227873   6.379   0.323  14.509 -0.2284  2.4452  0.7441
 2128TIP3   OH227874   3.641   6.002   3.218  0.9267  0.3216 -0.2059
 2128TIP3    H127875   3.579   5.930   3.235  0.5510  0.6447 -0.1968
 2128TIP3    H227876   3.726   5.964   3.238  1.0042 -0.8960 -2.4955
 2129TIP3   OH227877   3.551   6.077   3.716 -0.3371 -0.1424 -0.0831
 2129TIP3    H127878   3.611   6.012   3.680  1.4403  1.1392  0.4026
 2129TIP3    H227879   3.527   6.131   3.641 -1.4207 -1.0078 -0.3922
 2130TIP3   OH227880   4.655   1.568  12.073  0.2060  0.4529  0.0005
 2130TIP3    H127881   4.624   1.586  11.984  1.6205  0.4717 -0.5062
 2130TIP3    H227882   4.711   1.642  12.095  1.9999 -0.7948 -0.1395
 2131TIP3   OH227883   1.568   5.376  13.959 -0.3380  0.1950 -0.2915
 2131TIP3    H127884   1.615   5.417  13.886 -1.1922  1.5890 -0.1074
 2131TIP3    H227885   1.476   5.393  13.939 -0.6393 -0.4915  0.4983
 2132TIP3   OH227886   2.193   0.902   0.701  0.1467 -0.5737  0.0449
 2132TIP3    H127887   2.112   0.855   0.722 -0.4023 -0.1434 -0.9960
 2132TIP3    H227888   2.219   0.867   0.615  0.0536  0.5727 -0.4682
 2133TIP3   OH227889   5.362   3.149  15.075  0.5184 -0.3099 -0.4854
 2133TIP3    H127890   5.303   3.191  15.012  1.4951  0.8606 -0.6741
 2133TIP3    H227891   5.369   3.212  15.147  0.7356 -0.8926  0.0178
 2134TIP3   OH227892   4.284   4.143  12.412 -0.2461  0.4488  1.0700
 2134TIP3    H127893   4.338   4.065  12.403 -1.2884 -0.3079  1.1951
 2134TIP3    H227894   4.313   4.182  12.495  0.5851  0.4524  0.7898
 2135TIP3   OH227895   6.110   1.649  14.018  0.3216 -0.4945 -0.2497
 2135TIP3    H127896   6.090   1.695  14.099  0.4636  0.5534 -0.7931
 2135TIP3    H227897   6.029   1.655  13.967  0.5715 -0.2170 -0.6154
 2136TIP3   OH227898   2.515   5.951   2.617  0.4438  0.0603 -0.4746
 2136TIP3    H127899   2.574   5.884   2.582 -1.0990 -1.2621 -0.6877
 2136TIP3    H227900   2.532   5.949   2.712 -0.7041 -1.8681 -0.2489
 2137TIP3   OH227901   4.272   6.240  12.579 -0.0281  0.0464  0.1203
 2137TIP3    H127902   4.255   6.298  12.653  0.8430 -0.4472  0.7214
 2137TIP3    H227903   4.316   6.296  12.515  0.9650  0.0390  0.7659
 2138TIP3   OH227904   5.290   2.308  12.157 -0.4659  0.2224 -0.5689
 2138TIP3    H127905   5.290   2.218  12.190 -0.9557  0.2541 -0.4838
 2138TIP3    H227906   5.305   2.362  12.235  2.6895  0.1012 -0.9658
 2139TIP3   OH227907   5.709   1.406   2.245  0.3153  0.1519  0.2477
 2139TIP3    H127908   5.633   1.348   2.235 -1.2802  2.4013 -1.9364
 2139TIP3    H227909   5.674   1.494   2.230  3.0578  1.4781  1.0071
 2140TIP3   OH227910   3.846   3.524  13.380  0.3901 -0.1830 -0.1263
 2140TIP3    H127911   3.935   3.508  13.413 -0.8667 -1.1276  3.1895
 2140TIP3    H227912   3.790   3.518  13.457 -2.5976  0.5730 -2.0548
 2141TIP3   OH227913   0.584   0.812  13.950 -0.2803  0.0198  0.1325
 2141TIP3    H127914   0.505   0.866  13.956 -0.7616 -0.7205  0.6048
 2141TIP3    H227915   0.609   0.816  13.858 -1.1016 -0.0476 -0.1020
 2142TIP3   OH227916   1.887   1.776  10.487 -0.4342 -0.2856 -0.0074
 2142TIP3    H127917   1.900   1.827  10.407  0.1824 -2.6547 -1.4996
 2142TIP3    H227918   1.958   1.712  10.486 -1.5527 -1.6219  1.4111
 2143TIP3   OH227919   6.029   2.669   2.038 -0.1921  1.1430  0.0333
 2143TIP3    H127920   5.979   2.624   2.106  0.3723  0.7124  0.1645
 2143TIP3    H227921   6.017   2.762   2.057  0.3031  1.0213  0.9721
 2144TIP3   OH227922   2.975   3.324  14.336  0.4304 -0.1430 -0.0893
 2144TIP3    H127923   2.952   3.273  14.414  0.0701  0.3515  0.1289
 2144TIP3    H227924   2.928   3.407  14.346  0.1883 -0.1609 -0.9438
 2145TIP3   OH227925   5.027   1.756   2.469 -0.0485 -0.1085  0.5970
 2145TIP3    H127926   4.969   1.703   2.414  0.0190  0.4711 -0.0398
 2145TIP3    H227927   4.971   1.827   2.501  0.1435  0.0622  0.5499
 2146TIP3   OH227928   0.002   6.386  13.067  1.1781 -0.4764  0.3973
 2146TIP3    H127929  -0.087   6.351  13.060 -0.0878  2.3998  0.7080
 2146TIP3    H227930   0.050   6.344  12.995 -0.8454 -1.0321 -0.7014
 2147TIP3   OH227931   1.350   5.134   3.163 -0.0831  0.4970  0.5263
 2147TIP3    H127932   1.403   5.083   3.225 -0.7179 -3.0190 -1.5435
 2147TIP3    H227933   1.411   5.152   3.091 -0.5063  0.5010  0.1706
 2148TIP3   OH227934   3.526   1.505  15.650  0.8386 -0.0674  0.2368
 2148TIP3    H127935   3.508   1.446  15.723  0.5127  1.0489  1.0821
 2148TIP3    H227936   3.604   1.468  15.608  0.5635 -1.1608  0.6616
 2149TIP3   OH227937   2.044   2.619  14.201  0.2115 -0.3716 -0.0475
 2149TIP3    H127938   2.094   2.572  14.133 -0.4194 -1.7692  0.4164
 2149TIP3    H227939   1.999   2.550  14.249 -0.3226  0.6976  1.0289
 2150TIP3   OH227940   5.427   0.055  16.670  0.1712  0.4864  0.4455
 2150TIP3    H127941   5.361   0.019  16.728  0.6623  0.5370  1.0416
 2150TIP3    H227942   5.506   0.061  16.723  0.3644  1.4863  0.0804
 2151TIP3   OH227943   1.955   3.211  11.947  0.1537 -0.1157  0.1596
 2151TIP3    H127944   1.951   3.168  12.032  1.6949  0.1689  0.4023
 2151TIP3    H227945   1.959   3.138  11.884 -1.1426 -0.3254  0.2983
 2152TIP3   OH227946   4.904   3.189  11.931  0.0254  0.1740  0.1615
 2152TIP3    H127947   4.955   3.266  11.904 -1.1483  1.0646  0.4224
 2152TIP3    H227948   4.823   3.195  11.880 -0.2419 -0.6877  0.4744
 2153TIP3   OH227949   6.685   2.907  15.870  0.6753  0.1056 -0.2038
 2153TIP3    H127950   6.598   2.937  15.897  0.9535 -0.2377  1.1256
 2153TIP3    H227951   6.701   2.952  15.787 -0.8166  0.0781 -0.5426
 2154TIP3   OH227952   4.167   5.452   3.936  0.4406 -0.5218  0.4858
 2154TIP3    H127953   4.229   5.382   3.913  1.3279  0.2489  0.4635
 2154TIP3    H227954   4.087   5.430   3.888  0.3065 -2.1224  1.3464
 2155TIP3   OH227955   1.763   5.466   2.388  0.1378  0.1473 -0.0541
 2155TIP3    H127956   1.808   5.509   2.462 -0.3549  0.2741  0.1806
 2155TIP3    H227957   1.825   5.401   2.357  0.0832 -0.4033  0.9391
 2156TIP3   OH227958   5.065   2.510   4.364 -0.6182  0.3179 -0.0201
 2156TIP3    H127959   4.978   2.482   4.334 -0.3747 -0.6995  0.2087
 2156TIP3    H227960   5.124   2.441   4.335  0.2311  1.3006 -0.7194
 2157TIP3   OH227961   0.464   5.699  14.768 -0.2149 -0.0644 -0.1440
 2157TIP3    H127962   0.479   5.733  14.680 -1.0000  0.2307 -0.1769
 2157TIP3    H227963   0.497   5.767  14.827 -1.6133  0.7223 -0.2117
 2158TIP3   OH227964   0.391   4.924  11.660 -0.4143  0.1446 -0.4190
 2158TIP3    H127965   0.418   4.952  11.747  0.0191  0.1455 -0.5506
 2158TIP3    H227966   0.438   4.982  11.600  0.7136 -0.9943 -0.7053
 2159TIP3   OH227967   5.757   0.733  12.509 -0.0667 -0.0526  0.2427
 2159TIP3    H127968   5.756   0.742  12.414  1.2544 -0.1930  0.1929
 2159TIP3    H227969   5.748   0.823  12.541 -1.0777 -0.0597  0.0083
 2160TIP3   OH227970   4.121   0.416  10.388 -0.0222  0.0211 -0.0342
 2160TIP3    H127971   4.081   0.330  10.403  0.3781 -0.3920 -1.2359
 2160TIP3    H227972   4.046   0.475  10.381 -0.3166 -0.2846  0.4581
 2161TIP3   OH227973   3.415   1.732   0.631 -0.0863  0.3398  0.3703
 2161TIP3    H127974   3.342   1.775   0.676  1.2169  0.8231  2.1182
 2161TIP3    H227975   3.443   1.664   0.692  0.8381  0.0785 -0.3389
 2162TIP3   OH227976   6.790   2.141  15.267 -0.3164  0.3822  0.0305
 2162TIP3    H127977   6.759   2.129  15.356 -0.6995 -0.4961 -0.2176
 2162TIP3    H227978   6.757   2.065  15.219  1.1023  0.1014 -0.5424
 2163TIP3   OH227979   1.212   3.552  12.375  0.2881  0.0666  0.1229
 2163TIP3    H127980   1.221   3.484  12.442  1.2385 -0.5497 -0.5921
 2163TIP3    H227981   1.143   3.518  12.317  1.1008 -0.5590 -0.5091
 2164TIP3   OH227982   1.930   2.785  12.775  0.4623  0.1048  0.2920
 2164TIP3    H127983   1.980   2.765  12.696 -1.3860  1.3880 -1.3069
 2164TIP3    H227984   1.861   2.719  12.777 -0.4433  1.0186 -0.0947
 2165TIP3   OH227985   4.524   2.773  15.371 -0.5872  0.2500 -0.4105
 2165TIP3    H127986   4.544   2.769  15.465  1.5916  1.0199 -0.7630
 2165TIP3    H227987   4.601   2.815  15.333 -1.2650 -0.3873 -2.6127
 2166TIP3   OH227988   0.855   3.499  13.492  0.2670  0.1002 -0.9299
 2166TIP3    H127989   0.774   3.539  13.460 -0.2695 -0.5157 -0.3675
 2166TIP3    H227990   0.861   3.526  13.583  0.2035 -0.6059 -0.7077
 2167TIP3   OH227991   0.956   2.046  16.572  0.2900 -0.2877  0.2925
 2167TIP3    H127992   0.869   2.007  16.582  0.6783 -1.7369 -1.5109
 2167TIP3    H227993   0.942   2.140  16.585 -1.5751 -0.4772 -0.0897
 2168TIP3   OH227994   6.309   2.267   1.793  0.2967  0.5753  0.0170
 2168TIP3    H127995   6.257   2.333   1.839 -2.8367 -1.3382 -0.4931
 2168TIP3    H227996   6.324   2.199   1.858 -1.0219 -0.4919 -0.7365
 2169TIP3   OH227997   6.315   6.360   6.099  0.1092 -0.0226 -0.3311
 2169TIP3    H127998   6.360   6.276   6.104 -0.0383 -0.1539 -1.0684
 2169TIP3    H227999   6.295   6.383   6.190 -0.8981 -1.3544 -0.1895
 2170TIP3   OH228000   1.797   3.787   1.850  1.1240  0.4852 -0.0980
 2170TIP3    H128001   1.777   3.796   1.943 -0.0067  1.4461 -0.4183
 2170TIP3    H228002   1.797   3.693   1.835 -3.5064  0.2593 -0.0642
 2171TIP3   OH228003   3.980   6.684  15.721  0.4909 -0.1936 -0.3050
 2171TIP3    H128004   3.916   6.711  15.656 -2.5051 -1.9575  1.6442
 2171TIP3    H228005   4.017   6.765  15.755 -0.2365  0.8581 -1.9347
 2172TIP3   OH228006   0.915   1.358  17.065 -0.2450 -0.0418 -0.0679
 2172TIP3    H128007   0.993   1.412  17.077 -0.2649 -0.0547  0.1192
 2172TIP3    H228008   0.948   1.268  17.068 -0.1051 -0.0352 -1.1086
 2173TIP3   OH228009   2.026   0.705   2.696  0.3551 -0.1410  0.1532
 2173TIP3    H128010   1.965   0.773   2.668 -0.5611 -0.5899  1.0020
 2173TIP3    H228011   2.041   0.723   2.789  1.5644 -0.0152 -0.0421
 2174TIP3   OH228012   3.226   0.259  13.395 -0.0000 -0.2703 -0.3080
 2174TIP3    H128013   3.261   0.298  13.475 -1.6013 -0.2190  0.4247
 2174TIP3    H228014   3.131   0.254  13.411 -0.4011  0.0639 -2.3579
 2175TIP3   OH228015   2.381   6.172   5.488  0.7709  0.3244  0.5349
 2175TIP3    H128016   2.377   6.082   5.518  0.0266 -0.1408 -0.8664
 2175TIP3    H228017   2.303   6.182   5.432  2.2831  0.9508 -1.5944
 2176TIP3   OH228018   6.670   6.709  16.889  0.5278  0.0899  0.3833
 2176TIP3    H128019   6.713   6.647  16.948  2.0022  0.3853 -0.3134
 2176TIP3    H228020   6.599   6.659  16.849  0.6099 -0.6272  1.1169
 2177TIP3   OH228021   2.681   0.814   5.777  0.0149  0.6029 -0.6441
 2177TIP3    H128022   2.708   0.891   5.828 -0.7536 -0.1729  1.0216
 2177TIP3    H228023   2.589   0.831   5.755  0.0623  0.4872 -0.9379
 2178TIP3   OH228024   1.498   1.232  13.576 -0.4118 -0.1470 -0.4211
 2178TIP3    H128025   1.593   1.224  13.573 -0.1688  1.1244  1.7935
 2178TIP3    H228026   1.470   1.167  13.641 -0.9567  0.0383 -0.4607
 2179TIP3   OH228027   0.549   6.795   0.284  0.2745  0.0101 -0.0746
 2179TIP3    H128028   0.533   6.797   0.189 -1.0859  2.4089  0.1162
 2179TIP3    H228029   0.602   6.873   0.301 -0.8799  0.5339  1.3193
 2180TIP3   OH228030   0.834   1.008  14.613  0.5276  0.6195  0.9590
 2180TIP3    H128031   0.824   0.929  14.560  0.6930  1.0045  0.3515
 2180TIP3    H228032   0.747   1.022  14.651 -0.3431  1.8031 -1.2756
 2181TIP3   OH228033   3.277   3.989  12.262 -0.2331  0.1187 -0.2969
 2181TIP3    H128034   3.199   3.941  12.231  0.8911 -1.7927 -0.3685
 2181TIP3    H228035   3.324   4.012  12.181  0.8102 -1.5456 -0.2218
 2182TIP3   OH228036   3.719   6.095   4.457 -0.3071  0.5555  0.1960
 2182TIP3    H128037   3.654   6.038   4.415  0.8220  0.5511 -1.6878
 2182TIP3    H228038   3.802   6.067   4.419  0.5875  1.7430  1.2108
 2183TIP3   OH228039   6.384   1.218  15.953 -0.3564  0.1830 -0.2385
 2183TIP3    H128040   6.365   1.155  16.022  3.2242 -0.0041  0.7824
 2183TIP3    H228041   6.383   1.303  15.996  2.0412  0.0537  0.2353
 2184TIP3   OH228042   4.384   4.960  14.454  0.3325 -0.7526  0.0066
 2184TIP3    H128043   4.343   4.874  14.446  1.2287 -1.3184  1.1817
 2184TIP3    H228044   4.474   4.942  14.481  1.4408  0.4464 -2.5448
 2185TIP3   OH228045   5.834   5.505   0.435  0.0688  0.4815  0.6338
 2185TIP3    H128046   5.796   5.540   0.353  1.1471 -0.7188 -0.4125
 2185TIP3    H228047   5.928   5.523   0.427  0.3183 -0.5712  1.1445
 2186TIP3   OH228048   2.561   3.348  12.600  0.1831  0.1756  0.7059
 2186TIP3    H128049   2.605   3.386  12.524 -2.4031  3.2015  0.5372
 2186TIP3    H228050   2.528   3.423  12.650 -2.2901 -1.7749  2.2852
 2187TIP3   OH228051   2.795   3.379  13.865 -0.6495 -0.1679  0.2590
 2187TIP3    H128052   2.788   3.292  13.902 -1.7511  0.1620  0.8744
 2187TIP3    H228053   2.791   3.438  13.940 -1.7748  0.4714 -0.2694
 2188TIP3   OH228054   4.342   1.681   4.111  0.2056 -0.2990 -0.4555
 2188TIP3    H128055   4.432   1.694   4.082  0.3979 -1.5224 -0.4704
 2188TIP3    H228056   4.288   1.720   4.042  0.7188 -0.3602 -0.8950
 2189TIP3   OH228057   3.630   2.554  14.019  0.2862 -0.3208  0.7750
 2189TIP3    H128058   3.673   2.470  14.006  0.7479 -0.1782  1.3361
 2189TIP3    H228059   3.539   2.539  13.993  0.8069 -0.4440 -1.1109
 2190TIP3   OH228060   4.203   3.853   4.870  0.0264 -0.6174  0.0669
 2190TIP3    H128061   4.195   3.936   4.823 -0.7444 -0.7938 -0.1165
 2190TIP3    H228062   4.114   3.828   4.892  0.1830 -1.7342 -0.4699
 2191TIP3   OH228063   0.318   3.230   3.834  0.3029  0.2717  0.1393
 2191TIP3    H128064   0.301   3.211   3.741  1.6183  0.8192 -0.2405
 2191TIP3    H228065   0.303   3.324   3.841  1.3912  0.4504  0.1894
 2192TIP3   OH228066   4.330   6.030   2.106 -0.3010  0.0647 -0.4464
 2192TIP3    H128067   4.353   6.114   2.067 -1.6114  1.1136  0.9253
 2192TIP3    H228068   4.394   6.019   2.177 -1.0347  0.6483  0.3195
 2193TIP3   OH228069   5.878   4.526   4.174 -0.1179 -0.2264 -0.4018
 2193TIP3    H128070   5.800   4.558   4.128  0.0259  0.0477 -0.4555
 2193TIP3    H228071   5.951   4.557   4.121  0.1315  1.5254  0.8832
 2194TIP3   OH228072   5.966   2.147   3.819  0.4368  0.0645 -0.1425
 2194TIP3    H128073   5.895   2.083   3.828  1.0986 -0.5805  0.6163
 2194TIP3    H228074   5.923   2.231   3.834 -0.2241 -0.2923  0.0306
 2195TIP3   OH228075   5.839   2.113   4.681  0.3223  0.0124 -0.4575
 2195TIP3    H128076   5.870   2.200   4.705  1.3442 -0.4315 -0.1138
 2195TIP3    H228077   5.790   2.127   4.600  0.8064  0.8599 -0.6193
 2196TIP3   OH228078   5.001   6.372  15.259  0.1049  0.4591  0.2740
 2196TIP3    H128079   4.918   6.364  15.306  0.3700 -1.2589  0.5028
 2196TIP3    H228080   5.048   6.441  15.305 -0.3564  0.0138  1.4452
 2197TIP3   OH228081   4.508   0.943  10.429 -0.4879  0.3904 -0.2444
 2197TIP3    H128082   4.560   1.023  10.434 -0.2375  0.3197 -1.3726
 2197TIP3    H228083   4.452   0.945  10.506  1.3821  0.3237  1.1977
 2198TIP3   OH228084   3.026   4.814   1.155 -0.2925  0.3154  0.3168
 2198TIP3    H128085   3.052   4.889   1.102 -1.4122 -0.4967 -1.4784
 2198TIP3    H228086   3.084   4.817   1.231  0.2887  2.4607 -0.1431
 2199TIP3   OH228087   0.470   1.082  11.926 -0.1714 -0.4261  0.4862
 2199TIP3    H128088   0.418   1.093  11.847  0.1346 -2.0324  0.0071
 2199TIP3    H228089   0.555   1.051  11.895  0.9956  1.7759  1.2781
 2200TIP3   OH228090   4.198   6.018   6.727  0.4695 -0.5561 -0.2180
 2200TIP3    H128091   4.144   6.071   6.786 -0.8770 -0.4133 -1.5075
 2200TIP3    H228092   4.151   5.934   6.722 -0.2001 -0.1102 -2.0855
 2201TIP3   OH228093   2.513   6.384   1.420 -0.6313 -0.2983 -0.0808
 2201TIP3    H128094   2.583   6.436   1.460 -1.6235  1.1736 -0.1935
 2201TIP3    H228095   2.435   6.439   1.429 -1.1850 -0.5750 -2.6667
 2202TIP3   OH228096   6.689   5.037   1.780  0.6901 -0.5203 -0.1286
 2202TIP3    H128097   6.743   5.097   1.831 -0.5842 -0.2398  0.9418
 2202TIP3    H228098   6.643   5.094   1.717 -1.1570 -0.1766  1.4369
 2203TIP3   OH228099   2.768   0.604  14.163 -0.1061  0.5290  0.3718
 2203TIP3    H128100   2.824   0.680  14.181  1.9238 -0.7735 -0.0144
 2203TIP3    H228101   2.754   0.564  14.249 -0.1815  0.6859  0.4326
 2204TIP3   OH228102   4.924   4.301  11.313  0.4061 -0.4366 -0.1228
 2204TIP3    H128103   4.872   4.381  11.319  1.0285 -0.0450  0.1716
 2204TIP3    H228104   5.008   4.330  11.279  1.1195 -0.7302  1.3170
 2205TIP3   OH228105   4.270   4.035  13.246 -0.4228 -0.3047  0.1179
 2205TIP3    H128106   4.273   4.097  13.173 -1.4180  0.3500  0.6077
 2205TIP3    H228107   4.256   3.950  13.204 -2.8159  0.2814 -0.4127
 2206TIP3   OH228108   2.376   4.104  10.575  0.2994 -0.0213  0.0041
 2206TIP3    H128109   2.293   4.086  10.619  0.1719 -0.0259 -0.2425
 2206TIP3    H228110   2.352   4.130  10.486  0.6696 -3.1859 -1.1592
 2207TIP3   OH228111   5.501   5.612  11.335 -0.3271  0.1820 -0.2493
 2207TIP3    H128112   5.564   5.643  11.401  0.2115 -1.5050  0.0977
 2207TIP3    H228113   5.550   5.614  11.253  0.4596 -1.6782  0.1081
 2208TIP3   OH228114   1.942   1.837  11.202 -0.1483  0.0774  0.7150
 2208TIP3    H128115   1.890   1.916  11.217  1.1453  1.4440 -1.4480
 2208TIP3    H228116   2.028   1.870  11.175  0.2044 -2.0553 -1.0375
 2209TIP3   OH228117   3.413   2.635   2.525 -0.1686  0.0615 -0.4323
 2209TIP3    H128118   3.330   2.681   2.516 -0.8989 -0.7128  1.7231
 2209TIP3    H228119   3.475   2.686   2.473 -1.0477  3.1236  1.2913
 2210TIP3   OH228120   4.914   6.351  16.226 -0.5405 -0.5269  0.6093
 2210TIP3    H128121   4.925   6.284  16.159 -1.4593 -0.5231  0.4406
 2210TIP3    H228122   4.856   6.416  16.186 -0.4968 -0.1505  1.1427
 2211TIP3   OH228123   6.547   6.328  11.860 -0.3980 -0.3319 -0.4492
 2211TIP3    H128124   6.522   6.262  11.924 -0.5682 -0.3029 -0.4844
 2211TIP3    H228125   6.573   6.404  11.912  0.9777 -0.8333 -0.3806
 2212TIP3   OH228126   4.973   3.689   3.242 -0.4314 -0.1269 -0.1297
 2212TIP3    H128127   5.061   3.690   3.204  0.2379 -0.3250  1.3543
 2212TIP3    H228128   4.977   3.622   3.310 -1.1435  1.1927  1.2830
 2213TIP3   OH228129   4.737   3.802   2.120 -0.2018 -0.7117 -0.5825
 2213TIP3    H128130   4.708   3.732   2.062 -1.3963 -0.0487 -0.8162
 2213TIP3    H228131   4.656   3.840   2.155  0.4089  0.5750 -0.5008
 2214TIP3   OH228132   1.940   1.256   0.513 -0.2929 -0.0078  0.5887
 2214TIP3    H128133   1.952   1.347   0.538  0.7168 -0.0304  0.2401
 2214TIP3    H228134   1.918   1.258   0.420 -0.7442 -0.0990  0.6905
 2215TIP3   OH228135   4.494   3.654   3.106 -0.1410  0.0251  0.2794
 2215TIP3    H128136   4.567   3.602   3.072 -0.6957  0.3950 -1.6176
 2215TIP3    H228137   4.498   3.642   3.201  0.4803 -2.4674  0.0145
 2216TIP3   OH228138   4.437   1.170  12.751 -0.3639 -0.2516 -0.1381
 2216TIP3    H128139   4.365   1.120  12.790 -0.0736 -0.6156 -0.0567
 2216TIP3    H228140   4.406   1.260  12.749 -0.5150 -0.2843  0.6218
 2217TIP3   OH228141   2.380   3.577   3.457 -0.2738 -0.7336  0.5733
 2217TIP3    H128142   2.342   3.498   3.417 -1.8816 -0.6126  1.7519
 2217TIP3    H228143   2.464   3.548   3.492 -0.6603 -1.8238  0.6464
 2218TIP3   OH228144   3.074   5.164   1.183 -0.0628  0.4714  0.5481
 2218TIP3    H128145   3.102   5.250   1.214 -2.4368  1.1309  1.1164
 2218TIP3    H228146   2.980   5.175   1.165 -0.4821 -2.0443  0.8282
 2219TIP3   OH228147   4.896   6.834   4.620 -0.1298 -0.0799 -0.1786
 2219TIP3    H128148   4.988   6.806   4.617 -0.2447 -0.5670  0.6716
 2219TIP3    H228149   4.846   6.755   4.598 -0.4210 -0.3505  1.3791
 2220TIP3   OH228150   4.534   1.881  15.080  0.4973 -0.1381 -0.7151
 2220TIP3    H128151   4.468   1.865  15.148  0.6010  0.8370 -0.3721
 2220TIP3    H228152   4.572   1.795  15.064 -0.2386 -0.5644 -0.2772
 2221TIP3   OH228153   6.601   4.852   5.003  0.2289  0.4470  0.4965
 2221TIP3    H128154   6.539   4.922   4.983  1.9118  2.0370  0.5860
 2221TIP3    H228155   6.642   4.833   4.919  1.0793  0.9008  0.7987
 2222TIP3   OH228156   1.836   4.236   0.329 -0.2506 -0.0602  0.1927
 2222TIP3    H128157   1.924   4.201   0.337 -0.1855 -0.0103 -0.2664
 2222TIP3    H228158   1.787   4.195   0.401  0.3771  0.6751  1.0588
 2223TIP3   OH228159   2.766   5.503  14.739 -0.1814 -0.4885 -0.1108
 2223TIP3    H128160   2.713   5.463  14.808 -0.2570 -0.4690 -0.1573
 2223TIP3    H228161   2.857   5.487  14.766 -0.1746  1.0339  0.8831
 2224TIP3   OH228162   2.917   4.870  11.037  0.2386 -0.1672  0.2301
 2224TIP3    H128163   2.946   4.939  11.096  0.5310  0.2782 -0.4233
 2224TIP3    H228164   2.940   4.901  10.950  0.3098 -1.0574 -0.0833
 2225TIP3   OH228165   3.039   4.479   3.937  0.0847  0.4273  0.6783
 2225TIP3    H128166   3.123   4.492   3.892 -0.0981 -2.6474 -0.8270
 2225TIP3    H228167   3.059   4.416   4.006 -0.9588 -0.2600  0.3606
 2226TIP3   OH228168   2.681   3.236  11.870  0.1391 -0.0544 -0.5197
 2226TIP3    H128169   2.679   3.319  11.823  1.8640  0.3542  0.0556
 2226TIP3    H228170   2.674   3.260  11.962  1.2150 -0.4916 -0.3139
 2227TIP3   OH228171   4.096   2.878   3.757 -0.5070  0.7388 -0.4922
 2227TIP3    H128172   4.037   2.842   3.823  0.2008  0.5344  0.0444
 2227TIP3    H228173   4.042   2.939   3.707 -1.2816  0.2232 -0.3002
 2228TIP3   OH228174   0.543   1.838  16.000 -0.3299  0.5236 -0.6213
 2228TIP3    H128175   0.547   1.801  15.912  0.7463 -0.2004 -0.2862
 2228TIP3    H228176   0.584   1.924  15.992  0.9539 -0.0676 -0.5878
 2229TIP3   OH228177   3.934   4.430  15.071  0.3304 -0.0373 -0.5188
 2229TIP3    H128178   3.882   4.412  14.993 -0.2394  0.3833 -0.2378
 2229TIP3    H228179   3.900   4.369  15.137  0.2300  0.1994 -0.3517
 2230TIP3   OH228180   1.351   5.587   0.122 -0.8384  0.2794 -0.6314
 2230TIP3    H128181   1.385   5.507   0.162 -1.3548  0.5489  0.3666
 2230TIP3    H228182   1.424   5.621   0.071 -0.2696 -0.2478 -0.1894
 2231TIP3   OH228183   5.016   1.856  15.334 -0.1976  0.3037 -0.1981
 2231TIP3    H128184   5.085   1.868  15.269 -0.2911  0.0104 -0.3542
 2231TIP3    H228185   4.941   1.904  15.299 -1.0492 -1.8370 -1.5570
 2232TIP3   OH228186   3.285   0.820   1.225  0.0929  0.1792 -0.1874
 2232TIP3    H128187   3.334   0.898   1.251 -1.3507  1.1770 -0.3426
 2232TIP3    H228188   3.352   0.752   1.215  1.4499  1.4963 -0.4865
 2233TIP3   OH228189   5.736   1.878   4.300 -0.1111 -0.3778 -0.1560
 2233TIP3    H128190   5.799   1.910   4.236 -0.1851 -0.4810 -0.2820
 2233TIP3    H228191   5.716   1.954   4.355  0.6799 -0.5248  0.3439
 2234TIP3   OH228192   2.488   2.043   6.228 -0.2796  0.3275  0.2715
 2234TIP3    H128193   2.543   2.119   6.246  1.4565 -0.1382 -2.5107
 2234TIP3    H228194   2.425   2.041   6.301  1.9336  2.2023  2.3981
 2235TIP3   OH228195   2.017   5.249   4.897 -0.0712 -0.0247 -0.3766
 2235TIP3    H128196   1.997   5.246   4.803  0.0650  1.9714 -0.5129
 2235TIP3    H228197   2.085   5.183   4.909 -0.6307 -0.8562 -1.5219
 2236TIP3   OH228198   2.324   1.812   3.450  0.1315 -0.0423  0.0809
 2236TIP3    H128199   2.415   1.840   3.454  0.2734 -0.4401 -0.2113
 2236TIP3    H228200   2.307   1.799   3.357 -0.6171  1.2586  0.0136
 2237TIP3   OH228201   1.859   4.632  13.335  0.0019  0.2062 -0.5790
 2237TIP3    H128202   1.930   4.601  13.279  0.4940  1.2529 -0.5550
 2237TIP3    H228203   1.884   4.606  13.423 -0.3721 -0.7177 -0.7350
 2238TIP3   OH228204   2.171   1.055   2.999 -0.0005  0.1393  0.1211
 2238TIP3    H128205   2.096   1.114   2.997 -0.2975 -0.1545  1.3701
 2238TIP3    H228206   2.147   0.983   2.942 -0.9787 -0.2780  1.0325
 2239TIP3   OH228207   0.658   0.618  16.140  0.1802  0.5541 -0.7476
 2239TIP3    H128208   0.626   0.654  16.058  2.1701  1.6311 -1.1349
 2239TIP3    H228209   0.700   0.693  16.184  0.5744 -0.3557  0.4846
 2240TIP3   OH228210   2.098   3.516  14.906  0.4789 -0.3232 -0.3606
 2240TIP3    H128211   2.075   3.450  14.972 -1.7163 -0.7182 -1.4214
 2240TIP3    H228212   2.171   3.564  14.945 -1.4479  0.2808  2.9479
 2241TIP3   OH228213   6.348   2.843   3.771  0.1942  0.1210  0.3619
 2241TIP3    H128214   6.307   2.921   3.735 -0.7166 -0.0397  1.0191
 2241TIP3    H228215   6.387   2.871   3.853 -0.0137 -0.0753  0.5311
 2242TIP3   OH228216   6.026   3.873   1.915  0.1476 -0.0948  0.5115
 2242TIP3    H128217   6.035   3.964   1.887 -0.1552  0.2498  1.5101
 2242TIP3    H228218   5.933   3.854   1.907  0.0567  0.0090  1.2656
 2243TIP3   OH228219   6.033   0.848  15.132  0.3112 -0.6130  0.1934
 2243TIP3    H128220   6.126   0.855  15.110  0.1281  0.2938 -0.3114
 2243TIP3    H228221   6.031   0.788  15.207  0.9186 -4.1324 -2.3531
 2244TIP3   OH228222   3.391   4.691  11.679 -0.2323  0.1898  0.5815
 2244TIP3    H128223   3.301   4.693  11.646 -0.5764  0.8536  1.4979
 2244TIP3    H228224   3.444   4.668  11.603 -1.1771 -0.2717  0.0370
 2245TIP3   OH228225   2.593   0.873   1.140  0.1429  0.0161 -0.0775
 2245TIP3    H128226   2.659   0.941   1.128  0.2871 -0.3276 -1.3258
 2245TIP3    H228227   2.632   0.812   1.202  1.0546 -0.2448 -0.8935
 2246TIP3   OH228228   3.858   4.945  16.556  0.4620 -0.4776  0.9061
 2246TIP3    H128229   3.784   4.925  16.499 -0.1333 -0.3420  1.6155
 2246TIP3    H228230   3.930   4.966  16.496 -0.3760  0.4883  0.1957
 2247TIP3   OH228231   4.740   3.778  12.384 -0.2703  0.2658  0.3974
 2247TIP3    H128232   4.828   3.759  12.352 -0.7053 -0.0971 -0.6572
 2247TIP3    H228233   4.682   3.733  12.322 -1.2288  1.5268  0.3339
 2248TIP3   OH228234   4.939   0.022   2.306  0.4449 -0.0728 -0.1679
 2248TIP3    H128235   4.849   0.049   2.288  0.4775 -0.8718 -1.7007
 2248TIP3    H228236   4.979   0.098   2.349 -1.1547  0.0003  1.3175
 2249TIP3   OH228237   2.589   6.767  11.925  0.2198 -0.4167  0.3922
 2249TIP3    H128238   2.601   6.809  11.840  2.4742 -0.0249  0.8387
 2249TIP3    H228239   2.568   6.838  11.985 -0.3421 -0.5531  0.3621
 2250TIP3   OH228240   5.889   0.207   3.174 -1.2932  0.4664 -0.2066
 2250TIP3    H128241   5.934   0.178   3.254 -1.5320  0.9365  0.1052
 2250TIP3    H228242   5.812   0.150   3.169 -0.7997 -0.1726 -0.6051
 2251TIP3   OH228243   2.766   5.360   4.961 -0.0891  0.6089  0.3842
 2251TIP3    H128244   2.835   5.377   5.025 -0.4654  1.6883  0.5122
 2251TIP3    H228245   2.689   5.337   5.014  0.1400 -0.5305  0.2446
 2252TIP3   OH228246   4.144   4.579  11.223  0.4218  0.0407  0.4083
 2252TIP3    H128247   4.158   4.630  11.144  4.4689 -1.6698 -0.2496
 2252TIP3    H228248   4.117   4.493  11.191  0.9514 -0.3292  0.9420
 2253TIP3   OH228249   0.097   3.914   1.506  0.1667 -0.2631  0.7800
 2253TIP3    H128250   0.063   3.934   1.419  0.0889  0.5758  0.9918
 2253TIP3    H228251   0.178   3.965   1.512 -0.7782  1.1722  1.8792
 2254TIP3   OH228252   1.847   4.087  11.298 -0.0623  0.0288  0.0243
 2254TIP3    H128253   1.845   3.994  11.275  0.5895 -0.2439  0.9890
 2254TIP3    H228254   1.939   4.106  11.314 -0.1601  0.9126 -0.3936
 2255TIP3   OH228255   3.749   2.972   2.044 -0.6492  0.1923 -0.4794
 2255TIP3    H128256   3.723   2.988   2.134 -0.1122 -0.5458 -0.1856
 2255TIP3    H228257   3.759   3.059   2.005 -0.5196  0.5142  0.2735
 2256TIP3   OH228258   5.136   2.889  15.319  0.0526  0.1534  0.1393
 2256TIP3    H128259   5.216   2.844  15.345 -1.2412 -2.2820  0.2452
 2256TIP3    H228260   5.113   2.943  15.395  0.8341 -0.2543  0.6795
 2257TIP3   OH228261   2.363   3.062  15.939  0.4775  0.1608  0.0124
 2257TIP3    H128262   2.386   2.974  15.969 -3.3127 -2.3507 -3.3814
 2257TIP3    H228263   2.425   3.079  15.868 -0.7277 -1.4484 -1.5351
 2258TIP3   OH228264   0.402   4.380   4.130 -0.0384  0.1186 -0.6143
 2258TIP3    H128265   0.474   4.377   4.068  0.7666  1.6561  0.1806
 2258TIP3    H228266   0.325   4.398   4.077  0.1955 -1.1078 -1.4212
 2259TIP3   OH228267   6.558   4.815  10.545 -0.2124  0.2986  0.1415
 2259TIP3    H128268   6.469   4.808  10.509  0.0319 -0.1333 -0.3956
 2259TIP3    H228269   6.614   4.773  10.479  0.2097 -0.7824  1.1399
 2260TIP3   OH228270   1.173   2.392  15.199 -0.2820 -0.3303 -0.3896
 2260TIP3    H128271   1.183   2.377  15.293 -1.3553  1.1714  0.0214
 2260TIP3    H228272   1.090   2.439  15.191 -1.2597 -2.2092 -2.3197
 2261TIP3   OH228273   4.534   3.944  13.910 -0.4685 -0.1886 -0.7555
 2261TIP3    H128274   4.457   3.914  13.861 -1.5571  2.8502 -1.1397
 2261TIP3    H228275   4.578   4.004  13.849 -0.6985  2.0846  1.1874
 2262TIP3   OH228276   2.652   3.308   6.556 -0.6807  0.0431 -0.3022
 2262TIP3    H128277   2.580   3.306   6.494 -1.1321 -2.5828  0.2132
 2262TIP3    H228278   2.721   3.257   6.514  1.6616  3.7903 -1.5127
 2263TIP3   OH228279   0.806   1.927   5.140  0.0160 -0.0239 -0.4840
 2263TIP3    H128280   0.789   1.874   5.217  0.7277 -1.6412 -1.3940
 2263TIP3    H228281   0.900   1.916   5.123 -0.3517 -0.7054 -2.2693
 2264TIP3   OH228282   2.381   0.684   3.024  0.2167  0.0462  0.2681
 2264TIP3    H128283   2.406   0.638   3.104  0.4851 -0.2342  0.0254
 2264TIP3    H228284   2.295   0.722   3.044  0.6967  0.7761  1.0082
 2265TIP3   OH228285   4.090   3.059   5.148  0.2704  0.5874 -0.0738
 2265TIP3    H128286   4.171   3.017   5.175  0.8427  0.6208 -1.6038
 2265TIP3    H228287   4.106   3.085   5.057 -0.3612  3.3099  0.4896
 2266TIP3   OH228288   4.818   1.204   2.129  0.3261  0.2000  0.0720
 2266TIP3    H128289   4.755   1.259   2.175 -2.2861 -1.7941 -0.8643
 2266TIP3    H228290   4.873   1.265   2.081 -1.7682  2.0646 -0.1206
 2267TIP3   OH228291   2.229   4.877  13.248  0.3373  0.5796 -0.4335
 2267TIP3    H128292   2.171   4.810  13.285  1.2877 -0.4598 -0.7794
 2267TIP3    H228293   2.233   4.945  13.315  0.3133 -0.2760  0.4612
 2268TIP3   OH228294   4.795   4.851  13.144  0.2732 -0.3536 -0.2814
 2268TIP3    H128295   4.701   4.846  13.164  0.2646 -0.3813 -0.3289
 2268TIP3    H228296   4.837   4.792  13.206  0.4082  0.7516  0.7204
 2269TIP3   OH228297   4.605   4.193  14.394  0.1140  0.0806 -0.3297
 2269TIP3    H128298   4.671   4.125  14.405  2.1437  2.0302  0.3049
 2269TIP3    H228299   4.523   4.152  14.422  1.4594 -1.7273  1.1885
 2270TIP3   OH228300   3.528   2.796   1.822  0.3729  0.3242 -0.4163
 2270TIP3    H128301   3.579   2.863   1.868  0.0997  0.1947  0.0766
 2270TIP3    H228302   3.594   2.739   1.783  0.6243  1.4552 -1.7126
 2271TIP3   OH228303   2.974   0.997   5.048 -0.1218  0.0395 -0.3946
 2271TIP3    H128304   2.901   0.964   5.100 -0.4740  0.6056 -0.5163
 2271TIP3    H228305   2.948   1.086   5.024  0.6870  0.3157 -0.2876
 2272TIP3   OH228306   3.113   1.519   2.448  0.1234  0.4863 -0.0047
 2272TIP3    H128307   3.099   1.523   2.353  0.9314  1.3140 -0.1083
 2272TIP3    H228308   3.043   1.462   2.481 -0.1903  0.2281 -1.0898
 2273TIP3   OH228309   4.286   2.386   4.764  0.2490 -0.2722 -0.7305
 2273TIP3    H128310   4.258   2.475   4.741 -2.6423 -0.3330  1.7794
 2273TIP3    H228311   4.207   2.333   4.753  1.4849 -2.2212 -0.6733
 2274TIP3   OH228312   3.071   5.317   3.036 -0.1547 -0.0608  0.3505
 2274TIP3    H128313   3.029   5.294   3.119 -0.8222 -0.2669 -0.0427
 2274TIP3    H228314   3.045   5.408   3.021 -1.0166 -0.3848 -0.2153
 2275TIP3   OH228315   0.177   3.949   5.294  0.5838 -0.3621 -0.2147
 2275TIP3    H128316   0.259   3.950   5.245  0.8235  1.1198  0.1839
 2275TIP3    H228317   0.115   3.903   5.236  1.1030  0.5291 -1.5026
 2276TIP3   OH228318   5.239   1.605   2.042 -0.2710 -0.2761  0.3464
 2276TIP3    H128319   5.154   1.591   2.001 -0.3261  1.2971 -0.1316
 2276TIP3    H228320   5.220   1.655   2.121  0.3395  2.2913 -1.0011
 2277TIP3   OH228321   1.313   1.558   2.249  0.1692 -0.0222 -0.0999
 2277TIP3    H128322   1.295   1.649   2.273  0.0059  0.3907 -1.6924
 2277TIP3    H228323   1.380   1.564   2.181 -0.5626 -1.0161 -0.9385
 2278TIP3   OH228324   1.490   0.591  16.052  0.5151  0.6908  0.0204
 2278TIP3    H128325   1.450   0.665  16.006 -0.4886  0.9356  1.2306
 2278TIP3    H228326   1.483   0.518  15.990 -2.9871  0.3940  0.5475
 2279TIP3   OH228327   4.148   3.771  13.756  0.0792  0.3417  0.4223
 2279TIP3    H128328   4.090   3.695  13.757  0.5544 -0.0180  1.0632
 2279TIP3    H228329   4.149   3.802  13.846 -2.2130  2.7642 -0.2380
 2280TIP3   OH228330   5.387   4.456  12.174 -0.0004 -0.5832 -0.7241
 2280TIP3    H128331   5.339   4.405  12.238  1.1809 -0.1756  0.5276
 2280TIP3    H228332   5.326   4.524  12.146 -0.6601 -1.0251 -0.3621
 2281TIP3   OH228333   2.238   2.770   5.963  0.2033  0.4132  0.4693
 2281TIP3    H128334   2.248   2.858   5.928  0.9172  0.1554  0.0053
 2281TIP3    H228335   2.240   2.781   6.058  0.9823  0.8180  0.4060
 2282TIP3   OH228336   2.769   3.065  12.459  0.4633  0.3871  0.1278
 2282TIP3    H128337   2.805   3.136  12.405 -1.1574 -0.2982 -2.0255
 2282TIP3    H228338   2.677   3.089  12.472  0.9508  0.9280  3.4576
 2283TIP3   OH228339   3.721   3.966  15.858  0.1803  0.5283  0.0443
 2283TIP3    H128340   3.725   3.918  15.775 -0.0081 -0.5650  0.6479
 2283TIP3    H228341   3.756   3.905  15.922  0.2103  1.3202  0.7990
 2284TIP3   OH228342   5.016   6.582  11.526 -0.0240  0.0421 -0.3981
 2284TIP3    H128343   4.989   6.654  11.583 -0.6424  0.3818 -1.1078
 2284TIP3    H228344   4.991   6.610  11.438  0.7990 -0.5320 -0.8316
 2285TIP3   OH228345   1.609   4.948   1.463 -0.1967  0.1289 -0.2430
 2285TIP3    H128346   1.649   5.035   1.473  1.6291 -0.6493 -0.3902
 2285TIP3    H228347   1.658   4.892   1.524 -1.9635 -0.6310  0.5408
 2286TIP3   OH228348   1.704   6.756   2.412 -0.2961  0.1920  0.3551
 2286TIP3    H128349   1.623   6.725   2.452  1.2711 -1.3707  2.4970
 2286TIP3    H228350   1.765   6.766   2.485  1.9264 -0.1975 -1.3385
 2287TIP3   OH228351   6.017   1.531   4.406  0.4533  0.3345  0.0049
 2287TIP3    H128352   5.993   1.502   4.494  0.0303 -0.0329 -0.2256
 2287TIP3    H228353   5.948   1.496   4.349  0.8553  0.3479 -0.5058
 2288TIP3   OH228354   5.989   1.549   0.833  0.3393  0.1883 -0.2159
 2288TIP3    H128355   6.081   1.546   0.809  1.1255  0.0177  2.5201
 2288TIP3    H228356   5.977   1.474   0.891 -2.1734 -1.2520 -2.3844
 2289TIP3   OH228357   5.829   6.186   3.336 -0.1649 -0.0763  0.2042
 2289TIP3    H128358   5.900   6.144   3.289  0.4330 -0.6576  1.5619
 2289TIP3    H228359   5.823   6.138   3.419 -2.3387 -0.2299  0.0224
 2290TIP3   OH228360   0.471   1.125   4.604  0.4069 -0.3243  0.3517
 2290TIP3    H128361   0.540   1.090   4.548  0.4715 -0.4658  0.5165
 2290TIP3    H228362   0.391   1.081   4.575  0.4528 -0.4529  0.4194
 2291TIP3   OH228363   6.177   2.610   5.299  0.2603 -0.5112  0.0882
 2291TIP3    H128364   6.230   2.638   5.224  1.1375 -0.6201  0.6419
 2291TIP3    H228365   6.239   2.611   5.373 -1.1337  2.0949  1.3493
 2292TIP3   OH228366   6.220   2.911   2.687 -0.1047  0.2751 -0.1353
 2292TIP3    H128367   6.315   2.913   2.672 -0.0173  0.5923  0.4069
 2292TIP3    H228368   6.187   2.848   2.624  0.2896  1.2032 -1.3266
 2293TIP3   OH228369   3.867   5.753  11.541  0.0175  0.5319 -0.2390
 2293TIP3    H128370   3.926   5.789  11.607 -1.2784 -0.0338  1.3035
 2293TIP3    H228371   3.818   5.685  11.587 -0.4252 -0.4141 -1.9985
 2294TIP3   OH228372   2.760   5.196   2.817 -0.3423 -0.0269 -0.0133
 2294TIP3    H128373   2.665   5.212   2.815 -0.3879 -0.3294 -0.8190
 2294TIP3    H228374   2.772   5.119   2.762  0.6593  1.5837 -2.1828
 2295TIP3   OH228375   2.449   0.400  10.421  0.4323 -0.1078 -0.0201
 2295TIP3    H128376   2.412   0.388  10.334 -0.4067 -3.8382  0.6853
 2295TIP3    H228377   2.373   0.403  10.480  1.0397  0.7191  0.7575
 2296TIP3   OH228378   5.696   1.376  14.751 -0.0567 -0.0724 -0.2406
 2296TIP3    H128379   5.764   1.443  14.754  1.2446 -1.2342 -1.9752
 2296TIP3    H228380   5.701   1.333  14.836  0.5545  0.6273  0.0832
 2297TIP3   OH228381   3.619   2.463   2.904  0.0007  0.8298  0.4048
 2297TIP3    H128382   3.672   2.441   2.980  0.1933 -1.1726 -0.2373
 2297TIP3    H228383   3.562   2.534   2.934  1.7900  1.8335  1.6225
 2298TIP3   OH228384   1.722   1.905   5.075 -0.1358  0.2358 -0.3625
 2298TIP3    H128385   1.710   1.917   5.169 -0.9951  0.0828 -0.4455
 2298TIP3    H228386   1.816   1.915   5.062 -0.1223  1.2330  0.3750
 2299TIP3   OH228387   0.224   2.756  16.401 -0.8350 -0.2630 -0.2545
 2299TIP3    H128388   0.236   2.826  16.337 -1.5303 -0.3697 -0.5151
 2299TIP3    H228389   0.238   2.799  16.485 -1.2588  0.2004 -0.4115
 2300TIP3   OH228390   3.476   2.417   5.376 -0.2744  0.3083  0.0119
 2300TIP3    H128391   3.554   2.376   5.339 -0.8760  0.1305 -1.1048
 2300TIP3    H228392   3.457   2.365   5.455  3.2433  3.0054  2.9920
 2301TIP3   OH228393   3.813   3.813  14.035 -0.1745  0.2581  0.6234
 2301TIP3    H128394   3.719   3.827  14.027 -0.4684 -1.2681  1.0263
 2301TIP3    H228395   3.845   3.813  13.945 -0.7106 -0.1525  0.4292
 2302TIP3   OH228396   3.734   5.273  14.745 -0.1621  0.1980 -0.0330
 2302TIP3    H128397   3.801   5.205  14.744 -0.8495 -0.4906  0.0537
 2302TIP3    H228398   3.656   5.231  14.709 -1.1032  0.4227  1.6537
 2303TIP3   OH228399   1.439   0.220   4.146 -0.1603 -0.7756  0.3641
 2303TIP3    H128400   1.524   0.252   4.114 -0.4901 -0.5633 -0.3170
 2303TIP3    H228401   1.376   0.285   4.116 -0.7801 -1.7845 -0.5861
 2304TIP3   OH228402   2.724   4.550  16.858 -0.3883  0.5265  0.0553
 2304TIP3    H128403   2.672   4.630  16.859 -1.1292  0.0545  1.3253
 2304TIP3    H228404   2.660   4.479  16.866  0.2729 -0.1881 -0.8134
 2305TIP3   OH228405   2.123   0.086   0.539  0.3802 -0.1710 -1.1169
 2305TIP3    H128406   2.121   0.071   0.444  1.2796  0.1177 -1.1892
 2305TIP3    H228407   2.167   0.008   0.574 -1.2503 -0.9744 -0.7712
 2306TIP3   OH228408   4.485   6.300   6.149 -0.0765 -0.0507  0.4836
 2306TIP3    H128409   4.568   6.328   6.111  0.3190 -2.6507 -0.7709
 2306TIP3    H228410   4.451   6.379   6.192  1.7960  1.7572 -1.1078
 2307TIP3   OH228411   0.523   4.637   5.177 -0.2645  0.8473 -0.3830
 2307TIP3    H128412   0.574   4.624   5.257  0.2068  0.8178 -0.6840
 2307TIP3    H228413   0.452   4.572   5.183 -0.6298  1.2984  0.3261
 2308TIP3   OH228414   2.402   1.180  15.159 -0.5757 -0.1565 -0.3652
 2308TIP3    H128415   2.343   1.104  15.162 -1.1668  0.3134  1.8936
 2308TIP3    H228416   2.364   1.243  15.220 -0.3228  2.1950 -2.4667
 2309TIP3   OH228417   0.193   2.074  13.294  0.0124  0.1067 -0.4382
 2309TIP3    H128418   0.124   2.111  13.240 -0.1792 -1.8106 -1.6112
 2309TIP3    H228419   0.162   2.085  13.384 -0.5782  1.6017 -0.7967
 2310TIP3   OH228420   3.902   2.986   5.313 -0.9204 -0.2594  0.2768
 2310TIP3    H128421   3.814   2.994   5.276 -0.2886 -2.2131 -1.9278
 2310TIP3    H228422   3.959   3.029   5.249 -0.2116  0.8904  1.6224
 2311TIP3   OH228423   1.707   1.890   3.612 -0.1272 -0.5218  0.1766
 2311TIP3    H128424   1.660   1.811   3.639 -0.2888 -0.3368  0.4417
 2311TIP3    H228425   1.641   1.959   3.611  0.2849 -0.0771  1.3682
 2312TIP3   OH228426   4.591   4.549   4.589  0.1978 -0.6054 -0.3303
 2312TIP3    H128427   4.511   4.590   4.620 -0.9383 -1.8699 -1.4197
 2312TIP3    H228428   4.609   4.479   4.652  1.4477  0.7393  0.8578
 2313TIP3   OH228429   5.603   5.030   5.796 -0.3412  0.2900  0.3893
 2313TIP3    H128430   5.584   5.072   5.713 -0.9937  1.2910  1.0270
 2313TIP3    H228431   5.687   4.985   5.782  0.5669  2.0847 -0.2056
 2314TIP3   OH228432   1.507   2.083   2.121 -0.1909 -0.0914  0.1490
 2314TIP3    H128433   1.443   2.130   2.067  0.6611  1.1085  0.1395
 2314TIP3    H228434   1.590   2.092   2.074  0.0220 -1.5403  0.2163
 2315TIP3   OH228435   5.646   2.070  15.944 -0.0960 -0.3138  0.0037
 2315TIP3    H128436   5.735   2.102  15.926 -0.0982  0.6691  1.5687
 2315TIP3    H228437   5.592   2.109  15.876  0.5436 -0.2762 -0.4901
 2316TIP3   OH228438   3.427   1.656   5.100  0.1976  0.1933  0.4756
 2316TIP3    H128439   3.423   1.648   5.196 -0.7594  0.2818  0.4515
 2316TIP3    H228440   3.458   1.745   5.085 -0.9994  0.6700  0.7172
 2317TIP3   OH228441   2.483   5.831   4.479  0.0656 -0.3443  0.6478
 2317TIP3    H128442   2.467   5.925   4.486  2.0745  0.1408 -0.5443
 2317TIP3    H228443   2.488   5.800   4.570  0.4011  0.8928  1.0662
 2318TIP3   OH228444   4.484   4.291   2.005  0.3364 -0.1237  0.9373
 2318TIP3    H128445   4.405   4.305   2.058  0.2041 -0.4876  0.8392
 2318TIP3    H228446   4.478   4.356   1.935 -1.0461 -1.6094 -0.3980
 2319TIP3   OH228447   4.982   5.638   4.366 -0.3584  0.3124  0.3016
 2319TIP3    H128448   4.932   5.719   4.371  0.2492  0.8708 -1.5773
 2319TIP3    H228449   4.918   5.570   4.348 -0.7400  0.5670  0.6963
 2320TIP3   OH228450   4.876   1.747   2.760  0.2024 -0.0126 -0.1598
 2320TIP3    H128451   4.829   1.778   2.683  0.6560  3.1471  0.6828
 2320TIP3    H228452   4.810   1.747   2.830  0.3656 -0.4090 -0.0016
 2321TIP3   OH228453   2.494   1.760  15.809 -0.1663 -0.1233 -0.4029
 2321TIP3    H128454   2.558   1.694  15.838 -0.0529 -0.0713 -0.5339
 2321TIP3    H228455   2.410   1.725  15.839 -0.0169  0.1068  0.3086
 2322TIP3   OH228456   5.764   1.434  13.186 -0.2638 -0.5426  0.2668
 2322TIP3    H128457   5.767   1.529  13.201  2.3018 -0.1311 -1.9071
 2322TIP3    H228458   5.721   1.425  13.101 -0.8321 -1.3731  0.6369
 2323TIP3   OH228459   0.479   0.983  16.258 -0.1599 -0.1197 -0.5287
 2323TIP3    H128460   0.483   1.026  16.172  0.2122 -1.5995 -1.2851
 2323TIP3    H228461   0.386   0.980  16.279 -0.1431  2.1874  0.1825
 2324TIP3   OH228462   5.872   1.548  16.390 -0.1202  0.2002  0.3385
 2324TIP3    H128463   5.779   1.527  16.382 -0.1813  0.1162  1.1645
 2324TIP3    H228464   5.911   1.513  16.310 -1.0556  1.8215 -0.8827
 2325TIP3   OH228465   3.899   0.248   0.336  0.0855 -0.7011  0.2880
 2325TIP3    H128466   3.814   0.293   0.340  0.0495 -0.5442 -1.4862
 2325TIP3    H228467   3.958   0.304   0.386 -0.5522 -0.0810  0.3623
 2326TIP3   OH228468   1.804   5.941  15.787 -0.0305  0.0622 -0.2717
 2326TIP3    H128469   1.803   5.936  15.883  0.2247  1.1528 -0.1965
 2326TIP3    H228470   1.857   5.867  15.759  0.2649 -0.0047  0.4565
 2327TIP3   OH228471   0.675   6.421   1.124 -0.1230 -0.2351 -0.0508
 2327TIP3    H128472   0.716   6.440   1.040 -0.2527  0.1817 -0.0209
 2327TIP3    H228473   0.709   6.487   1.184  0.1494 -0.6726  0.2859
 2328TIP3   OH228474   2.512   4.130  14.075 -0.0403 -0.4720  0.1854
 2328TIP3    H128475   2.508   4.219  14.109 -0.3734  0.0126 -1.0676
 2328TIP3    H228476   2.596   4.125  14.029  0.3966 -1.1152  0.9988
 2329TIP3   OH228477   3.740   6.609  16.355 -0.2643  0.0055 -0.4576
 2329TIP3    H128478   3.646   6.593  16.365 -0.0619 -2.1400 -1.3959
 2329TIP3    H228479   3.756   6.688  16.406 -2.3172 -0.3570  0.8799
 2330TIP3   OH228480   6.699   6.779   5.172 -0.2214 -0.0026  0.2889
 2330TIP3    H128481   6.625   6.837   5.190 -2.8386 -3.4566  2.0523
 2330TIP3    H228482   6.747   6.776   5.255  0.2721  0.1211  0.0095
 2331TIP3   OH228483   4.878   2.212  17.056  0.5420  0.0341  0.4251
 2331TIP3    H128484   4.916   2.137  17.010  1.1054  1.9113 -2.3674
 2331TIP3    H228485   4.950   2.248  17.108  0.5902 -0.6257  0.8274
 2332TIP3   OH228486   6.445   0.354   2.301 -0.2490  0.0546  0.6394
 2332TIP3    H128487   6.402   0.269   2.302  0.2870 -0.2548 -0.8912
 2332TIP3    H228488   6.395   0.406   2.239  1.1260 -0.0983 -0.6476
 2333TIP3   OH228489   1.410   2.710   6.552 -0.4467 -0.1186  0.0339
 2333TIP3    H128490   1.388   2.755   6.470  1.3808 -0.7082 -0.8424
 2333TIP3    H228491   1.476   2.646   6.526 -1.4740 -1.9015  1.6009
 2334TIP3   OH228492   5.149   2.110  16.953 -0.0970  0.4661 -0.1490
 2334TIP3    H128493   5.196   2.127  17.035  0.9850 -1.3886 -0.3177
 2334TIP3    H228494   5.218   2.100  16.888 -0.9524  2.3432 -1.4413
 2335TIP3   OH228495   0.370   4.418   5.089 -0.2882 -0.1872 -0.1250
 2335TIP3    H128496   0.462   4.393   5.098 -0.4592 -0.6583  0.3564
 2335TIP3    H228497   0.343   4.381   5.005 -0.3554 -1.0646  0.2756
 2336TIP3   OH228498   6.759   6.144   2.228  0.3349 -0.2169 -0.0236
 2336TIP3    H128499   6.841   6.109   2.192  0.7932  0.5154  0.2827
 2336TIP3    H228500   6.715   6.183   2.153  0.3050 -0.5413 -0.1749
 2337TIP3   OH228501   1.769   2.104   0.836  0.3297 -0.1227 -0.5268
 2337TIP3    H128502   1.803   2.038   0.897  0.7677  1.9434  1.6125
 2337TIP3    H228503   1.838   2.114   0.771  0.6021 -1.1814 -0.4182
 2338TIP3   OH228504   3.592   2.914   1.522  0.4075  0.3073 -0.4239
 2338TIP3    H128505   3.565   2.878   1.438 -0.9432  0.7992 -0.2121
 2338TIP3    H228506   3.688   2.905   1.521  0.3429 -0.5628 -1.5977
 2339TIP3   OH228507   4.470   0.922  13.990  0.1264  0.2131  0.1852
 2339TIP3    H128508   4.526   0.859  13.944 -0.7532 -0.6455  0.2687
 2339TIP3    H228509   4.514   0.935  14.075  0.7893  0.4233 -0.1774
 2340TIP3   OH228510   0.596   0.981   0.838 -0.2261  0.2477  0.4280
 2340TIP3    H128511   0.629   0.898   0.805  2.0104  2.1563 -2.7738
 2340TIP3    H228512   0.663   1.010   0.900 -0.4730  0.1057  0.7588
 2341TIP3   OH228513   2.795   2.567   0.708  0.3306 -0.3777  0.2960
 2341TIP3    H128514   2.716   2.550   0.656 -0.4914  0.8421  1.0928
 2341TIP3    H228515   2.770   2.638   0.767  1.8150 -0.4668  1.0756
 2342TIP3   OH228516   4.730   5.062   2.298 -0.0560  0.1330  0.1877
 2342TIP3    H128517   4.638   5.079   2.318 -0.2547 -1.3287  0.5780
 2342TIP3    H228518   4.735   4.968   2.281  1.3024  0.2500 -0.2059
 2343TIP3   OH228519   2.774   4.245   5.285 -0.1195 -0.0857 -0.1288
 2343TIP3    H128520   2.811   4.198   5.360 -1.8874  0.9830  1.4910
 2343TIP3    H228521   2.697   4.290   5.320  1.1180  3.6070 -1.6594
 2344TIP3   OH228522   3.174   4.892   4.386 -0.3710 -0.4697 -0.0883
 2344TIP3    H128523   3.107   4.849   4.333 -0.6474 -1.0899  0.7451
 2344TIP3    H228524   3.238   4.923   4.322 -1.3161 -0.0801 -0.8868
 2345TIP3   OH228525   4.663   1.103  14.990  0.1290 -0.2473  0.0873
 2345TIP3    H128526   4.664   1.053  15.071 -0.3289 -0.7022 -0.1785
 2345TIP3    H228527   4.586   1.071  14.943  0.0021  0.4830 -0.2318
 2346TIP3   OH228528   1.261   4.784  15.053 -0.3903 -0.3651  0.3863
 2346TIP3    H128529   1.356   4.792  15.048 -0.5919  2.7306 -0.2434
 2346TIP3    H228530   1.245   4.689  15.054  2.5783 -1.0305 -1.5474
 2347TIP3   OH228531   5.657   6.312  12.284  0.6240  0.0062  0.0677
 2347TIP3    H128532   5.640   6.234  12.337  0.4825  0.3736  0.5678
 2347TIP3    H228533   5.611   6.295  12.202 -0.2885  0.0178  0.5687
 2348TIP3   OH228534   5.403   2.946  10.579 -0.4892 -0.5198 -0.4597
 2348TIP3    H128535   5.430   2.940  10.670  0.5002  0.0545 -0.6917
 2348TIP3    H228536   5.326   2.890  10.572 -0.1403 -1.1494  0.5561
 2349TIP3   OH228537   4.068   6.138  14.028  0.2796 -0.7092 -0.1357
 2349TIP3    H128538   3.990   6.087  14.051 -0.8123  1.1341  0.4733
 2349TIP3    H228539   4.096   6.102  13.943 -1.9245 -0.7104 -0.9333
 2350TIP3   OH228540   3.853   1.872   1.796  0.2078  0.2675 -0.3592
 2350TIP3    H128541   3.874   1.828   1.878  0.8340 -0.1717 -0.7440
 2350TIP3    H228542   3.791   1.813   1.752 -1.4619  1.2830  0.5117
 2351TIP3   OH228543   4.531   3.181   3.745 -0.2664  0.0965  0.4879
 2351TIP3    H128544   4.447   3.213   3.779 -0.5742  1.4011 -1.3355
 2351TIP3    H228545   4.507   3.119   3.675  0.2343  1.0429 -0.5568
 2352TIP3   OH228546   0.425   3.670   1.597  0.2431  0.3607  0.2367
 2352TIP3    H128547   0.424   3.593   1.540 -0.0827  0.2798  0.3498
 2352TIP3    H228548   0.512   3.709   1.583  0.0643  0.5047 -0.5425
 2353TIP3   OH228549   6.042   3.078   4.957  0.0282  0.5745  0.1499
 2353TIP3    H128550   6.093   3.146   4.912 -0.2462  2.5915  2.6161
 2353TIP3    H228551   5.952   3.092   4.926  0.2440  0.0596 -0.7460
 2354TIP3   OH228552   4.276   5.871   5.817 -0.5913 -0.0352 -0.2329
 2354TIP3    H128553   4.264   5.956   5.775  0.1534  0.1188 -0.1534
 2354TIP3    H228554   4.293   5.893   5.909  0.0106 -0.2395 -0.2898
 2355TIP3   OH228555   5.253   4.057  14.149  0.2726 -0.0103 -0.6639
 2355TIP3    H128556   5.173   4.016  14.117  0.6508  0.2395 -2.0061
 2355TIP3    H228557   5.294   3.991  14.204 -0.5391 -0.3679 -0.4794
 2356TIP3   OH228558   5.535   1.426  12.684  0.2607  0.0710  0.5397
 2356TIP3    H128559   5.490   1.475  12.753 -0.8477 -0.5677  0.2833
 2356TIP3    H228560   5.619   1.472  12.674 -0.9356  2.2640 -0.0888
 2357TIP3   OH228561   5.338   6.682   1.054  0.6923 -0.7574  0.0682
 2357TIP3    H128562   5.304   6.637   0.978 -2.2292  1.1766  0.0635
 2357TIP3    H228563   5.341   6.615   1.123  1.0290 -1.9682 -1.0956
 2358TIP3   OH228564   1.276   5.183  15.958 -0.7038  0.5439 -0.0807
 2358TIP3    H128565   1.346   5.153  16.016  0.3321  3.1037  0.1423
 2358TIP3    H228566   1.195   5.171  16.009 -0.0312  0.7627  1.0631
 2359TIP3   OH228567   1.636   2.263  11.057  0.0004 -0.0431  0.1395
 2359TIP3    H128568   1.595   2.325  11.117 -0.8759 -1.3211  0.9058
 2359TIP3    H228569   1.727   2.291  11.051  0.8864 -1.3602  4.2046
 2360TIP3   OH228570   2.158   2.051  13.129 -0.1690 -0.3457 -0.3440
 2360TIP3    H128571   2.191   2.083  13.045  0.8579 -1.5718 -0.4411
 2360TIP3    H228572   2.076   2.099  13.143  0.5210  1.1423 -1.1940
 2361TIP3   OH228573   2.553   2.516   2.613  0.2942 -0.5642  0.3923
 2361TIP3    H128574   2.523   2.463   2.687 -0.2326  1.1569  1.4610
 2361TIP3    H228575   2.617   2.577   2.651 -0.7896  1.0884 -0.3032
 2362TIP3   OH228576   5.399   3.360   3.083 -0.1907 -0.4312 -0.2483
 2362TIP3    H128577   5.320   3.380   3.133  1.2981  1.6084  1.4518
 2362TIP3    H228578   5.470   3.359   3.147  1.4078 -0.7442 -1.9074
 2363TIP3   OH228579   2.158   4.317   0.427  0.1620 -0.6383  0.0786
 2363TIP3    H128580   2.249   4.303   0.453  1.0260  1.2878 -1.5996
 2363TIP3    H228581   2.147   4.263   0.348  1.1118  1.8368 -1.8953
 2364TIP3   OH228582   3.372   1.392   0.345 -0.5935 -0.5412 -0.0085
 2364TIP3    H128583   3.292   1.341   0.338 -0.0383 -1.6225  0.9632
 2364TIP3    H228584   3.438   1.340   0.298 -0.1435 -0.4467  0.5010
 2365TIP3   OH228585   0.812   4.114   3.708 -0.0755 -0.6269 -0.4396
 2365TIP3    H128586   0.887   4.171   3.692  0.9366 -1.6646  0.3931
 2365TIP3    H228587   0.851   4.032   3.740 -1.5750 -1.1586  0.1164
 2366TIP3   OH228588   2.380   5.964   0.589 -0.2081  0.1062 -0.0370
 2366TIP3    H128589   2.320   5.955   0.663 -0.9936 -1.2933 -0.7974
 2366TIP3    H228590   2.369   6.055   0.561  1.2327  1.1605  2.4416
 2367TIP3   OH228591   0.720   1.011   2.264  0.4772 -0.3567  0.4853
 2367TIP3    H128592   0.681   1.064   2.195  0.1165 -0.2271  0.7790
 2367TIP3    H228593   0.799   0.974   2.226  0.7427  0.4089  0.2764
 2368TIP3   OH228594   5.840   5.407   2.228  0.0042 -0.8143  0.3022
 2368TIP3    H128595   5.779   5.397   2.155  0.6003  1.2497 -0.5940
 2368TIP3    H228596   5.795   5.463   2.290  0.4475 -0.4033  0.2670
 2369TIP3   OH228597   5.956   0.105   4.414  0.2440  0.2777  0.5003
 2369TIP3    H128598   5.933   0.136   4.502 -1.0487  0.6248  0.0625
 2369TIP3    H228599   5.946   0.010   4.419  2.2568  0.0558  1.2896
 2370TIP3   OH228600   0.564   5.559  11.841 -0.2298  0.1750 -0.2753
 2370TIP3    H128601   0.644   5.590  11.797 -0.1508  0.2305 -0.0913
 2370TIP3    H228602   0.512   5.638  11.855 -0.1873  0.1773 -0.1306
 2371TIP3   OH228603   4.426   2.705  14.107 -0.0488  0.0728  0.2128
 2371TIP3    H128604   4.386   2.778  14.059 -2.0968 -1.0198  0.1301
 2371TIP3    H228605   4.357   2.638  14.109  1.7781 -1.8949  0.1997
 2372TIP3   OH228606   0.202   6.639   5.254 -0.6929  0.0411  0.3439
 2372TIP3    H128607   0.150   6.696   5.311 -2.0994  0.1189 -0.9451
 2372TIP3    H228608   0.165   6.552   5.268  1.9623 -0.8594  2.9089
 2373TIP3   OH228609   1.977   2.722  11.533  0.4076  0.5863  0.5846
 2373TIP3    H128610   2.038   2.782  11.576  0.0032  1.4412 -0.0017
 2373TIP3    H228611   2.026   2.640  11.524  0.2499  0.1121  3.3313
 2374TIP3   OH228612   1.958   4.835  11.617 -0.4652 -0.2537 -0.0793
 2374TIP3    H128613   1.948   4.867  11.528 -0.8573 -1.0812 -0.3446
 2374TIP3    H228614   1.873   4.794  11.638  0.4330 -2.3649 -0.2839
 2375TIP3   OH228615   4.026   4.075   6.139  0.2022  0.5651 -0.0100
 2375TIP3    H128616   3.934   4.097   6.153  0.6427  2.8174 -0.3161
 2375TIP3    H228617   4.074   4.150   6.172  1.7906  0.8189 -2.5887
 2376TIP3   OH228618   0.945   1.483   1.881 -0.1885 -0.3244  0.2790
 2376TIP3    H128619   0.981   1.405   1.839 -1.7139 -1.3255  0.7758
 2376TIP3    H228620   0.900   1.530   1.811 -1.4175 -1.2054  0.4555
 2377TIP3   OH228621   1.134   5.734   2.063  0.1858  0.2124 -0.1655
 2377TIP3    H128622   1.161   5.725   2.154 -0.5343  2.6894  0.3782
 2377TIP3    H228623   1.038   5.725   2.065  0.1920 -0.0131 -0.7251
 2378TIP3   OH228624   1.140   2.695  14.888  0.3117 -0.1490 -0.5551
 2378TIP3    H128625   1.230   2.678  14.915  0.4558  0.8269 -0.3760
 2378TIP3    H228626   1.119   2.624  14.828  1.0797 -0.5791 -0.3321
 2379TIP3   OH228627   1.875   6.407   4.551 -0.0142  0.2080  0.1142
 2379TIP3    H128628   1.887   6.322   4.594 -1.2654  0.7466  1.6357
 2379TIP3    H228629   1.832   6.461   4.617  1.5179  2.3176 -0.5104
 2380TIP3   OH228630   3.528   4.909  14.214  0.1134 -0.3163  0.1943
 2380TIP3    H128631   3.573   4.967  14.275 -0.6626 -0.6063  1.0693
 2380TIP3    H228632   3.544   4.948  14.128  3.7879 -1.5325  0.1674
 2381TIP3   OH228633   2.763   6.625  11.159  0.0532  0.1471  0.5249
 2381TIP3    H128634   2.731   6.649  11.073  1.2146 -0.8921 -0.2478
 2381TIP3    H228635   2.690   6.578  11.200 -0.6480  1.0136  0.2962
 2382TIP3   OH228636   2.342   6.283   0.965  0.5596 -0.1655 -0.1009
 2382TIP3    H128637   2.328   6.215   1.031 -0.9454  0.3875  0.1888
 2382TIP3    H228638   2.434   6.308   0.975  0.7634 -1.1762  0.7207
 2383TIP3   OH228639   6.697   0.281   0.321  0.3157 -0.4640 -0.2758
 2383TIP3    H128640   6.702   0.211   0.386  2.3974 -0.2093 -0.0844
 2383TIP3    H228641   6.751   0.249   0.249  1.3163  0.9401 -0.1757
 2384TIP3   OH228642   3.568   0.248  15.319  0.2491 -0.0462  0.3646
 2384TIP3    H128643   3.528   0.162  15.310 -0.5583  0.4207 -0.7552
 2384TIP3    H228644   3.610   0.264  15.234 -0.0313  0.8611  0.3872
 2385TIP3   OH228645   2.180   4.657   2.201  0.4019  0.1499 -0.1292
 2385TIP3    H128646   2.117   4.698   2.261  0.9115  0.9568 -0.1284
 2385TIP3    H228647   2.238   4.728   2.176  2.1407 -0.8428  0.8962
 2386TIP3   OH228648   2.153   3.062   4.250  0.1503 -0.4374 -1.2114
 2386TIP3    H128649   2.180   2.979   4.208  1.2582 -0.1188 -1.1611
 2386TIP3    H228650   2.222   3.124   4.226 -0.6916  0.4911 -1.2795
 2387TIP3   OH228651   3.455   2.665  15.127  0.3835 -0.6281  0.6952
 2387TIP3    H128652   3.446   2.618  15.044  1.1582  0.7597 -0.1945
 2387TIP3    H228653   3.365   2.671  15.161  0.0929 -1.4013  0.0920
 2388TIP3   OH228654   5.137   3.468  11.961 -0.4377 -0.1801 -0.7873
 2388TIP3    H128655   5.167   3.484  11.872 -0.3284 -0.9350 -0.8942
 2388TIP3    H228656   5.217   3.465  12.014 -0.5682  1.6643 -0.3994
 2389TIP3   OH228657   0.752   1.872   2.106 -0.3123  0.1093 -0.6967
 2389TIP3    H128658   0.760   1.806   2.037  1.0667  0.2111 -0.6565
 2389TIP3    H228659   0.835   1.921   2.102 -0.1143 -0.0186  1.1785
 2390TIP3   OH228660   0.157   6.783  12.320  0.0345 -0.0854 -0.6093
 2390TIP3    H128661   0.092   6.750  12.258 -0.0876 -1.7762  0.3637
 2390TIP3    H228662   0.108   6.841  12.379 -0.7963 -1.9019  0.5556
 2391TIP3   OH228663   2.972   6.542  11.476 -0.1426 -0.1489  0.0139
 2391TIP3    H128664   3.063   6.523  11.453  0.3625 -0.6982  2.2126
 2391TIP3    H228665   2.930   6.456  11.484 -0.8828  0.0986 -1.0034
 2392TIP3   OH228666   2.321   4.213  16.962 -0.5433  0.6465 -0.0912
 2392TIP3    H128667   2.329   4.145  17.029  0.3718  0.7144 -0.1187
 2392TIP3    H228668   2.252   4.270  16.995 -1.2166 -0.2062  0.0051
 2393TIP3   OH228669   5.977   1.865  13.665  0.0918 -0.4315  0.8801
 2393TIP3    H128670   5.913   1.936  13.661  0.4581 -0.1191  0.5736
 2393TIP3    H228671   5.951   1.814  13.742 -0.9812 -0.7443  0.3334
 2394TIP3   OH228672   5.907   3.996  15.741 -0.1387  0.7932 -0.5412
 2394TIP3    H128673   5.921   3.972  15.833 -1.2441  0.2441 -0.5097
 2394TIP3    H228674   5.900   3.912  15.695 -2.0796  1.0199 -0.7303
 2395TIP3   OH228675   6.070   0.322   4.169 -0.0249  0.2441 -0.3159
 2395TIP3    H128676   5.978   0.332   4.194  0.2190 -0.2834  0.8378
 2395TIP3    H228677   6.087   0.229   4.177  0.9640  0.5041  0.8020
 2396TIP3   OH228678   3.347   2.355   1.152 -0.3073 -0.2157  0.0238
 2396TIP3    H128679   3.390   2.273   1.126  0.7027  0.2672  0.1627
 2396TIP3    H228680   3.279   2.368   1.085  0.3350 -0.5226 -0.7012
 2397TIP3   OH228681   1.973   3.123   4.008 -0.1734 -0.0080 -0.4868
 2397TIP3    H128682   2.059   3.090   4.033 -0.4055  0.3463  0.8344
 2397TIP3    H228683   1.928   3.140   4.091 -1.6924 -0.6298 -1.1347
 2398TIP3   OH228684   6.307   4.256   0.081 -0.2534  0.0265 -0.0150
 2398TIP3    H128685   6.356   4.261   0.163 -1.6209  0.0202  0.8116
 2398TIP3    H228686   6.215   4.254   0.106 -0.6889 -0.7862 -1.5109
 2399TIP3   OH228687   1.933   0.888   5.078 -0.1694  0.3432 -0.1681
 2399TIP3    H128688   1.889   0.838   5.147 -0.6385  0.1974 -0.5699
 2399TIP3    H228689   2.021   0.902   5.112 -0.7741  1.4222  1.0540
 2400TIP3   OH228690   6.283   4.821   3.841 -0.2186 -0.1469 -0.1791
 2400TIP3    H128691   6.224   4.896   3.852 -0.9130 -0.7575  0.3754
 2400TIP3    H228692   6.264   4.788   3.753 -1.0045 -0.5775  0.1407
 2401TIP3   OH228693   1.774   5.466   4.257  0.2729  0.6301 -0.7671
 2401TIP3    H128694   1.802   5.492   4.345 -2.5045  0.5740  0.2575
 2401TIP3    H228695   1.690   5.512   4.245  0.0244 -0.2851 -2.9198
 2402TIP3   OH228696   4.775   3.322   2.211  0.3941 -0.3149 -0.4678
 2402TIP3    H128697   4.831   3.386   2.167  0.6194  0.7034  1.1924
 2402TIP3    H228698   4.686   3.355   2.197  0.4689  0.0348 -0.1609
 2403TIP3   OH228699   1.895   5.795   5.198 -0.1570  0.2859 -0.6603
 2403TIP3    H128700   1.870   5.711   5.235 -0.8032  0.6152 -0.3357
 2403TIP3    H228701   1.990   5.789   5.187 -0.3285 -0.8736 -1.6493
 2404TIP3   OH228702   4.673   4.784  10.538 -0.1179  0.4755  0.1392
 2404TIP3    H128703   4.764   4.807  10.557 -0.5714  1.0194  1.8317
 2404TIP3    H228704   4.627   4.797  10.621 -1.9310  1.1399 -0.9128
 2405TIP3   OH228705   1.367   4.169  16.427  0.2440 -0.3212  0.1384
 2405TIP3    H128706   1.451   4.173  16.381  0.8302  3.1556  1.2035
 2405TIP3    H228707   1.304   4.206  16.365  0.3899  1.1749  0.8444
 2406TIP3   OH228708   1.204   4.838  16.125  0.1221 -0.4256 -0.1988
 2406TIP3    H128709   1.204   4.748  16.093  0.8955 -0.3861 -0.3331
 2406TIP3    H228710   1.296   4.861  16.131 -0.0681  0.6250 -0.9281
 2407TIP3   OH228711   2.024   2.002   0.678 -0.5450  0.4280 -0.1200
 2407TIP3    H128712   2.090   1.963   0.621 -1.6577 -1.2886 -0.3262
 2407TIP3    H228713   2.069   2.016   0.761  0.1415 -0.5158 -0.3190
 2408TIP3   OH228714   6.087   1.636   2.892 -0.0105 -0.5651 -0.1610
 2408TIP3    H128715   6.165   1.677   2.853 -0.7462  1.9557  0.8249
 2408TIP3    H228716   6.022   1.638   2.823  0.2861 -1.0730 -0.4553
 2409TIP3   OH228717   2.645   1.441   2.983  0.2479  0.0319 -0.3498
 2409TIP3    H128718   2.626   1.358   2.939  0.4112  0.1683 -0.6797
 2409TIP3    H228719   2.698   1.416   3.059 -3.0572 -0.6350  1.9600
 2410TIP3   OH228720   1.527   2.973   0.227  0.5421 -0.3220 -0.0891
 2410TIP3    H128721   1.535   3.057   0.181 -1.0018  0.2538  0.6185
 2410TIP3    H228722   1.607   2.926   0.205  1.1933  1.1155 -0.9560
 2411TIP3   OH228723   2.920   5.746  14.311 -0.2888  0.1364  0.2701
 2411TIP3    H128724   2.979   5.791  14.371 -3.0383  1.3707  2.2791
 2411TIP3    H228725   2.964   5.663  14.292  1.6428  0.5745  2.4036
 2412TIP3   OH228726   0.764   6.318   2.329 -0.4089 -0.2895 -0.1461
 2412TIP3    H128727   0.773   6.236   2.376 -0.2463 -0.7149 -0.8959
 2412TIP3    H228728   0.729   6.293   2.243 -2.0040  0.5945  0.2040
 2413TIP3   OH228729   2.618   2.211  16.718  0.7002 -0.4534  0.4270
 2413TIP3    H128730   2.528   2.198  16.747  0.8278 -1.8623  0.2464
 2413TIP3    H228731   2.616   2.192  16.624  1.2423 -0.8015  0.4829
 2414TIP3   OH228732   2.029   2.090   3.195  0.2888  0.3732 -0.2224
 2414TIP3    H128733   2.049   2.120   3.106  1.5262 -1.4647 -0.6203
 2414TIP3    H228734   2.113   2.097   3.241 -0.0427  0.0927  0.4208
 2415TIP3   OH228735   2.615   5.924   3.827 -0.1920 -0.1548  0.0368
 2415TIP3    H128736   2.637   5.864   3.755  0.1825  0.6602 -0.5457
 2415TIP3    H228737   2.648   5.881   3.905  0.0819 -0.6991 -0.3705
 2416TIP3   OH228738   0.942   5.658  13.014 -0.5648  0.0330 -0.2619
 2416TIP3    H128739   0.973   5.582  13.062  0.2968  0.5152 -0.0265
 2416TIP3    H228740   0.930   5.626  12.924  1.5383  0.0053 -0.5910
 2417TIP3   OH228741   2.499   6.136   4.768 -0.4558 -0.0221  0.0951
 2417TIP3    H128742   2.487   6.042   4.782  3.0055 -0.6408 -0.2223
 2417TIP3    H228743   2.515   6.144   4.674  3.1232  0.1678  0.5624
 2418TIP3   OH228744   2.251   0.852  12.248  0.4368 -0.2569 -0.2707
 2418TIP3    H128745   2.247   0.777  12.308  0.4921 -0.3518 -0.3845
 2418TIP3    H228746   2.322   0.830  12.188 -0.0470 -0.4703 -0.7807
 2419TIP3   OH228747   5.279   2.920   5.643  0.3378 -0.2539  0.1927
 2419TIP3    H128748   5.265   3.005   5.684 -0.9957 -0.2483 -0.2493
 2419TIP3    H228749   5.192   2.890   5.618  0.6429 -2.2206  1.2592
 2420TIP3   OH228750   3.933   4.935   3.177  0.3630  0.2432  0.0705
 2420TIP3    H128751   3.848   4.897   3.200 -0.1008  1.5901  0.6593
 2420TIP3    H228752   3.975   4.867   3.124 -1.6112  0.0266 -1.3667
 2421TIP3   OH228753   0.296   2.716  13.079 -0.6029  0.3889  0.3051
 2421TIP3    H128754   0.224   2.778  13.072 -2.0929 -1.3693 -1.2670
 2421TIP3    H228755   0.273   2.646  13.017  1.0333 -1.6326  1.8338
 2422TIP3   OH228756   5.317   3.069   6.408 -0.3981  0.3908 -0.0608
 2422TIP3    H128757   5.361   3.067   6.323  1.5090 -3.6623  0.8123
 2422TIP3    H228758   5.238   3.016   6.395 -0.9740  1.1092  0.3768
 2423TIP3   OH228759   1.483   6.415  13.684 -0.1018 -0.5063 -0.4182
 2423TIP3    H128760   1.449   6.410  13.773  1.0126 -1.0514 -0.0142
 2423TIP3    H228761   1.473   6.507  13.660  1.3298  0.0367  0.9715
 2424TIP3   OH228762   6.531   5.695   1.402  0.0666 -0.3088 -0.3307
 2424TIP3    H128763   6.583   5.690   1.482  1.5081  0.6109 -1.1558
 2424TIP3    H228764   6.446   5.727   1.431  0.5032 -0.1668  0.8628
 2425TIP3   OH228765   4.826   5.636   0.373  0.6837 -0.0260  0.3163
 2425TIP3    H128766   4.898   5.663   0.316  0.7415 -0.2973  0.2594
 2425TIP3    H228767   4.869   5.603   0.452  0.5710  1.6123  1.0856
 2426TIP3   OH228768   4.673   2.206   2.528 -0.3019 -0.5073  0.1050
 2426TIP3    H128769   4.588   2.190   2.488 -0.3271 -1.1711  0.4081
 2426TIP3    H228770   4.712   2.276   2.475 -1.3081  0.2715  0.3807
 2427TIP3   OH228771   2.198   0.466   0.483  0.2852  0.5954  0.2743
 2427TIP3    H128772   2.184   0.396   0.547  1.4361 -0.6372 -0.7670
 2427TIP3    H228773   2.114   0.474   0.437  0.2023 -0.2296  0.2819
 2428TIP3   OH228774   1.292   3.616  16.592  0.2826 -0.9319 -0.3093
 2428TIP3    H128775   1.319   3.609  16.683  0.2301  0.9072 -0.1185
 2428TIP3    H228776   1.197   3.630  16.596 -0.0870 -3.0434 -0.7778
 2429TIP3   OH228777   1.818   1.693  12.102 -0.4556 -0.3842  0.1678
 2429TIP3    H128778   1.878   1.625  12.070  1.8826  0.9257  1.4224
 2429TIP3    H228779   1.823   1.762  12.036 -0.2866 -0.1289  0.4439
 2430TIP3   OH228780   5.836   5.059   4.343  0.0453  0.5913 -0.7942
 2430TIP3    H128781   5.824   5.139   4.291  1.3139  0.9608 -0.5745
 2430TIP3    H228782   5.762   5.004   4.321 -0.0368  1.2032 -2.1474
 2431TIP3   OH228783   4.735   1.876   2.298 -0.3903  0.7082  0.4060
 2431TIP3    H128784   4.775   1.898   2.382  3.2431 -1.1675 -0.6487
 2431TIP3    H228785   4.769   1.942   2.237 -0.5378  0.2700 -0.1582
 2432TIP3   OH228786   0.359   1.078   6.064 -0.3716 -0.3576 -0.3194
 2432TIP3    H128787   0.299   1.149   6.087  0.9203  0.6505 -0.0032
 2432TIP3    H228788   0.407   1.060   6.145  0.5179 -0.4109 -0.8543
 2433TIP3   OH228789   3.413   0.075   0.101  0.0483  0.3838  0.3132
 2433TIP3    H128790   3.338   0.022   0.075 -0.2021  0.1506  1.4575
 2433TIP3    H228791   3.418   0.144   0.034 -1.2188  0.4403  0.2523
 2434TIP3   OH228792   3.258   1.279   1.609 -0.5138 -0.2042 -0.4991
 2434TIP3    H128793   3.336   1.325   1.576 -1.2064  1.2100 -0.2638
 2434TIP3    H228794   3.188   1.305   1.548 -1.1842  0.0798  0.3691
 2435TIP3   OH228795   1.582   6.072   0.167 -0.5966 -0.2156  0.1129
 2435TIP3    H128796   1.492   6.053   0.194 -0.7388 -0.4375 -0.5179
 2435TIP3    H228797   1.573   6.133   0.094 -0.2494 -0.6113 -0.2638
 2436TIP3   OH228798   4.011   4.942   2.814 -0.1314  0.2979 -0.5294
 2436TIP3    H128799   4.101   4.970   2.800 -0.0970  1.6584  1.8857
 2436TIP3    H228800   4.019   4.858   2.859 -0.1115  0.0570 -0.9718
 2437TIP3   OH228801   0.636   1.702  13.085 -0.0396 -0.2002 -0.0136
 2437TIP3    H128802   0.647   1.610  13.063  0.0704  0.0900 -1.2745
 2437TIP3    H228803   0.624   1.746  13.000 -2.2224  0.6770  0.6684
 2438TIP3   OH228804   0.976   4.153   4.291 -0.3452 -0.3101 -0.4292
 2438TIP3    H128805   1.030   4.165   4.213 -0.4343  1.2531 -0.2829
 2438TIP3    H228806   0.915   4.227   4.290 -1.3958 -1.1223  0.2960
 2439TIP3   OH228807   2.638   5.597  16.378 -0.1533  0.0155  0.0766
 2439TIP3    H128808   2.635   5.591  16.283  0.9810 -0.5558  0.0646
 2439TIP3    H228809   2.673   5.513  16.407  0.2840  0.4759  0.9483
 2440TIP3   OH228810   2.829   3.834  16.556 -0.2195  0.1487 -0.0321
 2440TIP3    H128811   2.762   3.821  16.488 -0.8415  2.0814  0.1756
 2440TIP3    H228812   2.888   3.900  16.520 -0.7193  1.4254  1.3824
 2441TIP3   OH228813   5.498   6.481   1.652  0.4305  0.4994 -0.2904
 2441TIP3    H128814   5.486   6.558   1.596 -1.5440 -0.1664 -0.8477
 2441TIP3    H228815   5.584   6.447   1.626 -0.2624  0.4121 -2.7323
 2442TIP3   OH228816   5.397   2.747   5.244  0.2153 -0.1686 -0.0207
 2442TIP3    H128817   5.405   2.682   5.174  0.1072  5.0124 -5.7310
 2442TIP3    H228818   5.477   2.738   5.295  1.2085 -3.2555 -1.8573
 2443TIP3   OH228819   5.991   4.326   2.340  0.3358 -0.4748 -0.2790
 2443TIP3    H128820   6.033   4.402   2.301 -0.7156  0.2716  0.0273
 2443TIP3    H228821   5.955   4.277   2.266 -0.3601  0.1546 -0.3559
 2444TIP3   OH228822   5.307   2.806   1.479  0.1557  0.8083 -0.3317
 2444TIP3    H128823   5.370   2.754   1.430  0.9467  2.8755 -1.6304
 2444TIP3    H228824   5.343   2.894   1.478 -1.1029  1.4178  1.8211
 2445TIP3   OH228825   5.075   5.030  11.449 -0.0093  0.5109 -0.4835
 2445TIP3    H128826   5.117   4.999  11.368  0.1382  2.1062 -1.0562
 2445TIP3    H228827   5.121   4.984  11.519 -1.1486 -2.0708 -1.3104
 2446TIP3   OH228828   4.326   4.034   3.670  0.2154  0.7191  0.3267
 2446TIP3    H128829   4.319   3.993   3.584 -0.4920  0.5983  0.4307
 2446TIP3    H228830   4.252   3.998   3.719  0.9356  0.3531  1.1676
 2447TIP3   OH228831   0.290   6.308  10.994  0.6504  0.2802  0.2572
 2447TIP3    H128832   0.259   6.266  10.914 -0.2834  1.2039  0.1107
 2447TIP3    H228833   0.256   6.253  11.065  0.2994  0.2341  0.0539
 2448TIP3   OH228834   4.106   3.285  15.440  0.0016  0.1473  0.7544
 2448TIP3    H128835   4.032   3.241  15.398  0.4143 -1.0849  1.2895
 2448TIP3    H228836   4.102   3.257  15.531  2.2837 -1.5447  0.3931
 2449TIP3   OH228837   4.123   6.486   6.231  0.4783  0.6677 -0.2632
 2449TIP3    H128838   4.067   6.410   6.215  1.3026 -0.1393  0.5833
 2449TIP3    H228839   4.096   6.519   6.316  3.0751 -1.4560  1.5613
 2450TIP3   OH228840   1.246   3.451  15.216  0.1507 -0.6340  0.4874
 2450TIP3    H128841   1.319   3.468  15.157 -0.0010 -0.9436  0.2043
 2450TIP3    H228842   1.168   3.464  15.162 -0.1361  2.3579  1.4295
 2451TIP3   OH228843   2.615   5.336  15.147  0.8014 -0.1276 -0.6303
 2451TIP3    H128844   2.598   5.253  15.193 -0.7957  0.6013  0.1478
 2451TIP3    H228845   2.672   5.385  15.207  1.2442 -0.4013 -0.8203
 2452TIP3   OH228846   1.307   5.609  15.377 -0.4263 -0.0697  0.3984
 2452TIP3    H128847   1.368   5.672  15.340  1.0231 -0.0591  2.6302
 2452TIP3    H228848   1.262   5.657  15.447  0.2530 -1.2952  1.7156
 2453TIP3   OH228849   5.144   5.300   3.425  0.0620  0.1076 -0.5142
 2453TIP3    H128850   5.111   5.219   3.385 -2.3197 -0.3285  2.0225
 2453TIP3    H228851   5.082   5.368   3.397  1.1534  0.7954 -1.3626
 2454TIP3   OH228852   2.916   4.805   4.808 -0.3650 -0.4141  0.6239
 2454TIP3    H128853   3.002   4.834   4.839  0.2261 -1.6162  0.1686
 2454TIP3    H228854   2.884   4.879   4.756  0.0540  0.3367  1.3883
 2455TIP3   OH228855   1.530   1.338  12.853 -0.0736 -0.3719  0.4370
 2455TIP3    H128856   1.625   1.332  12.841 -0.1042 -1.6252  0.6618
 2455TIP3    H228857   1.518   1.340  12.948 -0.3341 -2.8490  0.5472
 2456TIP3   OH228858   6.070   2.104   1.282 -0.2245  0.4184 -0.1562
 2456TIP3    H128859   6.156   2.100   1.240  0.3353  1.6710  0.7718
 2456TIP3    H228860   6.007   2.100   1.210  0.4637 -3.1547 -0.7123
 2457TIP3   OH228861   4.869   5.947  12.766 -0.4749  0.8954 -0.5449
 2457TIP3    H128862   4.896   5.871  12.714  1.0401  0.8349  0.2480
 2457TIP3    H228863   4.916   6.021  12.727 -1.8083  1.4225 -1.2084
 2458TIP3   OH228864   2.806   2.193   1.206 -0.1693 -0.0381 -0.3896
 2458TIP3    H128865   2.806   2.100   1.230  0.5037  0.0747  0.0845
 2458TIP3    H228866   2.895   2.209   1.175 -0.2832  0.4507 -0.4639
 2459TIP3   OH228867   6.676   6.017   5.944 -0.1332  0.1745  0.3922
 2459TIP3    H128868   6.662   6.109   5.967 -0.1696  0.2334  0.1367
 2459TIP3    H228869   6.589   5.978   5.948 -0.5742  0.7192 -1.9956
 2460TIP3   OH228870   3.533   5.187  15.111  0.0997  0.2391  0.0485
 2460TIP3    H128871   3.444   5.192  15.147  0.4247 -2.0129  1.3427
 2460TIP3    H228872   3.521   5.201  15.017 -1.3680  1.7174  0.4109
 2461TIP3   OH228873   6.410   1.006   0.700  0.2820  0.4075  0.2259
 2461TIP3    H128874   6.426   1.041   0.788 -0.5604  2.4540 -0.3829
 2461TIP3    H228875   6.425   1.080   0.642  0.2014 -0.7550 -1.3272
 2462TIP3   OH228876   3.372   1.454  13.846  0.0658 -0.3090  0.2590
 2462TIP3    H128877   3.405   1.419  13.763  0.9968 -0.3474  0.6315
 2462TIP3    H228878   3.282   1.420  13.852 -0.1091 -0.0908 -0.8481
 2463TIP3   OH228879   6.615   0.131  12.000 -0.3177 -0.5755  0.0108
 2463TIP3    H128880   6.707   0.136  12.027 -0.2230 -1.2084 -0.1789
 2463TIP3    H228881   6.620   0.114  11.906 -0.6394  1.0099 -0.3238
 2464TIP3   OH228882   4.218   4.948  11.428 -0.0722  0.2615  0.1825
 2464TIP3    H128883   4.155   5.019  11.414  0.4785  0.8927  0.8630
 2464TIP3    H228884   4.290   4.967  11.368 -0.8206 -0.8617 -1.1344
 2465TIP3   OH228885   1.731   1.215  15.317 -0.6517  0.3028  0.1046
 2465TIP3    H128886   1.676   1.289  15.291  1.5689  3.0539  2.4638
 2465TIP3    H228887   1.693   1.185  15.400 -0.7963 -0.3655 -0.1979
 2466TIP3   OH228888   3.769   1.524   2.996  0.1250 -0.9830 -0.3540
 2466TIP3    H128889   3.691   1.473   3.017 -0.3062  0.1071  0.8543
 2466TIP3    H228890   3.744   1.575   2.919 -0.7666  0.1507  0.6453
 2467TIP3   OH228891   6.048   2.575  16.448  0.1123 -0.2512 -0.0501
 2467TIP3    H128892   6.049   2.508  16.517 -0.5238  1.2142  1.4715
 2467TIP3    H228893   6.037   2.526  16.367  0.3001 -2.0166  0.9304
 2468TIP3   OH228894   0.115   4.201  13.616  0.1782  0.1275 -0.1184
 2468TIP3    H128895   0.119   4.296  13.629 -1.8931  0.2410  0.0335
 2468TIP3    H228896   0.056   4.189  13.541  0.9675 -1.0304 -0.5865
 2469TIP3   OH228897   3.477   3.040   3.609 -0.4441 -0.2464  0.0782
 2469TIP3    H128898   3.417   2.966   3.618 -0.4960 -0.1992  0.1205
 2469TIP3    H228899   3.430   3.104   3.557 -0.4842 -0.1526  0.2281
 2470TIP3   OH228900   2.662   1.186   2.468  0.2887 -0.7893 -0.0633
 2470TIP3    H128901   2.634   1.096   2.456  2.7617 -1.6313 -0.1156
 2470TIP3    H228902   2.592   1.226   2.520 -2.2022 -1.8966 -2.2979
 2471TIP3   OH228903   0.192   1.504   2.179 -0.3441  0.0953 -0.1528
 2471TIP3    H128904   0.125   1.521   2.245 -1.7763 -1.2122 -1.1937
 2471TIP3    H228905   0.213   1.590   2.143 -0.8402  0.6141  0.7591
 2472TIP3   OH228906   6.096   6.732   5.687 -0.0394  0.8290 -0.4415
 2472TIP3    H128907   6.102   6.802   5.753 -1.0970 -0.5730  1.2307
 2472TIP3    H228908   6.015   6.685   5.709  0.9818 -1.3435 -1.0591
 2473TIP3   OH228909   0.026   6.411   0.475 -0.6251  0.2456  0.5461
 2473TIP3    H128910   0.038   6.380   0.385  0.3089  1.2299  0.3025
 2473TIP3    H228911   0.049   6.337   0.530  1.3548  0.3913 -0.0154
 2474TIP3   OH228912   6.465   0.190   1.541  0.2909  0.1271 -0.1352
 2474TIP3    H128913   6.529   0.240   1.491  0.8036 -0.2361  0.1541
 2474TIP3    H228914   6.490   0.202   1.633  0.3397 -0.5408 -0.0523
 2475TIP3   OH228915   2.304   1.477   3.224 -0.3317  0.0601  0.2829
 2475TIP3    H128916   2.333   1.388   3.206  2.7578  0.5606  2.1057
 2475TIP3    H228917   2.274   1.510   3.139  0.4223 -2.0159 -0.8514
 2476TIP3   OH228918   1.115   0.827  16.228  0.4244  0.1490 -0.0448
 2476TIP3    H128919   1.124   0.751  16.169 -0.6785 -0.0325  0.0024
 2476TIP3    H228920   1.030   0.864  16.206 -0.3691 -0.3675  1.9290
 2477TIP3   OH228921   0.965   1.705   0.094 -0.4682 -0.0274 -0.4601
 2477TIP3    H128922   0.876   1.681   0.120 -0.8291 -0.4271 -1.9289
 2477TIP3    H228923   0.957   1.728   0.001  0.7032  1.3852 -0.2596
 2478TIP3   OH228924   1.146   2.324   1.394 -0.0084 -0.1430  0.0860
 2478TIP3    H128925   1.238   2.333   1.419  0.0205 -1.5116  0.5654
 2478TIP3    H228926   1.109   2.412   1.405  0.9560  0.1562  1.0464
 2479TIP3   OH228927   2.137   2.875  16.954 -0.4892 -0.4779  0.4065
 2479TIP3    H128928   2.131   2.970  16.945 -1.3288 -0.5863 -0.3902
 2479TIP3    H228929   2.072   2.841  16.892  1.9556 -1.6684 -1.7094
 2480TIP3   OH228930   5.755   3.974  14.362 -0.4105 -0.3172 -0.3789
 2480TIP3    H128931   5.696   3.960  14.435  0.7880 -1.0792  0.4862
 2480TIP3    H228932   5.704   3.952  14.284 -1.6318  0.2905  0.2385
 2481TIP3   OH228933   5.090   2.735   3.101 -0.4754  0.1144  0.3201
 2481TIP3    H128934   5.000   2.767   3.113 -0.4107  0.0128  1.1180
 2481TIP3    H228935   5.095   2.713   3.008 -1.3184 -0.0078  0.2937
 2482TIP3   OH228936   3.699   2.405   3.535  0.0640  0.2562  0.2224
 2482TIP3    H128937   3.743   2.472   3.588 -0.5915  0.9377 -0.0696
 2482TIP3    H228938   3.616   2.390   3.580  0.6989 -1.2433  0.9383
 2483TIP3   OH228939   2.835   1.987  15.460 -0.3418  0.5332 -0.6217
 2483TIP3    H128940   2.930   1.974  15.466 -0.4819  0.0693  1.1930
 2483TIP3    H228941   2.806   1.925  15.394  0.6797  1.1085 -1.6444
 2484TIP3   OH228942   2.582   4.268  12.312 -0.3759  0.0365  0.8403
 2484TIP3    H128943   2.632   4.341  12.277  1.3175  0.8380  4.4945
 2484TIP3    H228944   2.641   4.193  12.305 -1.7251 -0.8775 -1.9450
 2485TIP3   OH228945   1.671   3.216   1.076 -0.6910  0.5206  0.4673
 2485TIP3    H128946   1.761   3.185   1.073 -0.9747 -0.2692 -0.0662
 2485TIP3    H228947   1.679   3.310   1.094  0.1436  0.0178  3.1397
 2486TIP3   OH228948   3.357   3.806   0.372 -1.0546 -0.0229 -0.1399
 2486TIP3    H128949   3.411   3.729   0.390 -0.6419  0.1629 -0.5826
 2486TIP3    H228950   3.295   3.776   0.305 -1.2539 -0.1233  0.0863
 2487TIP3   OH228951   1.581   2.004  11.720 -0.3813 -0.3823  0.2297
 2487TIP3    H128952   1.514   2.070  11.699 -0.8992 -0.6647  0.9682
 2487TIP3    H228953   1.617   1.980  11.635 -0.7242  0.2921 -0.1198
 2488TIP3   OH228954   0.604   6.457  12.824 -0.1927 -0.0863 -0.0085
 2488TIP3    H128955   0.654   6.441  12.745  0.5153  3.0797 -0.3279
 2488TIP3    H228956   0.536   6.520  12.798  0.0055  0.9771  1.8320
 2489TIP3   OH228957   6.505   0.873  14.950  0.2655  0.0019  0.1588
 2489TIP3    H128958   6.430   0.925  14.921  1.6018  1.7458 -0.3079
 2489TIP3    H228959   6.570   0.882  14.881  1.9424  0.8055  1.7519
 2490TIP3   OH228960   5.860   5.468  13.655  0.3548  0.0010 -0.7134
 2490TIP3    H128961   5.945   5.425  13.657  0.9119  1.0245  2.1135
 2490TIP3    H228962   5.798   5.397  13.641  1.4296 -1.4900  1.4414
 2491TIP3   OH228963   6.654   6.204   4.797 -0.2421  0.1087  0.7176
 2491TIP3    H128964   6.648   6.109   4.808 -1.9042  0.1580  0.4548
 2491TIP3    H228965   6.738   6.217   4.752  0.4507 -1.1359  1.5807
 2492TIP3   OH228966   1.249   4.891   0.241 -0.6919 -0.5347  0.4104
 2492TIP3    H128967   1.187   4.928   0.177 -0.3952 -1.7740 -0.6335
 2492TIP3    H228968   1.199   4.824   0.287 -1.2209  1.0798  2.2863
 2493TIP3   OH228969   0.181   6.089  15.944 -0.4491  0.2994  0.3195
 2493TIP3    H128970   0.155   6.159  15.884  0.5029  1.3180  1.0505
 2493TIP3    H228971   0.233   6.133  16.011  1.2081 -1.2659  0.1610
 2494TIP3   OH228972   4.498   5.023  15.161  0.2268  0.2349 -0.3701
 2494TIP3    H128973   4.442   4.946  15.148 -0.9252  0.7982  0.9903
 2494TIP3    H228974   4.457   5.070  15.233  1.6173  1.4920 -0.3620
 2495TIP3   OH228975   2.827   3.221   0.545 -0.3161 -0.1694  0.4072
 2495TIP3    H128976   2.852   3.262   0.628  0.9590  1.1998 -0.5966
 2495TIP3    H228977   2.897   3.159   0.526 -0.3285 -0.0918  0.0984
 2496TIP3   OH228978   0.761   4.606  13.043  0.1934  0.2921  0.1733
 2496TIP3    H128979   0.692   4.540  13.029  1.1152 -0.4493 -1.0586
 2496TIP3    H228980   0.729   4.658  13.117 -0.8871 -1.1013  0.7371
 2497TIP3   OH228981   1.616   2.013   4.324  0.5110 -0.2041  0.2693
 2497TIP3    H128982   1.583   1.925   4.310  0.5985 -0.1448 -0.3435
 2497TIP3    H228983   1.540   2.063   4.353  0.4853 -0.5049  0.7226
 2498TIP3   OH228984   1.875   1.681  13.414  0.3964 -0.0536 -0.4484
 2498TIP3    H128985   1.802   1.729  13.375 -1.3034 -2.2321 -0.1535
 2498TIP3    H228986   1.945   1.746  13.421 -1.7889  2.4555  0.1695
 2499TIP3   OH228987   5.948   2.158  12.016  0.2521 -0.1320 -0.3583
 2499TIP3    H128988   5.952   2.250  12.045  0.6777  0.2674 -1.5898
 2499TIP3    H228989   6.040   2.132  12.009  0.1266 -0.8626  0.5694
 2500TIP3   OH228990   6.841   4.007  17.018  0.2338 -0.0450  0.2582
 2500TIP3    H128991   6.905   4.030  17.084 -0.6397  1.2831  0.6866
 2500TIP3    H228992   6.820   3.916  17.035 -0.0191  0.2907  1.8665
 2501TIP3   OH228993   3.365   5.498   1.696 -0.1990  0.5543 -0.2670
 2501TIP3    H128994   3.420   5.565   1.737 -0.8158  0.4114  0.8248
 2501TIP3    H228995   3.288   5.493   1.752 -0.1980 -1.0300 -0.3598
 2502TIP3   OH228996   2.757   2.401   3.761  0.9762  0.1443  0.0646
 2502TIP3    H128997   2.717   2.459   3.826  0.4410 -0.6205  0.4373
 2502TIP3    H228998   2.766   2.455   3.683 -0.2562  0.5254  0.1601
 2503TIP3   OH228999   3.421   5.342  15.719 -0.2500 -0.6278 -0.1083
 2503TIP3    H129000   3.509   5.376  15.736 -0.6325 -0.1644  1.0706
 2503TIP3    H229001   3.385   5.402  15.654 -0.0579 -0.1841  0.1835
 2504TIP3   OH229002   1.477   4.840  10.950 -0.3628  0.9094  0.1854
 2504TIP3    H129003   1.486   4.760  10.898  1.9252  0.8154  0.6122
 2504TIP3    H229004   1.463   4.909  10.885 -2.9778  0.1650 -0.1546
 2505TIP3   OH229005   3.052   6.506  14.706 -0.6619 -0.1621  0.3283
 2505TIP3    H129006   3.032   6.412  14.711  0.9924 -0.8587 -3.2203
 2505TIP3    H229007   2.982   6.543  14.653 -0.1118  0.1579 -0.1809
 2506TIP3   OH229008   4.330   2.519   1.498  0.5907  0.3146  0.2982
 2506TIP3    H129009   4.327   2.614   1.506  3.2094  0.4389  0.3677
 2506TIP3    H229010   4.341   2.503   1.404  0.3488  0.0699  0.3075
 2507TIP3   OH229011   4.728   0.251  14.650  0.0880  0.7945 -0.1853
 2507TIP3    H129012   4.738   0.220  14.740 -0.7590  1.3976  0.1256
 2507TIP3    H229013   4.657   0.315  14.654  0.3744  1.2003 -1.1934
 2508TIP3   OH229014   0.224   1.384  11.315 -0.2029  0.5249 -0.5740
 2508TIP3    H129015   0.304   1.423  11.278 -0.4518  2.0215  0.3668
 2508TIP3    H229016   0.219   1.420  11.404 -1.2938 -0.4995 -0.1956
 2509TIP3   OH229017   1.384   0.920   3.640  0.1579  0.2211  0.1390
 2509TIP3    H129018   1.455   0.897   3.701  0.7251  1.5737  0.0199
 2509TIP3    H229019   1.398   0.861   3.565  0.3626 -0.4165  0.6639
 2510TIP3   OH229020   4.667   4.578   0.382  0.2340 -0.3908 -0.0973
 2510TIP3    H129021   4.707   4.579   0.296 -0.9164 -1.6205 -0.6876
 2510TIP3    H229022   4.626   4.492   0.389 -2.9286  0.9768  0.1048
 2511TIP3   OH229023   5.550   4.587  10.818  0.1496 -0.0932 -0.0456
 2511TIP3    H129024   5.464   4.594  10.778  0.7033  2.3990 -0.9725
 2511TIP3    H229025   5.597   4.524  10.764 -0.8979 -1.1123  0.1958
 2512TIP3   OH229026   2.925   3.028   0.226  0.4582  0.0535  0.7493
 2512TIP3    H129027   2.900   2.954   0.170  0.7459  0.3798  0.1822
 2512TIP3    H229028   2.862   3.097   0.204  0.7997  0.3068  0.5513
 2513TIP3   OH229029   3.465   0.603  12.398  0.0060 -0.3012  0.0865
 2513TIP3    H129030   3.464   0.602  12.493 -0.0560 -0.8040  0.0837
 2513TIP3    H229031   3.383   0.559  12.373 -0.3086  0.4284 -0.2009
 2514TIP3   OH229032   4.545   6.006   1.010 -0.2735  0.0783  0.2543
 2514TIP3    H129033   4.546   6.023   1.104  2.7433 -1.1934  0.5491
 2514TIP3    H229034   4.563   6.091   0.970 -2.8464  0.9117  0.6345
 2515TIP3   OH229035   1.478   3.437  14.549  0.0332  0.3058 -0.8989
 2515TIP3    H129036   1.512   3.511  14.599  0.1599  0.4864 -1.2506
 2515TIP3    H229037   1.412   3.475  14.491 -0.3187  0.0533 -0.6693
 2516TIP3   OH229038   5.188   5.895   1.848  0.3896 -0.3198  0.8619
 2516TIP3    H129039   5.191   5.986   1.874 -1.4463  0.1163 -0.2553
 2516TIP3    H229040   5.279   5.872   1.829  0.8411  1.3558  0.8838
 2517TIP3   OH229041   3.113   6.646   2.808  0.7059 -0.2528  0.1145
 2517TIP3    H129042   3.104   6.690   2.893 -0.6547 -0.1678 -0.0552
 2517TIP3    H229043   3.119   6.553   2.830  0.5047 -0.2186  0.3242
 2518TIP3   OH229044   3.494   0.981   4.716 -0.4235  0.6324 -0.4322
 2518TIP3    H129045   3.570   1.038   4.725  0.3156 -0.2736 -0.7150
 2518TIP3    H229046   3.469   0.959   4.806 -0.8008  1.4811 -0.3152
 2519TIP3   OH229047   0.831   6.216   1.275 -0.9142 -0.1978 -0.1765
 2519TIP3    H129048   0.765   6.258   1.220 -0.8897  0.4454  0.2747
 2519TIP3    H229049   0.850   6.280   1.343  1.1663  0.1840 -1.0440
 2520TIP3   OH229050   0.953   5.014  13.066  0.7784  0.1024 -0.2782
 2520TIP3    H129051   1.023   4.974  13.118  0.8576 -0.0342 -0.4896
 2520TIP3    H229052   0.997   5.047  12.987  0.3956 -1.2494 -1.0893
 2521TIP3   OH229053   4.301   2.311   5.221  0.1225  0.5991 -0.2556
 2521TIP3    H129054   4.263   2.362   5.292  2.6804  2.8303 -0.2893
 2521TIP3    H229055   4.246   2.330   5.145  0.6222  2.9617 -0.1137
 2522TIP3   OH229056   2.812   1.288   4.619 -0.2572  0.5183 -0.4696
 2522TIP3    H129057   2.732   1.242   4.593 -0.2375  1.7261 -2.9009
 2522TIP3    H229058   2.876   1.219   4.633 -1.7016 -0.5043  1.7849
 2523TIP3   OH229059   2.301   2.130  13.955 -0.0319  0.3866  0.3258
 2523TIP3    H129060   2.253   2.168  13.882  0.0629 -2.3514 -1.2653
 2523TIP3    H229061   2.235   2.081  14.004  0.4001 -0.0298  0.4935
 2524TIP3   OH229062   6.491   3.990  12.158 -0.5433  0.1268 -0.3843
 2524TIP3    H129063   6.565   3.933  12.179 -1.6383 -1.2869 -0.1739
 2524TIP3    H229064   6.416   3.930  12.152 -1.0016  0.8434 -4.8342
 2525TIP3   OH229065   1.778   1.594  15.005  0.4502 -0.2524 -0.4737
 2525TIP3    H129066   1.792   1.666  15.067 -0.6475  0.2951 -0.8503
 2525TIP3    H229067   1.776   1.636  14.919  1.0314 -0.8959 -0.8171
 2526TIP3   OH229068   4.409   5.718  12.264 -0.1450  0.0624  0.2546
 2526TIP3    H129069   4.399   5.756  12.177  0.6191 -1.7249 -0.6543
 2526TIP3    H229070   4.444   5.631  12.249 -1.1749 -0.7755  2.2896
 2527TIP3   OH229071   3.285   3.403  16.451  0.7696  0.6643 -0.8828
 2527TIP3    H129072   3.221   3.437  16.389 -1.9942 -2.6847 -0.2131
 2527TIP3    H229073   3.352   3.363  16.397 -1.0531 -1.2742 -1.8720
 2528TIP3   OH229074   2.288   5.448   1.701 -0.2385  0.4068 -0.6735
 2528TIP3    H129075   2.365   5.493   1.736  0.0501  0.1128 -0.9167
 2528TIP3    H229076   2.247   5.407   1.777 -1.2088  2.0902 -0.2452
 2529TIP3   OH229077   1.967   1.549   1.388  0.3405 -0.2139 -0.3324
 2529TIP3    H129078   1.939   1.561   1.478  1.9321  0.3056  0.1249
 2529TIP3    H229079   1.888   1.518   1.342 -0.8945  0.9637  0.8959
 2530TIP3   OH229080   2.115   3.698  11.003 -0.1463 -0.6665 -0.5715
 2530TIP3    H129081   2.152   3.715  10.917 -1.8201  2.0716 -0.8441
 2530TIP3    H229082   2.137   3.775  11.055  0.8533 -2.2604  1.5444
 2531TIP3   OH229083   6.124   2.721  13.212 -0.6500  0.0551 -0.1355
 2531TIP3    H129084   6.072   2.760  13.142  0.0380  1.5334  0.1335
 2531TIP3    H229085   6.215   2.735  13.185 -0.3809 -0.0468  0.6817
 2532TIP3   OH229086   3.951   6.124  14.711  0.3917  0.0434  0.4487
 2532TIP3    H129087   3.943   6.165  14.625  2.1288  0.3049  0.3734
 2532TIP3    H229088   3.952   6.030  14.693 -1.1564  0.0227  0.3865
 2533TIP3   OH229089   2.660   5.931  12.401 -0.4279  0.4309 -0.4911
 2533TIP3    H129090   2.756   5.935  12.401 -0.2959 -1.5295 -1.8055
 2533TIP3    H229091   2.637   5.902  12.490 -0.0706  3.7908  0.8386
 2534TIP3   OH229092   1.949   3.164   6.232 -0.5541  0.2010  0.2771
 2534TIP3    H129093   1.917   3.205   6.313 -3.2508  0.6224 -0.8820
 2534TIP3    H229094   1.957   3.237   6.171  0.5900 -0.2359 -0.1133
 2535TIP3   OH229095   1.497   5.474   0.546 -0.4593 -0.0432 -0.1441
 2535TIP3    H129096   1.582   5.462   0.590 -0.5772  0.8752  0.3691
 2535TIP3    H229097   1.520   5.501   0.457 -0.0914  3.5481  0.8664
 2536TIP3   OH229098   4.152   3.369  12.511  0.2646 -0.1036 -0.2076
 2536TIP3    H129099   4.184   3.370  12.602  1.8453  2.7471 -0.6910
 2536TIP3    H229100   4.059   3.350  12.520  0.2804  0.4964  2.0975
 2537TIP3   OH229101   0.930   0.309   5.903 -0.3676  0.5152  0.7390
 2537TIP3    H129102   0.936   0.253   5.980  0.3665 -0.7108 -0.1853
 2537TIP3    H229103   0.837   0.330   5.897 -0.9739 -2.0094  0.1573
 2538TIP3   OH229104   0.802   1.297   6.379  0.0876 -0.3308 -0.3809
 2538TIP3    H129105   0.895   1.297   6.399  0.5933 -0.4141 -2.5076
 2538TIP3    H229106   0.777   1.205   6.383 -0.1213 -0.2352  0.9756
 2539TIP3   OH229107   6.692   3.890   3.651 -0.2447  0.3621  0.6314
 2539TIP3    H129108   6.665   3.874   3.561  1.8564 -0.9680  0.1430
 2539TIP3    H229109   6.738   3.810   3.676  1.2214  1.5717  2.0636
 2540TIP3   OH229110   6.436   3.550  16.219  0.1940  0.1046  0.1366
 2540TIP3    H129111   6.360   3.607  16.231 -2.3246 -3.0918  0.8301
 2540TIP3    H229112   6.473   3.576  16.135 -0.8334  2.6642  0.4043
 2541TIP3   OH229113   0.426   6.084   1.855 -0.3750  0.4316  0.0762
 2541TIP3    H129114   0.352   6.097   1.795  1.3288  1.7789 -1.8763
 2541TIP3    H229115   0.503   6.085   1.799  1.2964  1.0337  2.2311
 2542TIP3   OH229116   6.082   2.464  16.193 -0.2682 -0.2803  0.5996
 2542TIP3    H129117   6.143   2.393  16.212 -1.4280 -2.0649 -1.7993
 2542TIP3    H229118   6.127   2.517  16.128 -0.1688  0.0772  0.9559
 2543TIP3   OH229119   4.295   5.415  15.509 -0.5030  0.0640 -0.4316
 2543TIP3    H129120   4.229   5.462  15.559 -0.3785 -1.7097  1.5270
 2543TIP3    H229121   4.378   5.441  15.550 -0.5188 -3.0453  1.9935
 2544TIP3   OH229122   4.641   0.578   5.004  0.3938  0.3685 -0.2261
 2544TIP3    H129123   4.681   0.534   5.079  0.6040  0.5796 -0.2121
 2544TIP3    H229124   4.697   0.555   4.930 -0.5284 -0.8803 -0.5638
 2545TIP3   OH229125   1.589   2.729   3.974  0.0836 -0.2319 -0.2976
 2545TIP3    H129126   1.560   2.780   4.050  0.3655  1.8004 -1.4643
 2545TIP3    H229127   1.684   2.720   3.986  0.0276 -0.4810 -0.0653
 2546TIP3   OH229128   2.250   5.058   0.679  0.1469  0.2218  0.0580
 2546TIP3    H129129   2.230   5.031   0.769  1.5994 -0.6033  0.1572
 2546TIP3    H229130   2.166   5.090   0.645 -0.5759 -0.0636  1.4870
 2547TIP3   OH229131   1.645   3.497  13.305  0.1204 -0.4957  0.0367
 2547TIP3    H129132   1.575   3.553  13.336 -0.1695  0.5432 -2.2616
 2547TIP3    H229133   1.661   3.435  13.376 -2.4053 -0.1076  1.0157
 2548TIP3   OH229134   6.181   4.675  14.320 -0.0709 -0.2958  0.1651
 2548TIP3    H129135   6.141   4.596  14.357 -0.1757 -0.8456 -1.0645
 2548TIP3    H229136   6.122   4.746  14.346  0.0126 -0.6090  1.2637
 2549TIP3   OH229137   4.319   6.199   0.783  0.2897  0.1400 -0.6830
 2549TIP3    H129138   4.264   6.177   0.859 -1.3136  1.0971 -1.4958
 2549TIP3    H229139   4.408   6.202   0.817 -0.4631  1.3491  1.3636
 2550TIP3   OH229140   0.837   5.500   2.760 -0.0088 -0.4318  0.1504
 2550TIP3    H129141   0.818   5.484   2.667 -0.1925 -0.5042  0.2006
 2550TIP3    H229142   0.895   5.427   2.784  0.7709  0.0782 -0.1383
 2551TIP3   OH229143   0.054   1.840  11.746 -0.6290 -0.2922 -0.5160
 2551TIP3    H129144   0.141   1.879  11.741 -0.2564 -0.7508  1.6330
 2551TIP3    H229145   0.061   1.759  11.695 -0.4124  0.6431 -2.0306
 2552TIP3   OH229146   1.455   4.989   1.245 -0.5299 -0.4568  0.4601
 2552TIP3    H129147   1.513   4.972   1.319 -0.1000  0.5244  0.3534
 2552TIP3    H229148   1.394   5.055   1.277 -0.4973 -0.2112  0.0189
 2553TIP3   OH229149   6.062   6.234  13.783  1.0625  0.1096 -0.1675
 2553TIP3    H129150   6.115   6.266  13.710 -0.6049  0.8155 -1.1299
 2553TIP3    H229151   5.972   6.236  13.749  0.3361 -0.2935  1.6534
 2554TIP3   OH229152   0.290   2.267  12.875  0.0906 -0.2410  0.1653
 2554TIP3    H129153   0.309   2.175  12.861  0.1864 -0.2516  0.3553
 2554TIP3    H229154   0.200   2.279  12.847 -0.0596 -0.4829  0.5401
 2555TIP3   OH229155   0.351   2.951   3.810  0.3941  0.3798 -0.1164
 2555TIP3    H129156   0.333   3.045   3.819 -0.2073  0.2765 -0.1947
 2555TIP3    H229157   0.415   2.933   3.878  0.2013  0.7655  0.1752
 2556TIP3   OH229158   5.953   0.145   2.845  0.3693  0.4757 -0.1598
 2556TIP3    H129159   5.874   0.192   2.818  0.3847  0.1662 -0.7489
 2556TIP3    H229160   5.950   0.147   2.940  0.3231  1.5994 -0.1727
 2557TIP3   OH229161   2.314   1.771   3.184  0.0870 -0.5113  0.3826
 2557TIP3    H129162   2.367   1.691   3.179  1.1662  0.1677  0.6188
 2557TIP3    H229163   2.357   1.831   3.124  0.4074  0.5238  1.6164
 2558TIP3   OH229164   5.263   1.161  10.901  0.0173 -0.2717  0.2231
 2558TIP3    H129165   5.296   1.225  10.838 -0.5947 -0.4060 -0.2425
 2558TIP3    H229166   5.175   1.141  10.871 -0.1550 -0.6008  0.9289
 2559TIP3   OH229167   3.252   3.440   0.146 -0.1519  0.3158 -0.9021
 2559TIP3    H129168   3.220   3.415   0.059  0.4689 -1.0853 -0.7411
 2559TIP3    H229169   3.281   3.358   0.186 -0.6910  0.8936  0.7521
 2560TIP3   OH229170   4.604   4.554   5.612 -0.3682  0.1775 -0.2976
 2560TIP3    H129171   4.510   4.570   5.624 -0.3830 -0.1922  0.0833
 2560TIP3    H229172   4.644   4.582   5.694 -0.1207  0.5181 -0.5334
 2561TIP3   OH229173   2.346   1.257   5.680  0.0991  0.0111 -0.0619
 2561TIP3    H129174   2.376   1.286   5.766 -0.2470 -0.7010  0.3101
 2561TIP3    H229175   2.274   1.317   5.659 -1.1711 -1.0335  1.0821
 2562TIP3   OH229176   2.797   2.405  11.328  0.2986  0.2617  0.2207
 2562TIP3    H129177   2.782   2.491  11.367 -0.1356 -0.0457  0.7552
 2562TIP3    H229178   2.722   2.392  11.270 -0.1198 -0.1348  0.8360
 2563TIP3   OH229179   5.344   2.875   3.739 -0.0279 -0.1592 -0.6128
 2563TIP3    H129180   5.330   2.954   3.791  0.6259  1.2363 -2.4632
 2563TIP3    H229181   5.264   2.868   3.686  0.5319  0.1329 -1.5127
 2564TIP3   OH229182   3.668   3.195  11.942  0.1704 -0.0390 -0.2126
 2564TIP3    H129183   3.636   3.279  11.974 -0.1677  0.0322 -0.7165
 2564TIP3    H229184   3.589   3.143  11.927  0.3396 -0.2025 -0.5612
 2565TIP3   OH229185   4.906   2.582   4.745 -0.2794 -0.1945  0.2486
 2565TIP3    H129186   4.887   2.657   4.689 -1.2746  0.9397  1.9941
 2565TIP3    H229187   4.857   2.510   4.706 -2.0218  0.8797  0.3208
 2566TIP3   OH229188   1.032   3.317   2.826  0.0683 -0.0367  0.1336
 2566TIP3    H129189   1.044   3.355   2.739  2.9796 -1.0801 -0.0245
 2566TIP3    H229190   1.014   3.224   2.809 -1.3120  0.1214  0.6309
 2567TIP3   OH229191   1.764   2.364  12.434 -0.0033  0.7222  0.2421
 2567TIP3    H129192   1.680   2.408  12.442  0.7267  1.7809  3.2469
 2567TIP3    H229193   1.761   2.294  12.499  0.9017 -0.1777 -0.6594
 2568TIP3   OH229194   3.314   1.680   3.973 -0.2179  0.4268 -0.3605
 2568TIP3    H129195   3.379   1.623   4.014 -0.7083  0.1092 -0.0134
 2568TIP3    H229196   3.243   1.620   3.948 -1.1670  1.0157  0.8690
 2569TIP3   OH229197   6.599   4.643  14.872  0.2084  0.0057  0.3363
 2569TIP3    H129198   6.664   4.676  14.809  1.0034  0.3638  1.3202
 2569TIP3    H229199   6.618   4.689  14.953 -0.8808 -0.3633  0.8264
 2570TIP3   OH229200   4.433   2.770  14.486  0.7848  0.0822 -0.7056
 2570TIP3    H129201   4.450   2.778  14.580 -0.4026 -0.4151 -0.4262
 2570TIP3    H229202   4.339   2.783  14.478  0.4240 -2.5472 -1.4938
 2571TIP3   OH229203   1.185   4.180   0.729  0.5057  0.6444 -0.0304
 2571TIP3    H129204   1.122   4.231   0.781  0.9450  1.7248 -0.5329
 2571TIP3    H229205   1.266   4.231   0.732  1.6140 -1.0890  1.2062
 2572TIP3   OH229206   2.147   3.591   2.731 -1.0006 -0.3888 -0.6512
 2572TIP3    H129207   2.097   3.522   2.774  0.0894 -0.3626  0.6987
 2572TIP3    H229208   2.109   3.673   2.764 -0.3783 -0.3679  0.0353
 2573TIP3   OH229209   1.358   2.049   2.532 -0.0737  0.2925 -0.1129
 2573TIP3    H129210   1.275   2.029   2.576 -0.0450  1.7812  0.6859
 2573TIP3    H229211   1.412   1.972   2.547  0.0691  0.8560  2.9014
 2574TIP3   OH229212   4.505   1.354  12.181  0.2208  0.4734 -0.1735
 2574TIP3    H129213   4.551   1.431  12.149  0.0617  0.6502  0.0221
 2574TIP3    H229214   4.560   1.321  12.253 -1.0327  1.9591  1.5511
 2575TIP3   OH229215   3.470   0.857  11.496 -0.1890 -0.2629 -0.1600
 2575TIP3    H129216   3.558   0.859  11.459  0.1780  1.2669  0.7137
 2575TIP3    H229217   3.472   0.784  11.559  0.2644 -0.6042 -0.5630
 2576TIP3   OH229218   2.541   5.170   3.855  0.5672 -0.1238  0.6345
 2576TIP3    H129219   2.454   5.205   3.837  0.8223  0.1915 -0.0114
 2576TIP3    H229220   2.554   5.186   3.949  0.3129  0.7031  0.5398
 2577TIP3   OH229221   4.154   4.675  16.994 -0.2351  0.2261 -0.2868
 2577TIP3    H129222   4.093   4.730  17.042  2.7305  3.3782  0.2240
 2577TIP3    H229223   4.201   4.626  17.061 -0.6034 -0.4356 -0.5028
 2578TIP3   OH229224   0.225   0.868  16.214 -0.1221  0.4855 -0.4922
 2578TIP3    H129225   0.280   0.824  16.148 -1.4602 -1.5727 -0.3188
 2578TIP3    H229226   0.210   0.801  16.281 -1.4201  1.5449  0.3155
 2579TIP3   OH229227   6.278   0.151   3.574 -0.0358 -0.1344  0.1799
 2579TIP3    H129228   6.344   0.170   3.506  0.0431  0.6555  0.4680
 2579TIP3    H229229   6.282   0.227   3.632 -1.3158 -0.0117  0.1206
 2580TIP3   OH229230   1.640   3.081  15.758 -0.2484 -0.4855  0.4502
 2580TIP3    H129231   1.580   3.086  15.833 -0.1115 -1.0795  0.6022
 2580TIP3    H229232   1.717   3.035  15.792 -1.0705 -2.8047 -0.6263
 2581TIP3   OH229233   6.418   1.292  12.108 -0.4754 -0.5823  0.1286
 2581TIP3    H129234   6.427   1.353  12.034  0.4869 -0.4790  0.3262
 2581TIP3    H229235   6.380   1.346  12.178 -0.3932 -0.4164  0.0472
 2582TIP3   OH229236   5.173   2.951  17.012  0.1412  0.2456 -0.6673
 2582TIP3    H129237   5.190   2.936  17.104  2.1135 -1.8519 -1.2891
 2582TIP3    H229238   5.196   3.043  16.998 -0.2699  0.6077  0.9289
 2583TIP3   OH229239   5.978   2.989  15.362  0.1677  0.2187 -0.2422
 2583TIP3    H129240   6.031   2.918  15.398  1.6478  0.3044 -2.0499
 2583TIP3    H229241   5.889   2.969  15.390  0.6619 -1.8654  0.0557
 2584TIP3   OH229242   2.373   5.196  14.522 -0.3479 -0.3965 -0.2362
 2584TIP3    H129243   2.332   5.193  14.608 -0.8699 -0.0965 -0.4688
 2584TIP3    H229244   2.306   5.234  14.465  0.3161  0.2840 -0.5795
 2585TIP3   OH229245   0.346   3.841   5.087 -0.2438  0.0804 -0.9876
 2585TIP3    H129246   0.329   3.831   4.994  0.1634 -1.3683 -0.9331
 2585TIP3    H229247   0.392   3.761   5.112 -1.9433 -0.4143  0.8265
 2586TIP3   OH229248   5.205   4.964  13.271  0.3572 -0.2306 -0.6292
 2586TIP3    H129249   5.145   4.921  13.331 -0.2641  0.6741 -0.5817
 2586TIP3    H229250   5.254   4.892  13.230  0.7928 -0.8662  0.9272
 2587TIP3   OH229251   1.774   1.633   1.911  0.5001  0.2792 -0.3625
 2587TIP3    H129252   1.733   1.653   1.827  1.1374  0.2286 -0.7009
 2587TIP3    H229253   1.859   1.594   1.887  1.5162  1.9762  0.3000
 2588TIP3   OH229254   1.138   6.066   5.005 -0.6385  0.3005  0.0620
 2588TIP3    H129255   1.199   6.139   4.998  0.2381 -0.3143  0.9651
 2588TIP3    H229256   1.179   5.994   4.957 -1.0668  0.1382 -0.0684
 2589TIP3   OH229257   3.852   5.357   4.993  0.2990 -1.1474  0.0037
 2589TIP3    H129258   3.863   5.354   4.898  0.7560  0.3013 -0.0211
 2589TIP3    H229259   3.911   5.428   5.022 -2.5789  1.0739  0.8949
 2590TIP3   OH229260   2.183   4.734  14.307  0.1926  0.9435  0.3902
 2590TIP3    H129261   2.245   4.794  14.266  0.2116  1.2921  0.9147
 2590TIP3    H229262   2.154   4.780  14.386 -1.4584  1.2088 -0.3100
 2591TIP3   OH229263   1.393   2.287  12.795 -0.2906  0.6793  0.6837
 2591TIP3    H129264   1.372   2.258  12.706 -0.3192 -1.5442  1.3576
 2591TIP3    H229265   1.308   2.305  12.835 -0.3486  0.4400  0.6647
 2592TIP3   OH229266   5.196   4.554   6.195 -0.1053 -0.4223  0.3977
 2592TIP3    H129267   5.270   4.582   6.248 -0.2818 -0.4363  0.6526
 2592TIP3    H229268   5.134   4.516   6.258 -0.6222  0.1946  0.2773
 2593TIP3   OH229269   2.391   4.790   4.782  0.2886 -0.1712  0.2541
 2593TIP3    H129270   2.384   4.856   4.851  2.6324  0.6010 -0.1261
 2593TIP3    H229271   2.395   4.841   4.701 -1.3360 -1.0065 -0.3773
 2594TIP3   OH229272   6.478   4.868   2.327  0.3491  0.3199 -0.0502
 2594TIP3    H129273   6.546   4.807   2.355  1.2196  0.6726 -1.2850
 2594TIP3    H229274   6.509   4.954   2.355  0.5348  0.5056 -0.7917
 2595TIP3   OH229275   5.410   4.935   1.515  0.0882  0.1162  0.6649
 2595TIP3    H129276   5.376   4.858   1.560  1.6225 -0.8425  0.2594
 2595TIP3    H229277   5.379   4.927   1.425 -1.2393  0.9479  1.0124
 2596TIP3   OH229278   4.286   0.195   0.737 -0.4531 -0.3932 -0.5052
 2596TIP3    H129279   4.345   0.228   0.805  0.4777  1.5789 -2.1793
 2596TIP3    H229280   4.223   0.142   0.785 -0.0689  1.1960  1.9535
 2597TIP3   OH229281   3.643   5.794   5.432  0.3687  0.0870  0.2299
 2597TIP3    H129282   3.635   5.880   5.474 -1.7179  0.7415 -1.3716
 2597TIP3    H229283   3.554   5.759   5.431  1.4031 -3.1575  2.7691
 2598TIP3   OH229284   3.709   2.739  14.420 -0.7639 -0.7090  0.2808
 2598TIP3    H129285   3.668   2.767  14.338  2.4978  1.6518 -0.7546
 2598TIP3    H229286   3.673   2.798  14.486 -2.0676 -1.4348  0.2521
 2599TIP3   OH229287   4.813   6.529   4.268  0.1809  0.0664  0.4639
 2599TIP3    H129288   4.870   6.476   4.211 -1.6065  0.5226 -1.9090
 2599TIP3    H229289   4.835   6.500   4.356  2.3510 -1.4896 -0.4779
 2600TIP3   OH229290   2.176   0.419  14.581  0.2658  0.1466  0.1574
 2600TIP3    H129291   2.188   0.324  14.569  1.1553  0.4448 -1.6250
 2600TIP3    H229292   2.141   0.449  14.497  0.9594  1.5443  0.3432
 2601TIP3   OH229293   2.083   1.102  16.658 -0.0037  0.3122  0.5062
 2601TIP3    H129294   2.001   1.085  16.705 -1.0868  1.0351 -1.0620
 2601TIP3    H229295   2.148   1.114  16.727 -1.5130  1.2382  1.8307
 2602TIP3   OH229296   2.573   3.858  14.128 -0.3533  0.3063 -0.1219
 2602TIP3    H129297   2.650   3.892  14.173 -0.4497 -0.6031  0.7632
 2602TIP3    H229298   2.519   3.936  14.110 -0.0291  0.7557  0.7935
 2603TIP3   OH229299   0.199   6.638  14.165  0.2978 -0.2057  0.5112
 2603TIP3    H129300   0.225   6.721  14.126  0.8918  0.1412  1.6130
 2603TIP3    H229301   0.237   6.572  14.107 -0.2893  0.2788 -0.4436
 2604TIP3   OH229302   2.047   5.961  13.947 -0.1343  0.7423  0.4618
 2604TIP3    H129303   1.985   5.998  13.884 -1.9476 -2.2450  0.3025
 2604TIP3    H229304   2.026   6.006  14.029 -0.1105  2.1994 -0.2933
 2605TIP3   OH229305   5.005   3.991  11.665  0.2321 -0.7435  0.4331
 2605TIP3    H129306   4.922   3.959  11.702  0.3382 -1.3522  0.1528
 2605TIP3    H229307   5.054   3.912  11.643  1.0537 -0.3939  0.9403
 2606TIP3   OH229308   4.099   1.926   0.953  0.0135  0.7227  0.2386
 2606TIP3    H129309   4.176   1.912   0.898  0.9712 -1.9749  2.0292
 2606TIP3    H229310   4.048   1.991   0.906  1.9332  0.4323 -2.5417
 2607TIP3   OH229311   5.257   0.699  15.091 -0.0326 -0.2166  0.2183
 2607TIP3    H129312   5.178   0.657  15.055  1.6671 -0.9238 -3.1158
 2607TIP3    H229313   5.226   0.782  15.126 -2.3183 -0.6155 -0.6473
 2608TIP3   OH229314   0.078   2.681   5.844 -0.2049 -0.0042 -0.0358
 2608TIP3    H129315   0.012   2.744   5.815 -0.0507  0.0207 -0.3442
 2608TIP3    H229316   0.125   2.657   5.764 -0.1351 -0.3648  0.1115
 2609TIP3   OH229317   1.947   3.562  16.388  0.0974 -0.4756 -0.1070
 2609TIP3    H129318   1.915   3.583  16.476  1.3076 -0.8477  0.4566
 2609TIP3    H229319   2.039   3.590  16.390  0.2644 -0.9312 -1.0992
 2610TIP3   OH229320   6.517   5.917   6.349 -0.1811  0.1393  0.6374
 2610TIP3    H129321   6.607   5.947   6.361  1.0578 -2.8216 -0.3122
 2610TIP3    H229322   6.498   5.868   6.429 -0.0780 -1.1355 -0.0986
 2611TIP3   OH229323   2.463   0.682  13.943  0.4407  0.2189  0.1820
 2611TIP3    H129324   2.538   0.725  13.901  0.1071 -0.9134 -1.7324
 2611TIP3    H229325   2.386   0.722  13.902  0.0875 -0.7141 -0.1095
 2612TIP3   OH229326   2.044   3.056  12.462 -0.1495  0.3661  0.6489
 2612TIP3    H129327   2.138   3.073  12.469  0.0991 -0.7159  0.1333
 2612TIP3    H229328   2.036   2.961  12.470 -1.3468  0.5514  2.1286
 2613TIP3   OH229329   4.503   5.829   0.019 -0.2056  0.2942  0.5633
 2613TIP3    H129330   4.548   5.913   0.028 -1.3103  0.8246  1.4045
 2613TIP3    H229331   4.451   5.838  -0.061 -3.1210  1.8514  2.4571
 2614TIP3   OH229332   5.358   0.391   0.068  0.4116 -0.2218 -0.7065
 2614TIP3    H129333   5.381   0.475   0.028  2.1991  0.4243  1.4544
 2614TIP3    H229334   5.433   0.335   0.049  1.1725  0.0122  1.3154
 2615TIP3   OH229335   1.762   4.067   2.015 -0.1880  0.2481  0.2233
 2615TIP3    H129336   1.779   4.029   1.929  0.0835 -0.8286  0.7433
 2615TIP3    H229337   1.820   4.144   2.019 -1.7700  1.5999 -1.3849
 2616TIP3   OH229338   0.352   4.746   0.765 -0.0568  0.0904  0.5570
 2616TIP3    H129339   0.290   4.677   0.789 -0.1144  0.1632  0.6182
 2616TIP3    H229340   0.437   4.702   0.763 -0.2869 -0.3369 -0.9661
 2617TIP3   OH229341   1.456   0.704   2.103  0.1101 -0.1134 -0.3022
 2617TIP3    H129342   1.434   0.773   2.040 -0.0921 -0.8908 -1.0966
 2617TIP3    H229343   1.377   0.651   2.108 -0.3078  0.5817  1.5084
 2618TIP3   OH229344   3.796   3.303   1.832 -0.2338  0.3828 -0.1949
 2618TIP3    H129345   3.712   3.307   1.786  0.5801  0.5134 -1.7437
 2618TIP3    H229346   3.856   3.356   1.779  1.1969 -0.9280  0.0137
 2619TIP3   OH229347   3.274   6.546  16.578  0.6851  0.2079 -1.0068
 2619TIP3    H129348   3.188   6.587  16.576 -0.0008 -1.0793  0.1998
 2619TIP3    H229349   3.317   6.584  16.655  0.4885 -0.4717 -0.5553
 2620TIP3   OH229350   4.048   1.800   2.957  0.2884 -0.0575 -0.3128
 2620TIP3    H129351   4.071   1.750   3.036  2.2186 -1.5056 -1.6942
 2620TIP3    H229352   4.129   1.800   2.905 -0.6063  1.8412 -1.7919
 2621TIP3   OH229353   1.614   3.152   5.899  0.1436  0.2408  0.3155
 2621TIP3    H129354   1.519   3.163   5.898  0.1612  0.7127  1.7948
 2621TIP3    H229355   1.629   3.081   5.962  0.7780  0.1973  0.1227
 2622TIP3   OH229356   4.297   0.890  11.384 -0.3751  0.0984  0.4646
 2622TIP3    H129357   4.329   0.894  11.294 -1.2064 -0.2283  0.1488
 2622TIP3    H229358   4.358   0.945  11.433  0.6228 -0.4590 -0.1302
 2623TIP3   OH229359   4.884   0.694   1.577 -0.4914 -0.0326 -0.4693
 2623TIP3    H129360   4.867   0.602   1.557 -3.4341  0.5421 -0.9852
 2623TIP3    H229361   4.906   0.733   1.492 -1.1847  0.1085 -0.5866
 2624TIP3   OH229362   3.544   1.611   4.801 -0.1140  0.4301  0.8198
 2624TIP3    H129363   3.545   1.559   4.720 -0.0667 -0.9235  1.6601
 2624TIP3    H229364   3.608   1.681   4.785  0.8282 -0.5546  0.1502
 2625TIP3   OH229365   4.178   0.901  15.679 -0.3078  0.9092 -0.0155
 2625TIP3    H129366   4.254   0.844  15.675  0.5430  2.0825 -2.3667
 2625TIP3    H229367   4.103   0.843  15.666  0.1566 -0.1761  1.7531
 2626TIP3   OH229368   0.670   4.664  12.005  0.2287  0.1106 -0.3531
 2626TIP3    H129369   0.723   4.594  12.044  0.3831  0.3953 -0.0425
 2626TIP3    H229370   0.657   4.637  11.915  1.2980  0.2520 -0.5728
 2627TIP3   OH229371   3.274   5.572   1.432 -0.1979  0.2060  0.1121
 2627TIP3    H129372   3.346   5.624   1.398  0.1416 -0.9432 -0.9900
 2627TIP3    H229373   3.302   5.546   1.520  0.4102  0.3633 -0.0343
 2628TIP3   OH229374   3.190   5.556   5.829  0.7092 -0.3652 -0.0623
 2628TIP3    H129375   3.156   5.572   5.917  0.0396  1.1599 -0.5560
 2628TIP3    H229376   3.279   5.525   5.842  1.0883  1.1363  1.1429
 2629TIP3   OH229377   1.169   1.153  10.269  0.3596  0.4396  0.0801
 2629TIP3    H129378   1.130   1.221  10.214 -0.6805 -0.3789 -0.2260
 2629TIP3    H229379   1.263   1.170  10.266  0.2085  1.1605 -0.9170
 2630TIP3   OH229380   0.436   1.092   1.805 -0.2137  0.6334  0.2441
 2630TIP3    H129381   0.376   1.021   1.825  1.4063 -1.0660 -0.6471
 2630TIP3    H229382   0.507   1.083   1.869  0.7001  0.5693 -0.7638
 2631TIP3   OH229383   6.133   2.164  12.769 -0.0436 -0.0163  0.2882
 2631TIP3    H129384   6.108   2.146  12.860 -0.5700 -0.2600  0.0965
 2631TIP3    H229385   6.138   2.078  12.728  0.9645  0.0403  0.2820
 2632TIP3   OH229386   6.283   4.150  13.995 -0.6930 -0.0427 -0.6493
 2632TIP3    H129387   6.322   4.064  14.011  1.4010  0.4165 -2.8229
 2632TIP3    H229388   6.282   4.192  14.081  1.4986 -0.9711 -0.1013
 2633TIP3   OH229389   2.599   5.405  10.785  0.2520  0.2429 -0.1652
 2633TIP3    H129390   2.680   5.399  10.733 -0.4372 -0.2535 -1.2082
 2633TIP3    H229391   2.573   5.314  10.801  0.8898  0.3554  1.8068
 2634TIP3   OH229392   0.248   6.535  13.190 -0.1426  0.0834  0.5201
 2634TIP3    H129393   0.338   6.520  13.160 -0.3763  0.7255 -0.5427
 2634TIP3    H229394   0.226   6.622  13.157 -1.9956 -0.9996 -1.3962
 2635TIP3   OH229395   1.608   6.566   3.328  0.2358  0.3011  0.1234
 2635TIP3    H129396   1.681   6.628   3.330  1.2646 -0.8901  0.9980
 2635TIP3    H229397   1.544   6.606   3.268  2.0968  0.8183 -1.6104
 2636TIP3   OH229398   1.739   5.961   1.494  0.1348 -0.4392 -0.6729
 2636TIP3    H129399   1.753   6.054   1.510 -1.2534 -0.4773  1.1252
 2636TIP3    H229400   1.815   5.918   1.533  0.1678 -0.1268 -0.3944
 2637TIP3   OH229401   5.128   3.421  13.990 -0.4031 -0.8887 -0.2410
 2637TIP3    H129402   5.196   3.474  13.949 -0.5448  0.3534  1.0219
 2637TIP3    H229403   5.164   3.398  14.076 -1.1093 -1.2099 -0.0206
 2638TIP3   OH229404   3.525   1.857  14.611  0.2024 -0.3016 -0.2293
 2638TIP3    H129405   3.576   1.777  14.619 -0.7998 -1.2312 -2.4138
 2638TIP3    H229406   3.435   1.827  14.599 -0.3734  1.2046  0.0976
 2639TIP3   OH229407   1.877   5.474   1.655 -0.7163  0.2434  0.0227
 2639TIP3    H129408   1.798   5.520   1.627 -0.1685  1.1429 -0.1183
 2639TIP3    H229409   1.909   5.430   1.577 -0.8094  0.2963 -0.0454
 2640TIP3   OH229410   3.099   2.148   2.447 -0.1604  0.1108 -0.1776
 2640TIP3    H129411   3.184   2.182   2.471 -0.7538  1.1687  0.4935
 2640TIP3    H229412   3.073   2.199   2.371  0.2452 -0.9425 -1.0587
 2641TIP3   OH229413   5.704   5.565  16.201 -0.6017 -0.6545  0.0446
 2641TIP3    H129414   5.735   5.518  16.278  3.4572  1.8514  0.1808
 2641TIP3    H229415   5.752   5.525  16.128 -0.6972  0.1882 -0.4870
 2642TIP3   OH229416   6.801   6.790  12.754 -0.1944  0.6403  0.3891
 2642TIP3    H129417   6.727   6.732  12.773  0.5109 -0.1050  0.9219
 2642TIP3    H229418   6.802   6.852  12.827 -0.6359  1.0102  0.0853
 2643TIP3   OH229419   5.542   0.599  12.827  0.6326  0.4690 -0.4303
 2643TIP3    H129420   5.525   0.675  12.772 -1.5626  0.7708  0.5703
 2643TIP3    H229421   5.459   0.552  12.830  0.3293  0.9671  3.3363
 2644TIP3   OH229422   0.276   3.602  14.792  0.0461  0.2688 -0.2965
 2644TIP3    H129423   0.292   3.594  14.886  0.2125 -0.7612 -0.4022
 2644TIP3    H229424   0.297   3.693  14.772 -1.4294  0.9067  0.9169
 2645TIP3   OH229425   2.662   6.729  16.570 -0.0101 -0.2905  0.0848
 2645TIP3    H129426   2.611   6.808  16.590 -0.8148 -1.1108  1.4855
 2645TIP3    H229427   2.596   6.664  16.548  0.3352 -1.4487  2.1958
 2646TIP3   OH229428   5.082   6.815   4.931 -0.7519 -0.9450  0.3518
 2646TIP3    H129429   5.022   6.749   4.897 -1.4198 -2.4211  3.9151
 2646TIP3    H229430   5.062   6.819   5.025 -0.1989  3.8220  0.4967
 2647TIP3   OH229431   6.774   6.510  13.668  0.1000 -0.0320 -0.2632
 2647TIP3    H129432   6.774   6.449  13.741 -1.6596  0.8294  0.5104
 2647TIP3    H229433   6.696   6.564  13.681 -0.4742 -0.0608 -2.9539
 2648TIP3   OH229434   5.839   5.137  14.861 -0.0960  0.3894  0.4224
 2648TIP3    H129435   5.772   5.070  14.849  1.3404 -0.6983 -2.4627
 2648TIP3    H229436   5.900   5.099  14.924 -1.3106  0.7757  1.9101
 2649TIP3   OH229437   5.089   5.438   2.324 -0.2183 -0.6498  0.2401
 2649TIP3    H129438   5.013   5.490   2.299  0.8912  0.9338  0.0044
 2649TIP3    H229439   5.076   5.354   2.280 -1.5785 -0.2474 -0.1786
 2650TIP3   OH229440   0.841   2.593   1.954  0.0127  0.4852 -0.1521
 2650TIP3    H129441   0.821   2.594   2.048  1.5175  0.5910  0.1946
 2650TIP3    H229442   0.808   2.508   1.924 -1.3685  0.8479  0.2371
 2651TIP3   OH229443   2.167   5.744  12.676  0.1143 -0.4265  0.2673
 2651TIP3    H129444   2.163   5.742  12.771 -0.8801  1.8293  0.3167
 2651TIP3    H229445   2.101   5.808  12.650  2.1549  0.9982 -1.7808
 2652TIP3   OH229446   3.978   0.891   0.445  0.6573 -0.4365 -0.1376
 2652TIP3    H129447   3.962   0.807   0.400 -0.7175 -0.2826  0.0190
 2652TIP3    H229448   3.952   0.957   0.381  0.5683 -0.1614  0.1859
 2653TIP3   OH229449   1.083   6.395   0.156 -0.0109 -0.1344  0.5481
 2653TIP3    H129450   1.070   6.463   0.090 -2.2383 -1.4065 -0.4483
 2653TIP3    H229451   1.089   6.442   0.239 -1.4439  1.2869 -0.1115
 2654TIP3   OH229452   5.546   1.334  11.549  0.7416 -0.1157 -0.4355
 2654TIP3    H129453   5.458   1.317  11.514  0.5614  0.7767 -0.4363
 2654TIP3    H229454   5.580   1.405  11.494  2.6485 -2.3396 -2.3706
 2655TIP3   OH229455   3.682   2.926   4.321 -0.0156 -0.4817 -0.0276
 2655TIP3    H129456   3.725   3.011   4.316 -0.3404 -0.2169  1.3328
 2655TIP3    H229457   3.672   2.899   4.230 -1.5865  1.7666 -0.6099
 2656TIP3   OH229458   5.736   5.797   5.334 -0.0276  0.4001  0.3167
 2656TIP3    H129459   5.799   5.813   5.405 -0.2015 -0.1792  0.6035
 2656TIP3    H229460   5.781   5.826   5.255 -0.1693  1.9318  0.7574
 2657TIP3   OH229461   5.575   1.428   0.310 -0.0698 -0.1880  0.1213
 2657TIP3    H129462   5.532   1.343   0.299  0.1896 -0.4353  0.9056
 2657TIP3    H229463   5.535   1.464   0.390 -0.6241  0.7065 -0.5466
 2658TIP3   OH229464   0.589   2.683   4.117  0.0837  0.0515 -0.2829
 2658TIP3    H129465   0.612   2.621   4.186  0.3772  0.0894 -0.3488
 2658TIP3    H229466   0.596   2.632   4.036  1.2017  0.4027 -0.4244
 2659TIP3   OH229467   4.380   3.182  12.101 -0.0463  0.4297  0.5205
 2659TIP3    H129468   4.437   3.247  12.141  0.1644 -0.2412  1.3523
 2659TIP3    H229469   4.374   3.112  12.166  0.1112 -0.6016 -0.5317
 2660TIP3   OH229470   6.471   0.202  16.805  0.8169  0.6346  0.1434
 2660TIP3    H129471   6.440   0.292  16.804  0.7694  0.6924 -2.6204
 2660TIP3    H229472   6.566   0.209  16.810  0.7515  0.7070  1.9442
 2661TIP3   OH229473   5.373   3.342   4.111  0.4808 -0.2723 -0.2663
 2661TIP3    H129474   5.291   3.345   4.161  0.9103 -0.4542  0.4749
 2661TIP3    H229475   5.371   3.420   4.056 -0.6230 -0.7773 -0.9617
 2662TIP3   OH229476   6.710   2.604  13.159 -0.2173  0.5164 -0.0316
 2662TIP3    H129477   6.691   2.624  13.067  2.1813 -1.0753 -0.9996
 2662TIP3    H229478   6.684   2.513  13.169  1.4544  0.0205  0.1860
 2663TIP3   OH229479   5.276   2.404  14.313 -0.0839 -0.0422  0.2930
 2663TIP3    H129480   5.309   2.328  14.263  0.3484  1.0662 -1.1726
 2663TIP3    H229481   5.355   2.445  14.348 -0.3465 -0.4721  1.4185
 2664TIP3   OH229482   4.296   5.965  13.322 -0.1453  0.2198 -0.1573
 2664TIP3    H129483   4.274   5.929  13.236 -1.0028  1.6379 -0.5579
 2664TIP3    H229484   4.388   5.991  13.314  0.1097 -0.6768 -0.2678
 2665TIP3   OH229485   2.184   3.036  12.838 -0.0872 -0.3896  0.4510
 2665TIP3    H129486   2.170   2.944  12.812 -0.2652 -0.0746 -0.6360
 2665TIP3    H229487   2.241   3.071  12.770  1.6124 -0.1894  1.9145
 2666TIP3   OH229488   2.594   3.699  15.206 -0.4210 -0.1036 -0.7190
 2666TIP3    H129489   2.511   3.728  15.243  0.0884  0.5731 -0.0846
 2666TIP3    H229490   2.578   3.609  15.179 -1.0375 -0.3486  0.4210
 2667TIP3   OH229491   0.358   4.299  10.783 -0.1871 -0.1672  0.6432
 2667TIP3    H129492   0.276   4.272  10.825 -0.8831 -0.3088 -0.7514
 2667TIP3    H229493   0.363   4.393  10.798 -0.3567 -0.2370  1.1476
 2668TIP3   OH229494   1.908   6.249   2.139  0.0147  0.0785 -0.0409
 2668TIP3    H129495   1.917   6.344   2.147  0.9658 -0.0784  1.2821
 2668TIP3    H229496   1.986   6.222   2.090  1.3365 -0.2439  2.0763
 2669TIP3   OH229497   0.545   2.048  12.906 -0.1510 -0.1926 -0.4182
 2669TIP3    H129498   0.480   2.021  12.971 -1.7387 -0.1232 -1.9155
 2669TIP3    H229499   0.594   1.969  12.886 -1.2958 -0.7774 -0.9400
 2670TIP3   OH229500   5.516   6.847  10.403  0.9154  0.2209 -0.0316
 2670TIP3    H129501   5.476   6.934  10.404  1.5464  0.6080 -2.1982
 2670TIP3    H229502   5.609   6.863  10.422  0.5441 -0.4103  2.7300
 2671TIP3   OH229503   5.271   1.476  11.539  0.4335 -0.3199 -0.2206
 2671TIP3    H129504   5.322   1.520  11.608  1.0117  0.3622 -1.0714
 2671TIP3    H229505   5.300   1.516  11.458  1.0257 -2.3053 -1.0615
 2672TIP3   OH229506   1.744   2.342   0.579 -0.0046 -0.3164 -0.2219
 2672TIP3    H129507   1.835   2.318   0.595 -0.0559  0.2941  1.0842
 2672TIP3    H229508   1.721   2.400   0.651 -1.7449 -1.2725  0.0559
 2673TIP3   OH229509   4.853   5.990   5.748 -0.0438 -0.4467  0.1101
 2673TIP3    H129510   4.861   6.064   5.809 -0.2604  1.4426 -2.0253
 2673TIP3    H229511   4.768   5.951   5.769  0.1783 -0.2706  1.4347
 2674TIP3   OH229512   5.926   1.007  12.169 -0.0929  0.9054 -0.1343
 2674TIP3    H129513   5.937   0.940  12.101 -0.7949  0.2818  0.3604
 2674TIP3    H229514   5.989   1.075  12.145  0.4587  0.1862 -0.7837
 2675TIP3   OH229515   2.574   2.159   3.506 -0.0743  0.0851 -0.1061
 2675TIP3    H129516   2.517   2.203   3.568  0.0693  0.2149 -0.0678
 2675TIP3    H229517   2.652   2.135   3.556  0.3816  0.8849 -0.4194
 2676TIP3   OH229518   4.208   4.003   2.952 -0.0713 -0.3936 -0.2797
 2676TIP3    H129519   4.145   4.053   3.004 -0.4162  0.5773 -1.5836
 2676TIP3    H229520   4.154   3.960   2.885  0.2838 -2.1580  0.5258
 2677TIP3   OH229521   0.775   4.402   0.392 -0.3771 -0.0396 -0.4769
 2677TIP3    H129522   0.840   4.355   0.444 -0.2525 -1.0816 -1.5289
 2677TIP3    H229523   0.826   4.446   0.324 -0.5736  0.9970  0.0248
 2678TIP3   OH229524   3.545   4.401   0.696 -0.0717 -0.5897  0.1337
 2678TIP3    H129525   3.582   4.420   0.783  1.7606 -3.1944  0.0533
 2678TIP3    H229526   3.610   4.435   0.635  0.8178 -2.5166 -0.0671
 2679TIP3   OH229527   5.783   1.823   1.795  0.8989  0.5668 -0.0114
 2679TIP3    H129528   5.768   1.892   1.731  3.0246  1.6872  0.5890
 2679TIP3    H229529   5.724   1.752   1.769 -0.6933  2.2308 -1.1929
 2680TIP3   OH229530   4.024   1.793  10.826 -0.0812 -0.3867 -0.3040
 2680TIP3    H129531   3.952   1.837  10.781 -0.5589 -0.6051  0.2277
 2680TIP3    H229532   3.984   1.715  10.864  0.5711 -0.8258 -0.5044
 2681TIP3   OH229533   4.340   4.871  15.694  0.6146  0.4106  0.0151
 2681TIP3    H129534   4.342   4.961  15.726 -1.7813 -0.3278  2.7152
 2681TIP3    H229535   4.385   4.820  15.761  3.6217 -0.3464 -2.3600
 2682TIP3   OH229536   6.321   0.904  12.827  0.2463  0.1304 -0.1472
 2682TIP3    H129537   6.335   0.900  12.732 -0.7901 -1.1011 -0.2761
 2682TIP3    H229538   6.232   0.940  12.836 -0.2335 -1.1160  0.2903
 2683TIP3   OH229539   1.324   2.881  12.362 -0.2769 -0.1302 -0.0632
 2683TIP3    H129540   1.309   2.853  12.452  0.4523  0.0775  0.1249
 2683TIP3    H229541   1.322   2.977  12.365 -1.0180 -0.1300 -0.4030
 2684TIP3   OH229542   4.896   6.621  16.486 -0.1116  0.2045 -0.4119
 2684TIP3    H129543   4.911   6.531  16.514 -0.5782 -0.0421 -0.9391
 2684TIP3    H229544   4.802   6.627  16.472 -0.1443  0.9059  0.0410
 2685TIP3   OH229545   1.088   4.841  11.456  0.2118  0.6302  0.0119
 2685TIP3    H129546   1.167   4.789  11.440 -0.7426 -0.0311 -3.4217
 2685TIP3    H229547   1.033   4.786  11.512  2.0356  1.0650  2.3649
 2686TIP3   OH229548   2.601   2.954  12.915 -0.1232  0.0295 -0.3575
 2686TIP3    H129549   2.667   2.960  12.985  0.8641  0.9840 -1.3263
 2686TIP3    H229550   2.623   2.873  12.868  2.1236  1.6135 -2.2967
 2687TIP3   OH229551   3.993   0.442   4.825  0.4416 -0.0719  0.6191
 2687TIP3    H129552   3.913   0.427   4.775  1.5151 -0.0574 -1.1938
 2687TIP3    H229553   4.031   0.354   4.836  0.9407  0.0823  0.1336
 2688TIP3   OH229554   1.220   0.504  14.901  0.7959  0.3264  0.1812
 2688TIP3    H129555   1.264   0.577  14.944 -0.3694  1.1523  0.0148
 2688TIP3    H229556   1.187   0.540  14.819 -0.1264 -0.2793  0.2658
 2689TIP3   OH229557   3.673   1.766   1.614  0.0303  0.1081 -0.1169
 2689TIP3    H129558   3.646   1.704   1.546  0.8487 -1.5119  0.9676
 2689TIP3    H229559   3.591   1.797   1.652 -0.4722 -2.3638  1.0581
 2690TIP3   OH229560   3.543   4.441  11.941 -0.0025  0.0692 -0.3094
 2690TIP3    H129561   3.623   4.482  11.909  0.2216  0.2638  0.4795
 2690TIP3    H229562   3.483   4.443  11.866  0.5861  0.2932 -0.7803
 2691TIP3   OH229563   5.980   3.909  17.106  0.2265  0.2078 -0.4722
 2691TIP3    H129564   6.035   3.835  17.082 -0.8413 -0.7950  0.0677
 2691TIP3    H229565   6.022   3.985  17.064  0.5600 -0.8999 -2.2470
 2692TIP3   OH229566   3.701   3.490   4.844 -0.0285  0.5429  0.3294
 2692TIP3    H129567   3.748   3.411   4.869  0.5603  1.0479  0.8397
 2692TIP3    H229568   3.712   3.549   4.918  1.0160  1.7486 -0.7560
 2693TIP3   OH229569   2.412   3.903  12.971  0.3399  0.4732 -0.0308
 2693TIP3    H129570   2.383   3.839  13.036  0.6456  1.0695  0.7070
 2693TIP3    H229571   2.334   3.955  12.952 -0.1434 -0.6622 -1.3115
 2694TIP3   OH229572   4.392   3.439  17.137 -0.1657 -0.1096  0.1191
 2694TIP3    H129573   4.386   3.357  17.187  0.1400 -2.1069 -2.8207
 2694TIP3    H229574   4.486   3.447  17.117 -0.4553 -0.3710 -1.5142
 2695TIP3   OH229575   2.684   6.214  10.536 -0.2705  0.0468 -0.1950
 2695TIP3    H129576   2.703   6.306  10.517  0.4033 -0.7417 -4.4996
 2695TIP3    H229577   2.770   6.172  10.536 -0.6971 -0.8374 -0.2855
 2696TIP3   OH229578   2.670   2.307  14.156  0.2772  0.4799  0.1874
 2696TIP3    H129579   2.738   2.295  14.089  0.4888  0.8331  0.3384
 2696TIP3    H229580   2.602   2.357  14.112  0.5524  0.9794  0.3226
 2697TIP3   OH229581   1.806   5.161   2.318 -0.3480  0.3288  0.1228
 2697TIP3    H129582   1.815   5.084   2.262  0.3483  0.5732 -0.1223
 2697TIP3    H229583   1.794   5.126   2.406 -0.3465 -0.0629 -0.0307
 2698TIP3   OH229584   1.457   6.337   1.431 -0.4538 -0.1082  0.0542
 2698TIP3    H129585   1.525   6.351   1.364  0.6494  1.1510  1.3582
 2698TIP3    H229586   1.503   6.351   1.514 -2.0154 -0.6248  1.0385
 2699TIP3   OH229587   1.373   4.441   3.714  0.4007 -0.0864 -0.2108
 2699TIP3    H129588   1.426   4.364   3.733  1.7874  0.3693 -1.9836
 2699TIP3    H229589   1.412   4.479   3.635 -1.3605  1.4127 -0.4413
 2700TIP3   OH229590   2.223   6.591  12.784 -0.5323  0.0225  0.5147
 2700TIP3    H129591   2.258   6.646  12.853  1.5936 -0.9133  0.2630
 2700TIP3    H229592   2.259   6.628  12.703 -0.8104 -0.4684  0.1605
 2701TIP3   OH229593   3.681   6.837   3.171 -0.1734  0.2479  0.0820
 2701TIP3    H129594   3.713   6.926   3.161  1.5408 -0.3899 -0.4970
 2701TIP3    H229595   3.726   6.803   3.248 -2.1531  0.4056  1.3694
 2702TIP3   OH229596   3.534   0.415   5.379  0.4203 -0.0428  0.0874
 2702TIP3    H129597   3.583   0.353   5.433  0.2261 -0.5472 -0.3034
 2702TIP3    H229598   3.449   0.372   5.365  0.7896 -0.3375 -1.3815
 2703TIP3   OH229599   4.344   5.707  12.866  0.0974  0.5157  0.4606
 2703TIP3    H129600   4.288   5.722  12.790 -0.4543  2.5711  1.2160
 2703TIP3    H229601   4.425   5.755  12.847 -0.5780  2.2594  1.6979
 2704TIP3   OH229602   3.712   0.841  15.286 -0.1512  0.3273 -0.8229
 2704TIP3    H129603   3.668   0.766  15.246  0.3764 -1.4253  1.6534
 2704TIP3    H229604   3.805   0.825  15.270 -0.0756  0.9455 -1.0436
 2705TIP3   OH229605   0.232   4.799   1.269 -0.2885  0.5026 -0.1428
 2705TIP3    H129606   0.242   4.708   1.242  0.7847 -0.1116  2.0420
 2705TIP3    H229607   0.231   4.849   1.187 -0.5260 -1.4194 -1.3760
 2706TIP3   OH229608   1.769   1.715  17.097  0.6115 -0.3616 -0.3478
 2706TIP3    H129609   1.747   1.774  17.170 -1.5907 -0.7152 -0.6407
 2706TIP3    H229610   1.692   1.659  17.089  1.3871 -1.2317 -2.0834
 2707TIP3   OH229611   4.630   5.758   0.790 -0.6987  0.0788  0.3575
 2707TIP3    H129612   4.585   5.803   0.718  1.5409  0.6125 -0.8011
 2707TIP3    H229613   4.658   5.828   0.848 -0.9012 -0.2031  0.7982
 2708TIP3   OH229614   5.857   4.345  16.279  0.1351  0.1444 -0.0220
 2708TIP3    H129615   5.861   4.250  16.269  1.4088 -0.0910  2.0890
 2708TIP3    H229616   5.770   4.362  16.314  0.3919 -0.4533  0.9690
 2709TIP3   OH229617   3.913   0.994   4.535 -0.3242 -0.6539  0.5493
 2709TIP3    H129618   3.943   1.070   4.584 -0.5567 -0.6431  0.6757
 2709TIP3    H229619   3.832   1.022   4.493 -0.4347 -0.8452  0.6330
 2710TIP3   OH229620   2.991   2.551  14.808 -0.4184 -0.0907  0.1986
 2710TIP3    H129621   2.939   2.497  14.748  0.1860 -1.6054  1.0035
 2710TIP3    H229622   3.082   2.531  14.785 -0.1775 -0.7164  1.6266
 2711TIP3   OH229623   3.453   0.680  11.715 -0.2418 -0.2155  0.1208
 2711TIP3    H129624   3.452   0.679  11.811  2.6377  0.9489  0.2559
 2711TIP3    H229625   3.524   0.620  11.691 -1.6902 -1.4058 -1.3947
 2712TIP3   OH229626   1.184   0.542  11.223  0.0601 -0.3533  0.0773
 2712TIP3    H129627   1.114   0.507  11.168 -1.5908  0.2368  1.6937
 2712TIP3    H229628   1.184   0.486  11.300 -1.6866  2.1528  2.0777
 2713TIP3   OH229629   0.004   5.917   0.454  0.2609 -0.4795  0.4494
 2713TIP3    H129630   0.014   5.822   0.454 -1.8995 -0.7597  0.3052
 2713TIP3    H229631   0.085   5.950   0.412  0.3204 -2.3493 -1.0413
 2714TIP3   OH229632   5.736   1.389  10.360  0.3996 -0.1871 -0.2987
 2714TIP3    H129633   5.781   1.432  10.287 -1.8099 -0.4580 -1.9244
 2714TIP3    H229634   5.698   1.461  10.411 -0.8143 -0.0662 -1.3343
 2715TIP3   OH229635   5.220   2.995  14.499  0.8016  0.1127  0.2567
 2715TIP3    H129636   5.315   2.986  14.511  0.8742  0.1040 -0.2763
 2715TIP3    H229637   5.210   3.016  14.406  0.2040 -1.1836  0.0051
 2716TIP3   OH229638   3.489   6.109   1.056 -0.8453 -0.0049  0.5934
 2716TIP3    H129639   3.415   6.098   1.115 -0.6996 -0.8383  0.6318
 2716TIP3    H229640   3.563   6.128   1.114 -0.7243 -0.7142  0.6831
 2717TIP3   OH229641   4.766   1.920  15.345 -0.3287  0.5370  1.1152
 2717TIP3    H129642   4.731   1.950  15.429 -1.4746 -0.0120  0.8645
 2717TIP3    H229643   4.734   1.830  15.338  0.1837  0.4112  0.3194
 2718TIP3   OH229644   3.370   4.349   2.003 -0.4111 -0.0293 -0.4448
 2718TIP3    H129645   3.319   4.293   2.061 -1.8091 -1.9263 -3.2952
 2718TIP3    H229646   3.313   4.423   1.984 -0.0698  0.4365  0.2848
 2719TIP3   OH229647   0.228   2.759   4.701 -0.0938 -0.1195  0.1205
 2719TIP3    H129648   0.148   2.739   4.749 -3.0202  0.2741 -3.9682
 2719TIP3    H229649   0.264   2.837   4.744 -2.1440 -0.0684  1.8773
 2720TIP3   OH229650   1.811   0.642   2.299 -0.5536  0.0026 -0.2037
 2720TIP3    H129651   1.743   0.694   2.342  1.1466 -0.3136  3.1825
 2720TIP3    H229652   1.784   0.552   2.313 -0.3423 -0.1018 -0.4675
 2721TIP3   OH229653   5.030   4.470   3.389  0.5911  0.0129 -0.0093
 2721TIP3    H129654   4.955   4.415   3.367 -0.2946  0.6760  1.2591
 2721TIP3    H229655   5.100   4.408   3.410 -0.7251 -0.7418  2.5887
 2722TIP3   OH229656   5.595   2.328   3.643  0.0212 -0.0125 -0.1206
 2722TIP3    H129657   5.534   2.397   3.668  0.8108  0.3607  0.7998
 2722TIP3    H229658   5.552   2.247   3.670 -1.5041 -0.0620 -2.3548
 2723TIP3   OH229659   5.995   6.271  14.730  0.3247 -0.0410 -0.2831
 2723TIP3    H129660   5.931   6.337  14.706  1.2549  1.3440  0.8629
 2723TIP3    H229661   6.071   6.290  14.676  0.8517  0.3135  0.5511
 2724TIP3   OH229662   1.204   5.781  13.102 -0.6793 -0.4807 -0.0988
 2724TIP3    H129663   1.232   5.754  13.189 -0.1727  0.1025 -0.0787
 2724TIP3    H229664   1.120   5.825  13.116  0.7944  2.3099  0.5105
 2725TIP3   OH229665   6.375   5.541   5.322  0.5338 -0.8874 -0.3860
 2725TIP3    H129666   6.292   5.497   5.342  1.3977 -2.6962 -0.5799
 2725TIP3    H229667   6.401   5.507   5.236  1.7168 -0.7562 -0.1031
 2726TIP3   OH229668   3.939   4.642  12.166  0.5826  0.4763  0.3472
 2726TIP3    H129669   3.909   4.612  12.080 -1.6991 -1.1384  1.5969
 2726TIP3    H229670   3.947   4.737  12.157 -0.7215  0.4785 -1.3513
 2727TIP3   OH229671   2.270   4.948   5.831  0.7687  0.4302  0.4821
 2727TIP3    H129672   2.192   4.999   5.853  0.1419  0.1317 -0.9366
 2727TIP3    H229673   2.236   4.870   5.787  1.8779  0.8763 -1.2981
 2728TIP3   OH229674   4.034   1.558   1.278  0.1748  0.5928  0.4441
 2728TIP3    H129675   4.041   1.545   1.183  0.4486  0.3121  0.5059
 2728TIP3    H229676   4.086   1.637   1.295  2.0522 -0.6644  0.6954
 2729TIP3   OH229677   6.063   5.264  13.549 -0.3613  0.0445  0.7028
 2729TIP3    H129678   6.011   5.280  13.470  0.5514 -1.7149 -0.3218
 2729TIP3    H229679   6.121   5.340  13.555 -0.8454  0.4839  0.0319
 2730TIP3   OH229680   2.941   5.326   5.460 -0.1952  0.0615  0.1587
 2730TIP3    H129681   2.956   5.373   5.542 -0.7745  2.1982 -0.8901
 2730TIP3    H229682   2.848   5.336   5.442 -0.1598 -0.7417 -0.5789
 2731TIP3   OH229683   1.291   2.549   1.692 -0.3564  0.0309 -0.7303
 2731TIP3    H129684   1.318   2.534   1.783 -0.2857  1.0054 -0.5749
 2731TIP3    H229685   1.373   2.562   1.645 -0.4024 -0.3078 -0.9067
 2732TIP3   OH229686   1.444   4.668   2.855  0.4182  0.0813  0.2820
 2732TIP3    H129687   1.495   4.591   2.881 -0.2101  0.4375  2.8661
 2732TIP3    H229688   1.500   4.742   2.877  0.3974  0.4208 -0.7574
 2733TIP3   OH229689   5.678   1.563   0.888 -0.2707  0.0980  0.2214
 2733TIP3    H129690   5.646   1.473   0.883  0.0741  0.0400 -2.1868
 2733TIP3    H229691   5.764   1.560   0.846  1.0449  1.0913  2.6025
 2734TIP3   OH229692   0.822   4.923  16.098  0.2557  0.7201 -0.3462
 2734TIP3    H129693   0.779   4.941  16.014 -0.0665  1.2625 -0.0658
 2734TIP3    H229694   0.778   4.980  16.161  1.0969  0.9827  0.0230
 2735TIP3   OH229695   2.354   4.645  16.841  0.6030 -0.4123 -0.0528
 2735TIP3    H129696   2.403   4.593  16.905  1.0372  0.4226  0.3251
 2735TIP3    H229697   2.422   4.680  16.782  0.1528 -1.6668 -1.3696
 2736TIP3   OH229698   6.563   2.485  11.995  0.1973  0.4435 -0.1245
 2736TIP3    H129699   6.577   2.510  12.086  0.4446 -1.7964  0.5088
 2736TIP3    H229700   6.636   2.427  11.974 -1.3334 -1.3924 -0.7688
 2737TIP3   OH229701   5.933   3.684  13.166 -0.6282 -0.0798  0.5062
 2737TIP3    H129702   5.885   3.764  13.190  0.5662  0.4897  1.0695
 2737TIP3    H229703   6.006   3.715  13.112 -0.9683 -0.9573 -0.4941
 2738TIP3   OH229704   3.739   5.475   2.946  0.6414  0.7511 -0.0170
 2738TIP3    H129705   3.680   5.481   2.871  0.8329 -1.7575 -0.4499
 2738TIP3    H229706   3.689   5.511   3.019 -0.0814  1.8834 -1.0313
 2739TIP3   OH229707   2.535   0.058  10.713 -0.0605 -0.0212  0.1369
 2739TIP3    H129708   2.463   0.119  10.732  1.1632  0.7273  2.9104
 2739TIP3    H229709   2.506  -0.025  10.751 -0.0727 -0.1339 -0.1149
 2740TIP3   OH229710   2.514   3.083  15.367 -0.2276 -0.5447  0.3734
 2740TIP3    H129711   2.443   3.042  15.417  0.6352 -0.5273  1.6593
 2740TIP3    H229712   2.574   3.011  15.347 -0.8180 -0.6622 -1.1805
 2741TIP3   OH229713   2.671   0.892  15.695  0.1191 -0.0860 -0.1276
 2741TIP3    H129714   2.692   0.799  15.701  0.9554  0.1945  2.0958
 2741TIP3    H229715   2.735   0.935  15.752 -2.2597  1.5087  1.5211
 2742TIP3   OH229716   6.604   6.711  13.573  0.0004 -0.5690 -0.7127
 2742TIP3    H129717   6.620   6.771  13.646 -0.9754 -0.5280 -0.5193
 2742TIP3    H229718   6.635   6.758  13.496 -0.8926  0.2628 -0.5807
 2743TIP3   OH229719   5.735   0.653  11.556  0.4255  0.2062 -0.0280
 2743TIP3    H129720   5.784   0.622  11.480  0.3848 -0.1112  0.0704
 2743TIP3    H229721   5.644   0.651  11.529  0.1227 -2.6249  0.8973
 2744TIP3   OH229722   2.720   5.659  11.073  0.1392 -0.1274  0.2468
 2744TIP3    H129723   2.680   5.597  11.012  0.6062 -0.8424  0.6535
 2744TIP3    H229724   2.695   5.745  11.039 -0.4450 -0.5285 -0.3785
 2745TIP3   OH229725   3.250   6.023   2.026 -0.0409  0.1971  0.3575
 2745TIP3    H129726   3.336   6.063   2.016  0.8783 -1.7472 -0.0077
 2745TIP3    H229727   3.221   6.052   2.113  2.0342 -0.9231  1.5179
 2746TIP3   OH229728   5.230   5.119   1.212 -0.4052  0.7850 -0.0045
 2746TIP3    H129729   5.235   5.121   1.116 -0.7713 -1.3649 -0.1142
 2746TIP3    H229730   5.319   5.097   1.240 -1.0084 -2.1790 -0.1055
 2747TIP3   OH229731   0.398   6.494  12.057  0.1610  0.4134 -0.6180
 2747TIP3    H129732   0.484   6.472  12.094 -1.2036 -0.3148  2.4861
 2747TIP3    H229733   0.365   6.564  12.113 -1.6335  0.0370 -1.1486
 2748TIP3   OH229734   2.003   5.388  15.890  0.0820 -0.6628 -0.2182
 2748TIP3    H129735   1.930   5.440  15.857  1.4155  0.3083 -1.8577
 2748TIP3    H229736   2.068   5.391  15.820  1.4937 -1.9232  0.9500
 2749TIP3   OH229737   4.497   2.015  16.789  0.3134  0.2525  0.3637
 2749TIP3    H129738   4.501   2.071  16.712 -0.8059  0.2322  0.2751
 2749TIP3    H229739   4.444   2.065  16.851  0.3371 -0.1868  0.7407
 2750TIP3   OH229740   2.934   3.386   3.486 -0.3762  0.2147  0.0447
 2750TIP3    H129741   2.989   3.449   3.438  0.5424 -0.4814  0.1452
 2750TIP3    H229742   2.858   3.437   3.514 -0.4413  0.8872 -1.2631
 2751TIP3   OH229743   2.683   3.683   1.620 -0.2156  0.7199 -0.2679
 2751TIP3    H129744   2.610   3.742   1.603 -0.4517 -0.0280 -2.0594
 2751TIP3    H229745   2.760   3.730   1.587 -0.5287 -0.2871 -2.5965
 2752TIP3   OH229746   4.849   6.809   0.287 -0.4864 -0.4066  0.5037
 2752TIP3    H129747   4.913   6.875   0.313  0.5575 -1.2752  0.2309
 2752TIP3    H229748   4.828   6.830   0.196  0.5889 -0.9943  0.0991
 2753TIP3   OH229749   3.127   5.437   6.271 -0.0126  0.3211  0.0351
 2753TIP3    H129750   3.131   5.357   6.324  1.7121 -0.0122 -0.5500
 2753TIP3    H229751   3.074   5.413   6.195  2.3018 -1.0374 -1.2732
 2754TIP3   OH229752   5.235   0.809  14.163 -0.3944 -0.5191  0.2604
 2754TIP3    H129753   5.314   0.814  14.216 -0.8446  1.0865  0.8686
 2754TIP3    H229754   5.215   0.716  14.157  2.1959 -1.0887 -0.9484
 2755TIP3   OH229755   6.552   3.267  13.826 -0.7058 -0.0433  0.5405
 2755TIP3    H129756   6.537   3.361  13.816  0.2086  0.0427 -0.2220
 2755TIP3    H229757   6.640   3.260  13.863  1.0626 -0.5969 -3.2980
 2756TIP3   OH229758   0.534   3.679   2.482  0.3946  0.7681  0.5610
 2756TIP3    H129759   0.502   3.709   2.397 -0.2698  0.8342  0.8254
 2756TIP3    H229760   0.464   3.702   2.543  0.6328  0.2433  1.0420
 2757TIP3   OH229761   3.632   1.934  14.870 -0.0013 -0.4501 -0.2378
 2757TIP3    H129762   3.680   1.909  14.791  1.5318  2.1376 -0.2486
 2757TIP3    H229763   3.567   1.996  14.839  0.3397  0.2706  0.4627
 2758TIP3   OH229764   6.828   4.713  15.041  0.0670 -0.2181  0.2373
 2758TIP3    H129765   6.891   4.756  14.983  2.2767 -2.0725  1.1364
 2758TIP3    H229766   6.858   4.622  15.047 -2.8205 -1.2580  0.6075
 2759TIP3   OH229767   3.978   2.183  17.136 -0.1601 -0.3896 -0.3492
 2759TIP3    H129768   3.946   2.262  17.093  0.4927  0.5461  0.7854
 2759TIP3    H229769   3.992   2.210  17.227  1.1727 -1.4966 -0.1901
 2760TIP3   OH229770   3.294   2.591   0.419  0.3733  0.1451 -0.2284
 2760TIP3    H129771   3.298   2.572   0.326  0.0129  0.7193 -0.3642
 2760TIP3    H229772   3.251   2.514   0.458 -0.6674  0.4765 -0.7081
 2761TIP3   OH229773   2.789   2.385  13.246 -0.3661 -0.4549 -0.2625
 2761TIP3    H129774   2.697   2.402  13.266 -0.9579 -0.7810 -2.4582
 2761TIP3    H229775   2.792   2.293  13.222  1.0047 -1.0639  1.9545
 2762TIP3   OH229776   3.145   4.825   3.006  0.0957  0.5793 -0.0700
 2762TIP3    H129777   3.189   4.812   2.921 -1.7978 -3.3406 -0.6564
 2762TIP3    H229778   3.065   4.872   2.983 -0.0958  0.1167 -0.3677
 2763TIP3   OH229779   5.225   2.594  15.153  0.2448  0.4764 -0.1900
 2763TIP3    H129780   5.279   2.517  15.169 -0.6541 -0.0109  0.5844
 2763TIP3    H229781   5.246   2.653  15.225 -0.3690  0.2156  0.2082
 2764TIP3   OH229782   2.650   4.659  12.754  0.5751  0.2562  0.1978
 2764TIP3    H129783   2.571   4.704  12.723 -1.2261 -2.8160 -0.1806
 2764TIP3    H229784   2.641   4.570  12.720  3.1512 -0.8213  1.9959
 2765TIP3   OH229785   6.632   6.553   1.969 -0.4650 -0.1716  0.0679
 2765TIP3    H129786   6.715   6.575   2.013 -0.7400 -0.9155  1.0043
 2765TIP3    H229787   6.620   6.460   1.988 -0.6818 -0.4802 -1.4885
 2766TIP3   OH229788   5.848   2.826  14.216 -0.7670  0.4874  0.2692
 2766TIP3    H129789   5.834   2.893  14.283 -0.8297  0.4227  0.3200
 2766TIP3    H229790   5.835   2.743  14.261 -0.5955  0.4379  0.2272
 2767TIP3   OH229791   0.264   4.113   3.976  0.0060 -0.8982 -0.0037
 2767TIP3    H129792   0.257   4.087   4.067 -1.5267 -0.3203  0.0680
 2767TIP3    H229793   0.192   4.174   3.962 -1.7230 -3.2005 -2.3326
 2768TIP3   OH229794   1.483   4.913   2.254 -0.2492 -0.0297 -0.4606
 2768TIP3    H129795   1.404   4.868   2.225  0.9967 -2.4038 -0.5065
 2768TIP3    H229796   1.504   4.873   2.339  0.7371  0.7588 -0.3095
 2769TIP3   OH229797   5.515   0.653   5.578 -0.0553 -0.1264  0.8650
 2769TIP3    H129798   5.571   0.601   5.635  0.3016 -1.1318 -0.3691
 2769TIP3    H229799   5.556   0.740   5.577  0.3450 -0.2996  1.5528
 2770TIP3   OH229800   3.699   4.803   1.121 -0.0883 -0.3110  0.4877
 2770TIP3    H129801   3.696   4.873   1.185 -1.1149  0.0971  0.0151
 2770TIP3    H229802   3.755   4.837   1.051 -1.4116  0.4861 -0.2224
 2771TIP3   OH229803   2.160   1.523  16.783  0.5317  0.1627  0.3661
 2771TIP3    H129804   2.163   1.534  16.878  1.5449  1.1375  0.2488
 2771TIP3    H229805   2.076   1.561  16.757  0.7388  0.9157  0.7708
 2772TIP3   OH229806   6.321   5.767   0.250 -0.0653  0.3896 -0.2050
 2772TIP3    H129807   6.349   5.858   0.260 -1.9508  0.8672  1.3477
 2772TIP3    H229808   6.344   5.726   0.334  1.6086 -0.8717 -1.2150
 2773TIP3   OH229809   3.992   4.721   3.463  0.2326 -0.0438  0.4893
 2773TIP3    H129810   3.934   4.658   3.420  0.7404  0.1785 -0.5720
 2773TIP3    H229811   4.011   4.785   3.395 -0.5321  1.4597  1.6371
 2774TIP3   OH229812   3.461   5.805   1.316 -0.1436 -0.0423  0.4358
 2774TIP3    H129813   3.444   5.802   1.222 -2.2525  0.5733  0.7362
 2774TIP3    H229814   3.480   5.897   1.334 -1.5590  0.1990  0.8369
 2775TIP3   OH229815   1.108   1.058  11.969 -0.6384 -0.1161  0.5600
 2775TIP3    H129816   1.071   1.097  11.890 -0.5817  0.4779  0.8196
 2775TIP3    H229817   1.104   0.964  11.954 -2.4608 -0.0892  0.6720
 2776TIP3   OH229818   1.476   4.806  13.713  0.3254  0.2250  0.3847
 2776TIP3    H129819   1.529   4.757  13.775  0.5891  0.6199  0.4739
 2776TIP3    H229820   1.513   4.784  13.627  1.0076  0.9443  0.4858
 2777TIP3   OH229821   1.652   2.854   1.009  0.2776  0.0525 -0.0898
 2777TIP3    H129822   1.649   2.763   1.040  0.9213 -0.1390 -0.5613
 2777TIP3    H229823   1.727   2.856   0.950 -0.5052  0.5769 -1.0871
 2778TIP3   OH229824   1.642   6.669   1.760 -0.3257  0.4191 -0.1297
 2778TIP3    H129825   1.642   6.704   1.849 -1.1836  1.9656 -0.7198
 2778TIP3    H229826   1.674   6.741   1.706 -1.9007  0.2385 -1.3458
 2779TIP3   OH229827   0.337   0.530   6.516  0.0123 -0.3767  0.4442
 2779TIP3    H129828   0.373   0.600   6.571 -1.9153 -0.4381  1.8709
 2779TIP3    H229829   0.255   0.565   6.481  0.4740 -0.8832 -1.2753
 2780TIP3   OH229830   0.289   4.958  15.926  0.2163 -0.0099  0.2946
 2780TIP3    H129831   0.323   4.883  15.974  1.2236 -1.3396 -2.3012
 2780TIP3    H229832   0.362   5.020  15.922 -0.4571  0.9725  1.9945
 2781TIP3   OH229833   2.535   0.457   3.489  0.3130 -0.0675 -0.0943
 2781TIP3    H129834   2.536   0.383   3.549  1.1725 -0.0477 -0.0662
 2781TIP3    H229835   2.627   0.484   3.483  0.4019 -0.6741 -2.1573
 2782TIP3   OH229836   2.296   2.222   2.734 -0.5035 -0.0090  0.1199
 2782TIP3    H129837   2.323   2.131   2.748  0.7852  0.6041  1.9943
 2782TIP3    H229838   2.365   2.259   2.678  0.2461  0.3978  1.2811
 2783TIP3   OH229839   5.281   3.014   1.179 -0.5911 -0.2457 -0.1419
 2783TIP3    H129840   5.347   2.989   1.244 -1.8546 -1.9927  0.5278
 2783TIP3    H229841   5.197   3.005   1.224 -1.4101  0.0712 -1.5383
 2784TIP3   OH229842   2.341   0.897   4.101  0.1021 -0.0256 -0.0134
 2784TIP3    H129843   2.383   0.979   4.124 -0.2217 -0.1639  1.1747
 2784TIP3    H229844   2.408   0.847   4.054  1.5716 -0.5091  2.3785
 2785TIP3   OH229845   0.933   3.428   0.242  0.1284  0.3047  0.2210
 2785TIP3    H129846   0.859   3.400   0.187  1.0225 -0.0475 -0.8390
 2785TIP3    H229847   0.922   3.523   0.249 -0.6272  0.2168  0.3963
 2786TIP3   OH229848   6.167   3.686  17.102  0.2542  0.1308  0.1205
 2786TIP3    H129849   6.241   3.639  17.141 -0.3192 -0.4361  0.5453
 2786TIP3    H229850   6.113   3.617  17.063  0.0471  0.5571 -0.3535
 2787TIP3   OH229851   4.039   3.787  13.362 -0.1033 -0.5523  0.3424
 2787TIP3    H129852   3.971   3.830  13.309  0.7336 -0.2307 -0.4929
 2787TIP3    H229853   4.070   3.715  13.307  0.3062 -0.6311  0.6744
 2788TIP3   OH229854   2.387   4.031   0.020  0.5688  0.2898 -0.0813
 2788TIP3    H129855   2.435   3.985  -0.049  0.8226 -1.4712  1.1962
 2788TIP3    H229856   2.454   4.070   0.075  0.5471 -1.0132  0.9266
 2789TIP3   OH229857   5.047   5.616   2.722  0.1212  0.1126  0.7528
 2789TIP3    H129858   5.003   5.542   2.681  0.7043 -0.2528  0.7780
 2789TIP3    H229859   5.113   5.577   2.779  0.0566  0.6390  1.2048
 2790TIP3   OH229860   3.780   0.906  14.956 -0.0087 -0.1329  0.1765
 2790TIP3    H129861   3.685   0.899  14.963  0.0395  0.7319  2.5609
 2790TIP3    H229862   3.810   0.816  14.941 -1.2379 -0.2151 -2.2847
 2791TIP3   OH229863   2.610   6.755  12.548 -0.1676 -0.5228  0.0259
 2791TIP3    H129864   2.638   6.667  12.572  0.1425 -1.1654 -2.4417
 2791TIP3    H229865   2.620   6.759  12.453 -0.1590  2.2027  0.0570
 2792TIP3   OH229866   4.923   5.407  11.677  0.1808 -0.6743  0.2983
 2792TIP3    H129867   4.900   5.427  11.587  0.3070  0.0975  0.4327
 2792TIP3    H229868   4.938   5.312  11.678  0.4459 -0.6459 -0.5487
 2793TIP3   OH229869   6.262   4.861   1.351  0.0177  1.7673 -0.0380
 2793TIP3    H129870   6.176   4.852   1.310  0.5366 -2.1665 -0.6225
 2793TIP3    H229871   6.243   4.896   1.438 -2.1509  1.2795 -0.2403
 2794TIP3   OH229872   1.632   4.038   2.800  0.0771 -0.3928  0.1425
 2794TIP3    H129873   1.536   4.044   2.794  0.1660  2.2531  0.4385
 2794TIP3    H229874   1.661   4.034   2.709 -0.2775 -1.4508  0.0512
 2795TIP3   OH229875   0.403   3.545   3.231 -0.8332  0.0624  0.1064
 2795TIP3    H129876   0.374   3.621   3.181  0.2404  0.3408 -0.1304
 2795TIP3    H229877   0.367   3.470   3.184  0.2618  0.3115 -1.2129
 2796TIP3   OH229878   6.216   1.976  13.598  0.6088 -0.1673 -0.0551
 2796TIP3    H129879   6.255   1.897  13.633  0.9277 -1.0539 -2.2502
 2796TIP3    H229880   6.130   1.981  13.640  1.0679 -0.9866  1.0232
 2797TIP3   OH229881   6.174   4.706   2.750  0.5454  0.0934  0.3026
 2797TIP3    H129882   6.189   4.617   2.717  0.5817 -0.4317  1.6728
 2797TIP3    H229883   6.257   4.751   2.734  0.3851  0.0406 -0.8060
 2798TIP3   OH229884   6.111   5.501   2.214 -0.9293 -0.6513 -0.2080
 2798TIP3    H129885   6.025   5.459   2.214  0.2204 -3.2286  1.2599
 2798TIP3    H229886   6.163   5.451   2.151  0.2151 -0.8624  0.8547
 2799TIP3   OH229887   6.697   2.815  12.121 -0.4330 -0.0806  0.2431
 2799TIP3    H129888   6.634   2.829  12.050  0.7693  1.4609 -0.5669
 2799TIP3    H229889   6.670   2.732  12.161 -1.9937 -0.2616 -1.0960
 2800TIP3   OH229890   4.114   4.331  11.169 -0.1647  0.5060  0.4143
 2800TIP3    H129891   4.039   4.284  11.207  0.6245  0.2142  1.6718
 2800TIP3    H229892   4.156   4.267  11.112  0.0538  0.1387  0.9786
 2801TIP3   OH229893   5.220   0.031  11.815 -0.0960 -0.5219  0.0254
 2801TIP3    H129894   5.303  -0.015  11.822  1.5692  1.9526 -1.6834
 2801TIP3    H229895   5.243   0.117  11.779 -3.2405  0.8195  0.8360
 2802TIP3   OH229896   4.496   2.939   1.947 -0.1910 -0.3331 -0.1521
 2802TIP3    H129897   4.417   2.987   1.973 -0.4034  0.1108 -1.5033
 2802TIP3    H229898   4.558   3.007   1.922  0.6217 -0.6825  0.8314
 2803TIP3   OH229899   3.792   6.441   2.694  0.2228  0.3444  0.2991
 2803TIP3    H129900   3.851   6.516   2.692 -0.5048  0.9449  0.7947
 2803TIP3    H229901   3.717   6.470   2.746  0.1679 -0.9028  0.9752
 2804TIP3   OH229902   3.967   4.096   4.210  0.0512  0.0894  0.2493
 2804TIP3    H129903   4.021   4.081   4.132 -0.7964  0.1864 -0.3660
 2804TIP3    H229904   3.971   4.013   4.258  1.4896  0.3938  0.6939
 2805TIP3   OH229905   3.016   6.250  12.892 -0.6296  0.1127 -0.1236
 2805TIP3    H129906   2.986   6.335  12.860 -1.6229  0.2590  1.1163
 2805TIP3    H229907   3.075   6.271  12.965 -1.0378 -0.2428  0.3190
 2806TIP3   OH229908   0.229   6.218   5.377  0.6428  0.4470  0.0049
 2806TIP3    H129909   0.164   6.268   5.327  0.3720  1.7712  1.5842
 2806TIP3    H229910   0.186   6.200   5.461  1.7924  0.0602  0.5322
 2807TIP3   OH229911   0.289   5.197  10.892  0.1958  0.2058  0.4622
 2807TIP3    H129912   0.366   5.155  10.855  1.5288 -0.5084  3.6991
 2807TIP3    H229913   0.322   5.279  10.930 -0.8839  0.5052  0.7929
 2808TIP3   OH229914   2.198   4.687  13.611  0.1921 -0.7084  0.2606
 2808TIP3    H129915   2.209   4.769  13.659 -0.0361 -0.3488 -0.2925
 2808TIP3    H229916   2.270   4.686  13.548 -0.1680 -0.6226 -0.1606
 2809TIP3   OH229917   0.583   1.042  14.725 -0.2422  0.9885  0.2823
 2809TIP3    H129918   0.528   1.058  14.649 -0.6064  2.0185  0.7428
 2809TIP3    H229919   0.524   1.006  14.791 -0.0033  0.4600  0.2161
 2810TIP3   OH229920   0.428   2.792  13.737  0.2685 -0.0833 -0.2853
 2810TIP3    H129921   0.457   2.865  13.681 -0.2711  1.2826  1.1233
 2810TIP3    H229922   0.352   2.756  13.693 -0.2864  1.1214 -0.3459
 2811TIP3   OH229923   0.642   4.990   1.706 -0.0799 -0.2602  0.2402
 2811TIP3    H129924   0.652   4.944   1.789 -0.6390 -1.3099 -0.2573
 2811TIP3    H229925   0.577   5.058   1.724 -0.2895 -0.5613  0.6244
 2812TIP3   OH229926   0.265   6.520   0.034 -0.3813 -0.1658  0.6018
 2812TIP3    H129927   0.259   6.613   0.056 -1.0124 -0.1495  0.3752
 2812TIP3    H229928   0.214   6.511  -0.046 -0.8239 -0.8195  0.9522
 2813TIP3   OH229929   0.057   5.475  16.815 -0.3618  0.2193 -0.2848
 2813TIP3    H129930   0.114   5.411  16.857 -1.1344  0.0886  0.6076
 2813TIP3    H229931  -0.008   5.497  16.882 -2.0343 -0.4572 -1.5871
 2814TIP3   OH229932   4.004   2.179  12.882 -0.1163  0.0518  0.1973
 2814TIP3    H129933   4.070   2.232  12.838  0.1828  0.3124  0.9295
 2814TIP3    H229934   3.925   2.187  12.828 -0.0510  1.1889  0.2544
 2815TIP3   OH229935   2.315   4.570   0.796 -0.1680  0.5896  0.0500
 2815TIP3    H129936   2.283   4.550   0.708 -1.0590 -1.3030  0.7268
 2815TIP3    H229937   2.376   4.642   0.784  0.8401 -0.5387 -2.3156
 2816TIP3   OH229938   2.078   0.164  16.183 -0.2983  0.3471  0.1734
 2816TIP3    H129939   2.134   0.167  16.260 -0.1597 -1.4784  0.1954
 2816TIP3    H229940   2.015   0.094  16.202  0.6197 -1.1538 -1.8861
 2817TIP3   OH229941   6.506   6.447   4.805  0.1678  0.2186 -0.3884
 2817TIP3    H129942   6.558   6.464   4.884 -1.1635 -0.0872  0.6093
 2817TIP3    H229943   6.538   6.362   4.773  0.5054  0.1840  0.0257
 2818TIP3   OH229944   1.629   2.359   3.855  0.3011 -0.0710 -0.3848
 2818TIP3    H129945   1.598   2.391   3.770 -1.2509  2.1079  0.8972
 2818TIP3    H229946   1.720   2.388   3.859  0.7489 -1.1873 -1.7317
 2819TIP3   OH229947   0.091   0.518   2.765 -0.8274 -0.3415 -0.2277
 2819TIP3    H129948   0.153   0.589   2.747 -1.0795 -0.2008 -0.5510
 2819TIP3    H229949   0.146   0.440   2.775 -0.6404 -0.3557 -1.2312
 2820TIP3   OH229950   4.574   6.519  10.960 -0.5651 -0.3871  0.3180
 2820TIP3    H129951   4.635   6.521  10.887 -0.3467  1.0809  0.5119
 2820TIP3    H229952   4.534   6.606  10.961 -0.9778 -0.5629  1.5880
 2821TIP3   OH229953   5.089   6.614  13.844  0.4115 -0.6351 -0.0696
 2821TIP3    H129954   5.184   6.604  13.834  0.8604  0.8629  1.9724
 2821TIP3    H229955   5.067   6.560  13.920  0.0710  0.7966  0.8853
 2822TIP3   OH229956   6.505   4.491   4.183  0.2725 -0.4598 -0.0736
 2822TIP3    H129957   6.528   4.417   4.127 -1.2147 -1.5018  0.6339
 2822TIP3    H229958   6.416   4.515   4.157  0.6709  0.9969 -0.1793
 2823TIP3   OH229959   6.375   0.734   0.672  0.6259  0.2467  0.0360
 2823TIP3    H129960   6.408   0.732   0.582 -0.3906  1.2463 -0.3767
 2823TIP3    H229961   6.358   0.826   0.690  0.9528  0.0746  1.3188
 2824TIP3   OH229962   5.640   4.231  13.042 -1.0053  0.0074 -0.8822
 2824TIP3    H129963   5.641   4.270  13.129  1.9949 -2.3841  0.3317
 2824TIP3    H229964   5.718   4.266  12.998 -1.4621 -0.2294 -1.9301
 2825TIP3   OH229965   4.677   1.998   4.480  0.2640 -0.1379  0.6164
 2825TIP3    H129966   4.702   1.906   4.486 -0.0314 -0.3378 -0.9297
 2825TIP3    H229967   4.707   2.026   4.394  0.4640  1.2633  1.1094
 2826TIP3   OH229968   6.154   2.185  12.392  0.4351  0.1560 -0.1427
 2826TIP3    H129969   6.090   2.218  12.455  0.0262 -0.4693 -0.2286
 2826TIP3    H229970   6.119   2.210  12.306  0.1039 -0.5233 -0.2104
 2827TIP3   OH229971   1.788   4.457  14.830  0.2823  0.4765  0.4864
 2827TIP3    H129972   1.794   4.449  14.735  1.0449  1.4478  0.4398
 2827TIP3    H229973   1.756   4.371  14.859 -0.0103  0.1867 -0.6406
 2828TIP3   OH229974   0.911   5.396   0.669 -0.2106 -0.0777 -0.2450
 2828TIP3    H129975   0.839   5.344   0.708  1.3194 -1.3551  1.0275
 2828TIP3    H229976   0.958   5.334   0.614 -1.0891  1.2080 -2.5681
 2829TIP3   OH229977   6.783   2.886  16.677  0.2363 -0.5450  0.2289
 2829TIP3    H129978   6.700   2.851  16.709 -0.1643 -0.6177 -0.8514
 2829TIP3    H229979   6.767   2.979  16.665  0.4129 -0.5041  0.2934
 2830TIP3   OH229980   3.740   1.460   1.068 -0.7584  0.3795 -0.0444
 2830TIP3    H129981   3.786   1.524   1.014  1.3111 -0.7753  0.2233
 2830TIP3    H229982   3.713   1.509   1.146  1.6155  0.8303  0.5880
 2831TIP3   OH229983   6.618   2.084   3.584 -0.7820 -0.0384  1.1367
 2831TIP3    H129984   6.628   2.178   3.571  2.6284 -0.1456  2.1146
 2831TIP3    H229985   6.631   2.046   3.497 -0.0772  0.3129  1.0813
 2832TIP3   OH229986   2.921   0.555  11.056 -0.3709 -0.1868  0.6568
 2832TIP3    H129987   2.867   0.630  11.083  0.4493  0.2587  1.0948
 2832TIP3    H229988   2.980   0.591  10.989  0.2917 -0.3359  1.1506
 2833TIP3   OH229989   1.537   6.125  14.491  0.0417 -0.5437 -0.1033
 2833TIP3    H129990   1.620   6.169  14.469 -0.3641 -0.7242 -2.1653
 2833TIP3    H229991   1.563   6.052  14.547  1.3958 -1.0220 -1.2932
 2834TIP3   OH229992   3.763   5.464  13.996  0.0662  0.1299 -0.2680
 2834TIP3    H129993   3.773   5.406  14.072 -4.2271 -0.6120 -0.0247
 2834TIP3    H229994   3.801   5.547  14.024  1.9931 -1.1521  1.2000
 2835TIP3   OH229995   0.065   4.224   5.384 -0.0660  0.1660  0.0091
 2835TIP3    H129996   0.015   4.142   5.380  0.3772 -0.2011  1.3951
 2835TIP3    H229997   0.006   4.286   5.427  0.3926 -0.0667  0.9940
 2836TIP3   OH229998   3.487   4.033   1.876  0.0092 -0.0802  0.1496
 2836TIP3    H129999   3.462   4.124   1.861  0.4367  0.2557  1.4046
 2836TIP3    H230000   3.414   3.982   1.839  0.4303  0.7012 -1.8580
 2837TIP3   OH230001   2.538   3.358   4.052  0.3942  1.4034  0.2217
 2837TIP3    H130002   2.513   3.418   3.981  1.2143 -0.5839 -1.8721
 2837TIP3    H230003   2.585   3.413   4.115  1.7561  2.8480 -1.9356
 2838TIP3   OH230004   5.281   1.046   5.769  0.0774  0.3462 -0.0382
 2838TIP3    H130005   5.350   1.109   5.748 -0.5966  1.1114 -0.0495
 2838TIP3    H230006   5.208   1.071   5.712 -0.0852 -0.6856 -0.3012
 2839TIP3   OH230007   3.425   2.803   1.275  0.0900  0.5233  0.2635
 2839TIP3    H130008   3.418   2.836   1.185 -0.4585  1.2055  0.5449
 2839TIP3    H230009   3.430   2.708   1.265 -1.7834  0.4441 -0.4214
 2840TIP3   OH230010   2.293   4.128  10.948 -0.3147 -0.0243  0.1527
 2840TIP3    H130011   2.387   4.112  10.943  0.0247  1.3684  1.3525
 2840TIP3    H230012   2.258   4.092  10.867  1.3340 -0.0625 -0.5764
 2841TIP3   OH230013   0.911   0.718   0.611  0.7279  0.7187 -0.3961
 2841TIP3    H130014   0.819   0.743   0.622  0.6938 -0.1756  1.7902
 2841TIP3    H230015   0.950   0.791   0.562 -0.7991  1.8194 -0.0559
 2842TIP3   OH230016   6.079   1.320  14.878  0.1728  0.0511  0.1073
 2842TIP3    H130017   6.040   1.337  14.964 -0.6274  0.4487 -0.3189
 2842TIP3    H230018   6.106   1.229  14.882 -2.1315 -0.7032 -0.0430
 2843TIP3   OH230019   5.703   1.262  16.045 -0.2974 -0.3896 -0.7952
 2843TIP3    H130020   5.645   1.306  15.982 -0.4741 -0.2848 -0.5639
 2843TIP3    H230021   5.713   1.173  16.011  1.4305  0.2731 -2.1956
 2844TIP3   OH230022   4.882   1.077  15.438  0.1745  0.3176 -0.2110
 2844TIP3    H130023   4.794   1.114  15.443  0.4051  0.7684  0.8025
 2844TIP3    H230024   4.870   0.985  15.461 -0.0359  0.3741 -0.0846
 2845TIP3   OH230025   5.743   3.961   2.092 -0.4417 -0.3231 -0.5699
 2845TIP3    H130026   5.674   3.902   2.060 -1.5758  0.2601  0.7350
 2845TIP3    H230027   5.789   3.910   2.158 -1.5486  0.2638  0.7028
 2846TIP3   OH230028   5.624   5.045  11.287  0.2061  0.4764 -0.1828
 2846TIP3    H130029   5.551   5.053  11.348  1.4056  0.9497  1.2709
 2846TIP3    H230030   5.702   5.041  11.344  1.2136 -1.9458 -1.5558
 2847TIP3   OH230031   3.289   5.397  13.461  0.4104  0.3052 -0.1021
 2847TIP3    H130032   3.337   5.473  13.495  0.9982 -0.7134  1.4411
 2847TIP3    H230033   3.247   5.358  13.538  0.1012 -0.9180 -0.8623
 2848TIP3   OH230034   4.133   3.222   1.658  0.3897  0.1279  0.1522
 2848TIP3    H130035   4.086   3.305   1.660  0.0279 -0.0633 -0.0502
 2848TIP3    H230036   4.177   3.221   1.573 -2.3629 -1.3224 -1.4221
 2849TIP3   OH230037   3.911   0.911   4.202 -0.4341  0.3826  0.0869
 2849TIP3    H130038   3.951   0.834   4.243 -1.6485 -1.3061 -1.7205
 2849TIP3    H230039   3.958   0.921   4.119 -0.6836  1.2437  0.0393
 2850TIP3   OH230040   3.380   0.399   2.204 -0.3362  0.0544  0.0663
 2850TIP3    H130041   3.421   0.388   2.118 -0.2055  0.4086  0.0788
 2850TIP3    H230042   3.450   0.436   2.258 -0.9911  1.8543 -0.2301
 2851TIP3   OH230043   0.703   3.653  13.296 -0.4208  0.2653  0.0639
 2851TIP3    H130044   0.625   3.665  13.349 -0.6672 -0.6189 -0.0802
 2851TIP3    H230045   0.716   3.737  13.252 -1.3892  0.3641 -0.0399
 2852TIP3   OH230046   6.282   1.508  15.438  0.5034 -0.0441 -0.3398
 2852TIP3    H130047   6.320   1.593  15.463 -2.0278  0.5446  1.8772
 2852TIP3    H230048   6.233   1.526  15.358 -1.5596  1.1375  1.1086
 2853TIP3   OH230049   0.253   0.061   0.923 -0.2285 -0.7956  0.2231
 2853TIP3    H130050   0.328   0.045   0.981 -0.8680 -0.2050  1.2533
 2853TIP3    H230051   0.257   0.155   0.905  0.8135 -1.2000 -1.9519
 2854TIP3   OH230052   0.014   1.216   5.508  0.3310 -0.7307  0.3105
 2854TIP3    H130053   0.078   1.255   5.568 -2.3549  0.8418  2.4009
 2854TIP3    H230054  -0.065   1.205   5.561 -1.7723 -0.7058 -2.5635
 2855TIP3   OH230055   5.201   3.043   0.457  0.1275  0.6726  0.2247
 2855TIP3    H130056   5.144   2.967   0.469 -0.8487  1.1889 -0.9411
 2855TIP3    H230057   5.171   3.106   0.523 -1.2960  1.2865 -0.9671
 2856TIP3   OH230058   5.608   5.850  15.104  0.3585 -0.3752 -0.1198
 2856TIP3    H130059   5.646   5.826  15.189  0.8446  0.1339 -0.1883
 2856TIP3    H230060   5.546   5.920  15.124 -0.2216 -0.8944 -0.0677
 2857TIP3   OH230061   0.599   2.932   5.368  0.5617 -0.1525 -0.7183
 2857TIP3    H130062   0.660   2.874   5.324  1.2110 -0.1090  0.1131
 2857TIP3    H230063   0.630   3.020   5.347 -1.1544 -0.0060 -3.0477
 2858TIP3   OH230064   3.985   3.620  16.551 -0.0570 -0.2388 -0.2016
 2858TIP3    H130065   3.979   3.576  16.636 -2.6097 -2.3229 -1.3202
 2858TIP3    H230066   3.942   3.705  16.566  1.7158  0.4825  1.1181
 2859TIP3   OH230067   5.785   0.290  15.689  0.2568 -0.1858  0.2507
 2859TIP3    H130068   5.720   0.235  15.733  0.4480 -0.8457 -0.2781
 2859TIP3    H230069   5.858   0.231  15.670 -0.3681 -0.2767 -2.1619
 2860TIP3   OH230070   5.665   4.008  16.206  0.0700  0.1942  0.1106
 2860TIP3    H130071   5.755   4.040  16.205  0.5675 -1.0600  1.1494
 2860TIP3    H230072   5.621   4.060  16.273 -0.2206  1.3459 -0.9425
 2861TIP3   OH230073   2.556   4.386  14.316  0.0678  0.1875  0.0928
 2861TIP3    H130074   2.504   4.374  14.396 -0.7679 -2.8404 -0.7498
 2861TIP3    H230075   2.637   4.337  14.333 -0.0385 -0.3218 -0.8148
 2862TIP3   OH230076   6.208   2.291   3.985  0.0512 -0.0644 -0.3487
 2862TIP3    H130077   6.294   2.332   3.998 -1.3173  2.6171  1.1672
 2862TIP3    H230078   6.221   2.200   4.010  2.3845  0.3403  0.1843
 2863TIP3   OH230079   1.864   1.910  14.181 -0.2733 -0.1567  0.2074
 2863TIP3    H130080   1.910   1.970  14.122  2.5108 -2.0988  0.2197
 2863TIP3    H230081   1.893   1.936  14.269  1.5439 -1.8796  0.1676
 2864TIP3   OH230082   5.188   3.431  15.760  0.3526 -0.0277 -0.4942
 2864TIP3    H130083   5.228   3.514  15.734 -0.2241  0.4930  0.2552
 2864TIP3    H230084   5.247   3.396  15.827  0.1271  0.2141 -0.1677
 2865TIP3   OH230085   5.522   1.675  12.116 -0.5708  0.4446  0.4018
 2865TIP3    H130086   5.529   1.583  12.091 -0.5799  0.1416  1.4686
 2865TIP3    H230087   5.430   1.686  12.140 -0.2633  0.3252  1.7243
 2866TIP3   OH230088   5.480   5.568   2.983 -0.0632 -0.3083 -0.0194
 2866TIP3    H130089   5.490   5.624   2.906 -0.5569 -0.5843 -0.2897
 2866TIP3    H230090   5.488   5.628   3.057 -0.3620  0.0892 -0.3004
 2867TIP3   OH230091   2.491   5.462  11.069  0.9018 -0.1806  0.1221
 2867TIP3    H130092   2.555   5.393  11.087  0.0947 -1.0066 -0.1014
 2867TIP3    H230093   2.483   5.463  10.974 -0.2573 -0.8917  0.1945
 2868TIP3   OH230094   2.834   0.040  11.264 -0.4038  0.6988 -0.1646
 2868TIP3    H130095   2.918   0.060  11.223 -0.9519  1.5655 -0.8919
 2868TIP3    H230096   2.817  -0.051  11.242  1.2524 -0.1271  1.6328
 2869TIP3   OH230097   1.035   1.795   4.294  0.6227  0.0661 -0.1211
 2869TIP3    H130098   1.006   1.822   4.381  1.8188  1.8182 -0.1936
 2869TIP3    H230099   1.109   1.853   4.276 -0.5934  0.8588 -2.9776
 2870TIP3   OH230100   5.159   2.746   2.501 -0.1317  0.2979 -0.5798
 2870TIP3    H130101   5.104   2.812   2.544  0.4871  1.0922 -0.9711
 2870TIP3    H230102   5.147   2.667   2.553 -1.4162  0.5312 -0.4831
 2871TIP3   OH230103   4.575   5.674  15.218 -0.6388  0.0206 -0.3107
 2871TIP3    H130104   4.524   5.603  15.180 -0.4891  1.0396 -2.5237
 2871TIP3    H230105   4.518   5.710  15.286 -0.7668 -2.0596  0.7773
 2872TIP3   OH230106   0.074   2.406  16.845 -0.1672 -0.3477 -0.6276
 2872TIP3    H130107   0.029   2.448  16.771 -1.4513 -1.1132 -0.3081
 2872TIP3    H230108   0.007   2.401  16.914  0.2190 -2.1008 -0.3544
 2873TIP3   OH230109   1.517   4.139  13.764  0.0975  0.3777 -0.3769
 2873TIP3    H130110   1.426   4.119  13.787  0.7517 -2.6748 -0.0638
 2873TIP3    H230111   1.563   4.142  13.848  0.7368 -0.7880 -0.6715
 2874TIP3   OH230112   2.392   5.306   0.164  0.0500  0.8728  0.4938
 2874TIP3    H130113   2.397   5.346   0.077 -0.1979  0.7151  0.4046
 2874TIP3    H230114   2.341   5.226   0.150 -0.8340  1.3418  0.9670
 2875TIP3   OH230115   2.048   6.416   3.014  0.7658  0.1453 -0.0070
 2875TIP3    H130116   2.070   6.486   2.953 -0.3612 -0.2178 -0.8895
 2875TIP3    H230117   1.959   6.390   2.988  0.2400 -0.0057  1.8265
 2876TIP3   OH230118   2.415   4.213   0.502  0.0104  0.1679  0.3517
 2876TIP3    H130119   2.419   4.117   0.501  0.1290  0.1494  1.5324
 2876TIP3    H230120   2.423   4.236   0.594 -1.4908  1.2491  0.2452
 2877TIP3   OH230121   2.010   6.343  14.059 -0.3034  0.1566  0.1898
 2877TIP3    H130122   2.083   6.371  14.004  0.0161 -1.1347 -0.0892
 2877TIP3    H230123   2.024   6.248  14.070 -1.9978 -0.1317  0.0472
 2878TIP3   OH230124   2.155   0.980  15.515 -0.0517  0.1783 -0.2776
 2878TIP3    H130125   2.113   1.055  15.557  1.3433  0.2920  0.9797
 2878TIP3    H230126   2.199   0.934  15.586  1.0611 -0.5183 -1.3721
 2879TIP3   OH230127   2.150   1.066  14.446  0.0773  0.1187 -0.3143
 2879TIP3    H130128   2.214   1.092  14.512 -0.6568 -0.9113  0.8397
 2879TIP3    H230129   2.198   1.004  14.390  0.9754  1.6907 -1.3666
 2880TIP3   OH230130   4.175   1.201  11.258 -0.4150  0.3024  0.0486
 2880TIP3    H130131   4.142   1.115  11.286 -0.2641  0.9474  2.3761
 2880TIP3    H230132   4.101   1.241  11.211 -1.3129 -0.1591  1.0370
 2881TIP3   OH230133   1.435   0.563   3.783 -0.3596  0.4455  0.7399
 2881TIP3    H130134   1.345   0.541   3.810 -0.1661  1.4877  2.3940
 2881TIP3    H230135   1.486   0.486   3.806 -0.7870 -0.0676 -0.0019
 2882TIP3   OH230136   4.530   2.423   1.972  0.1809  0.4945 -0.0564
 2882TIP3    H130137   4.594   2.491   1.950 -0.0394  0.4429 -0.8820
 2882TIP3    H230138   4.462   2.432   1.905  0.6688 -1.2245 -0.8309
 2883TIP3   OH230139   0.208   1.783  11.396  0.1028 -0.2741  0.0622
 2883TIP3    H130140   0.293   1.822  11.417 -0.0457  0.3945 -0.5797
 2883TIP3    H230141   0.184   1.736  11.476  0.7838  0.0447  0.4676
 2884TIP3   OH230142   4.741   1.671   5.513  0.4859  0.3487  0.4018
 2884TIP3    H130143   4.661   1.650   5.563  2.0726 -1.2093  2.5037
 2884TIP3    H230144   4.709   1.716   5.435 -2.5532 -1.2638  0.5316
 2885TIP3   OH230145   3.253   6.437  14.533  0.1939 -0.3841 -0.0301
 2885TIP3    H130146   3.259   6.506  14.466 -1.0998 -0.3487 -0.1428
 2885TIP3    H230147   3.185   6.468  14.593  0.8627 -0.7366  0.9380
 2886TIP3   OH230148   4.954   0.818  14.843 -0.3278  0.2644  0.1159
 2886TIP3    H130149   4.919   0.735  14.813  0.0159  0.1137  0.1260
 2886TIP3    H230150   4.940   0.817  14.938  0.4149 -0.1409  0.2264
 2887TIP3   OH230151   3.287   0.177  10.536  0.5115  0.5765 -0.0351
 2887TIP3    H130152   3.354   0.125  10.581  0.5290 -1.0184 -1.7553
 2887TIP3    H230153   3.205   0.130  10.554  0.5227 -0.1014 -1.5943
 2888TIP3   OH230154   5.463   4.458   1.731 -0.6733  0.0967  0.1625
 2888TIP3    H130155   5.527   4.414   1.675 -0.6512  0.1878  0.1161
 2888TIP3    H230156   5.445   4.395   1.801  0.6776  0.6880  1.0764
 2889TIP3   OH230157   6.523   6.738  14.957 -0.1796  0.0876  0.1737
 2889TIP3    H130158   6.598   6.708  15.008  0.2821  0.3760 -0.3253
 2889TIP3    H230159   6.492   6.659  14.911 -1.7434 -0.6170  2.2489
 2890TIP3   OH230160   3.235   2.100   1.851  0.4735 -0.5279 -0.0551
 2890TIP3    H130161   3.167   2.167   1.858  1.0486  0.0991 -0.4115
 2890TIP3    H230162   3.224   2.047   1.930  2.1733  2.0067  2.0450
 2891TIP3   OH230163   1.138   6.480  14.275  0.2816  0.7335  0.0645
 2891TIP3    H130164   1.168   6.474  14.366 -1.3382 -0.7886  0.5569
 2891TIP3    H230165   1.134   6.390  14.245 -2.0287  0.9586 -0.5098
 2892TIP3   OH230166   2.323   5.520   5.344  0.0090 -0.2476  0.5070
 2892TIP3    H130167   2.389   5.589   5.354  0.1845 -0.4586  0.7994
 2892TIP3    H230168   2.258   5.558   5.284  1.2510 -0.6796 -1.1872
 2893TIP3   OH230169   4.861   1.031  12.083  0.0036 -0.1463  0.3282
 2893TIP3    H130170   4.857   0.986  11.999  0.6181  1.7146 -0.7545
 2893TIP3    H230171   4.771   1.059  12.100 -0.5708 -2.3648  1.4396
 2894TIP3   OH230172   4.629   1.101   2.457 -0.1878 -0.0147 -0.2937
 2894TIP3    H130173   4.723   1.089   2.448 -0.5140 -1.6881 -2.3007
 2894TIP3    H230174   4.595   1.012   2.470 -1.4217  0.6699  1.4666
 2895TIP3   OH230175   0.296   5.938   4.112 -0.2958  0.2570  0.3486
 2895TIP3    H130176   0.375   5.990   4.096 -0.7847  0.8162 -0.3741
 2895TIP3    H230177   0.234   6.001   4.149 -0.6902  0.0376  0.0673
 2896TIP3   OH230178   1.633   0.083   3.892 -0.1955  0.0713 -0.1073
 2896TIP3    H130179   1.705   0.130   3.935 -1.3099 -0.6995  2.8347
 2896TIP3    H230180   1.578   0.153   3.856 -0.8192  1.0219  2.5014
 2897TIP3   OH230181   2.684   0.743   1.668 -0.0590 -0.3834 -0.3240
 2897TIP3    H130182   2.737   0.689   1.609  2.2855 -0.1174  1.4299
 2897TIP3    H230183   2.626   0.681   1.712 -0.3182 -0.8535 -1.2837
 2898TIP3   OH230184   1.297   1.240  12.360  0.0673 -0.1158 -0.9728
 2898TIP3    H130185   1.311   1.275  12.448 -1.3714 -1.4606 -0.1379
 2898TIP3    H230186   1.373   1.269  12.309  1.6842 -0.4938  1.0908
 2899TIP3   OH230187   4.811   1.240  12.717 -0.1604 -0.2996 -0.4579
 2899TIP3    H130188   4.890   1.219  12.667 -1.5873  0.3972 -3.2362
 2899TIP3    H230189   4.800   1.334  12.707 -1.0332 -0.2871  0.4118
 2900TIP3   OH230190   4.165   6.366   0.273  0.5107  0.1898 -0.2763
 2900TIP3    H130191   4.141   6.364   0.180 -1.7330  1.1845  0.2082
 2900TIP3    H230192   4.148   6.277   0.304  0.9482 -0.0590 -0.7405
 2901TIP3   OH230193   4.190   2.727   1.183  0.6674  0.6183 -0.1370
 2901TIP3    H130194   4.176   2.781   1.106 -0.0819 -0.2520 -0.6253
 2901TIP3    H230195   4.109   2.677   1.193  0.8449  0.5313  1.0704
 2902TIP3   OH230196   0.815   4.688  15.425  0.0072 -0.4226 -0.1809
 2902TIP3    H130197   0.873   4.639  15.367 -1.8772 -1.8042 -1.0135
 2902TIP3    H230198   0.756   4.735  15.366  0.5783  1.4188  0.6399
 2903TIP3   OH230199   5.992   2.554  14.048  0.1329  0.0702 -0.5548
 2903TIP3    H130200   5.983   2.620  13.979  0.9405  0.4623 -0.3022
 2903TIP3    H230201   6.051   2.595  14.112  0.4956 -0.8202 -0.3053
 2904TIP3   OH230202   0.312   6.188   1.015  0.2815  0.4028 -0.2846
 2904TIP3    H130203   0.244   6.121   1.022  0.3910 -0.0212 -2.5916
 2904TIP3    H230204   0.392   6.144   1.045 -0.0169  0.1361  0.1212
 2905TIP3   OH230205   3.910   5.014   4.965  0.1556  0.5287  0.2043
 2905TIP3    H130206   3.838   4.963   5.001 -0.4092  0.6697 -0.6963
 2905TIP3    H230207   3.948   5.059   5.040 -1.2492  1.1206  0.5744
 2906TIP3   OH230208   1.936   1.009  16.438 -0.4809  0.2751 -0.3758
 2906TIP3    H130209   1.855   0.960  16.456  0.0101 -0.8742 -1.1855
 2906TIP3    H230210   1.954   1.055  16.520 -1.0339 -0.8026  0.3854
 2907TIP3   OH230211   6.590   3.365   4.589 -0.1669 -0.1187  0.0218
 2907TIP3    H130212   6.585   3.415   4.670 -0.6980  0.4908 -0.3739
 2907TIP3    H230213   6.613   3.276   4.616  1.7191  0.5065  0.6867
 2908TIP3   OH230214   1.104   1.122   2.877 -0.3518 -0.6029  0.3282
 2908TIP3    H130215   1.191   1.122   2.918 -0.1780  1.1180  0.0609
 2908TIP3    H230216   1.071   1.210   2.894 -1.5241 -0.8305 -0.6736
 2909TIP3   OH230217   0.551   4.352  15.830 -0.2928 -0.1391  0.3434
 2909TIP3    H130218   0.498   4.385  15.902 -0.2053 -0.0539  0.3685
 2909TIP3    H230219   0.501   4.375  15.751 -0.3536 -0.1690  0.3733
 2910TIP3   OH230220   6.353   2.929  13.804 -0.0346 -0.6580  0.4143
 2910TIP3    H130221   6.431   2.895  13.762 -0.6298 -1.2921 -0.2020
 2910TIP3    H230222   6.307   2.852  13.836 -0.9112 -0.3799 -0.1360
 2911TIP3   OH230223   0.107   1.115  16.136 -0.1945  0.4493  0.1028
 2911TIP3    H130224   0.012   1.124  16.144 -0.0907  0.9594  0.7896
 2911TIP3    H230225   0.120   1.023  16.113 -0.9995  0.8866 -2.4604
 2912TIP3   OH230226   4.339   5.903   6.074 -0.1652 -0.0711 -0.9129
 2912TIP3    H130227   4.313   5.821   6.115 -1.6941  1.1769  0.7947
 2912TIP3    H230228   4.397   5.944   6.138  1.6878 -0.3518 -2.3261
 2913TIP3   OH230229   5.686   4.765  17.108 -0.2014  0.0226  0.2566
 2913TIP3    H130230   5.612   4.745  17.165 -0.1844 -0.2622  0.1828
 2913TIP3    H230231   5.661   4.729  17.023  1.2654 -2.8052  0.9165
 2914TIP3   OH230232   4.297   5.965   3.024  0.5870  0.5214  0.1747
 2914TIP3    H130233   4.216   6.014   3.039 -1.2595 -2.3011  0.2015
 2914TIP3    H230234   4.304   5.960   2.928  0.6591  0.6417  0.1733
 2915TIP3   OH230235   3.986   2.323   2.632 -0.0596  0.2033 -0.3590
 2915TIP3    H130236   3.926   2.393   2.657  0.6215  0.2002  1.3905
 2915TIP3    H230237   4.056   2.367   2.584 -0.2257  0.5498 -0.2863
 2916TIP3   OH230238   6.283   3.898   0.728  0.1384 -0.9449 -0.7274
 2916TIP3    H130239   6.193   3.919   0.753  0.3369  1.6398 -1.8394
 2916TIP3    H230240   6.334   3.909   0.808 -0.1473  0.6949 -0.7346
 2917TIP3   OH230241   1.617   6.139   4.886  0.4556  0.6553 -0.6384
 2917TIP3    H130242   1.617   6.044   4.874  1.7203  0.2775  1.7863
 2917TIP3    H230243   1.544   6.170   4.833 -0.8071 -1.8198 -0.4763
 2918TIP3   OH230244   2.705   3.300  13.125 -0.5684  0.6645 -0.6348
 2918TIP3    H130245   2.732   3.376  13.176 -1.0320  0.5961 -0.2781
 2918TIP3    H230246   2.650   3.335  13.056 -1.4967  0.5742  0.0471
 2919TIP3   OH230247   1.927   3.996  15.256 -0.5205  0.1979  0.2675
 2919TIP3    H130248   1.966   4.014  15.342 -0.3853  0.2372  0.1973
 2919TIP3    H230249   1.883   4.077  15.232  0.4218  0.5845 -0.2296
 2920TIP3   OH230250   3.885   1.724   5.616 -0.4112  0.6884 -0.6746
 2920TIP3    H130251   3.943   1.674   5.558 -0.7877 -2.4341  1.3767
 2920TIP3    H230252   3.945   1.768   5.676  0.0634 -2.2215  1.1971
 2921TIP3   OH230253   5.626   6.472   4.996  0.2158 -0.1948 -0.4586
 2921TIP3    H130254   5.672   6.448   4.916 -0.2985  1.2274 -1.2140
 2921TIP3    H230255   5.534   6.452   4.979  0.2702 -1.1809  0.3099
 2922TIP3   OH230256   6.217   4.848  15.893 -0.4225 -0.3783  0.1155
 2922TIP3    H130257   6.220   4.867  15.986 -2.3585  1.5437 -0.1450
 2922TIP3    H230258   6.152   4.778  15.884 -0.8416  0.0069  0.1379
 2923TIP3   OH230259   2.105   4.173  14.251  0.4015  0.4333  0.0058
 2923TIP3    H130260   2.128   4.122  14.328 -1.2431 -0.8790 -0.3236
 2923TIP3    H230261   2.089   4.262  14.284  3.0278  0.7565  0.6230
 2924TIP3   OH230262   6.147   5.703   0.931  0.3242  0.1989  0.1145
 2924TIP3    H130263   6.121   5.701   0.838 -0.9751 -1.2675  0.4756
 2924TIP3    H230264   6.139   5.796   0.955 -0.7376  0.3902 -0.8660
 2925TIP3   OH230265   2.576   3.344  15.385  0.0663 -0.0541 -0.3525
 2925TIP3    H130266   2.548   3.358  15.294  2.2225 -2.4197 -1.5373
 2925TIP3    H230267   2.538   3.260  15.409  0.3368  0.0726  0.5655
 2926TIP3   OH230268   4.613   5.813   2.052  0.3906 -0.0125 -0.4689
 2926TIP3    H130269   4.585   5.858   2.131  0.7388 -0.0789 -0.3031
 2926TIP3    H230270   4.634   5.883   1.990 -2.3288  0.0563 -1.4239
 2927TIP3   OH230271   4.859   4.013   4.324 -0.0452  1.0160  0.2781
 2927TIP3    H130272   4.906   3.996   4.243  1.1642 -0.7474  1.2777
 2927TIP3    H230273   4.781   3.959   4.320 -0.4071  1.5515 -0.0374
 2928TIP3   OH230274   6.561   1.030   0.421 -0.3251 -0.2211  0.5736
 2928TIP3    H130275   6.575   0.967   0.350 -2.4784  0.8359 -0.9221
 2928TIP3    H230276   6.560   0.977   0.500  2.0108 -1.4790 -0.1106
 2929TIP3   OH230277   3.638   4.310  11.093 -0.0782  0.0448  0.1372
 2929TIP3    H130278   3.649   4.227  11.047  0.6300  0.1469  0.1043
 2929TIP3    H230279   3.573   4.292  11.161 -1.3346 -0.0471 -1.0487
 2930TIP3   OH230280   0.976   5.116  15.067  0.2321  0.1656 -0.3188
 2930TIP3    H130281   0.913   5.139  14.998 -1.0091  0.7796  0.9527
 2930TIP3    H230282   1.057   5.160  15.042 -0.1238  0.1619 -1.5087
 2931TIP3   OH230283   4.132   5.109  15.946  0.3320 -0.0748 -0.6614
 2931TIP3    H130284   4.224   5.096  15.925  0.3965  1.0727 -1.2042
 2931TIP3    H230285   4.133   5.173  16.018 -0.0390  0.0466 -0.7632
 2932TIP3   OH230286   1.499   5.664   2.117 -0.1019  0.1349 -0.1638
 2932TIP3    H130287   1.471   5.596   2.056 -1.1161  0.4279 -0.0396
 2932TIP3    H230288   1.447   5.648   2.196  0.3050  0.5102  0.1903
 2933TIP3   OH230289   2.952   1.089  13.977 -0.1404  0.4539  0.4153
 2933TIP3    H130290   2.920   1.172  14.014 -1.7209 -0.0448  0.2452
 2933TIP3    H230291   2.945   1.026  14.048 -1.4946 -0.1022 -0.1566
 2934TIP3   OH230292   2.752   4.127   0.449 -0.2529 -0.0490 -0.5599
 2934TIP3    H130293   2.720   4.067   0.515  0.2278 -0.0206 -0.2966
 2934TIP3    H230294   2.778   4.205   0.498 -1.1853  0.5083 -0.9318
 2935TIP3   OH230295   6.256   6.053  12.545 -0.0261  0.5771  0.9487
 2935TIP3    H130296   6.330   6.109  12.568  0.7420  0.4228 -0.8919
 2935TIP3    H230297   6.290   5.964  12.551  1.0250  0.5418 -2.7435
 2936TIP3   OH230298   6.042   6.624   0.759 -0.3542  0.2005  0.7532
 2936TIP3    H130299   6.092   6.699   0.725 -2.5868  2.5718  2.2499
 2936TIP3    H230300   6.040   6.562   0.686  1.6540  1.5381 -0.5702
 2937TIP3   OH230301   5.729   4.981  15.560 -0.4273  0.0217 -0.0275
 2937TIP3    H130302   5.740   5.068  15.597  1.0623 -0.0923 -0.1405
 2937TIP3    H230303   5.689   4.930  15.630  1.8389 -0.0490  1.3038
 2938TIP3   OH230304   3.177   0.336   1.609 -0.3699  0.4948 -0.2026
 2938TIP3    H130305   3.229   0.261   1.638  0.1329  0.8600 -0.1446
 2938TIP3    H230306   3.103   0.339   1.669  0.0449  0.5392  0.3149
 2939TIP3   OH230307   6.619   0.888  15.962 -0.8406  0.5733  0.1976
 2939TIP3    H130308   6.604   0.940  16.041 -1.4394 -2.2005  2.0685
 2939TIP3    H230309   6.537   0.839  15.950 -0.1061 -0.3946 -1.0701
 2940TIP3   OH230310   3.195   0.668   3.276 -0.2088 -0.1087  0.2599
 2940TIP3    H130311   3.154   0.676   3.190  1.3251 -2.2919 -0.7667
 2940TIP3    H230312   3.267   0.732   3.274 -0.1799 -0.1509 -0.0863
 2941TIP3   OH230313   2.084   0.482   1.612 -0.0811  0.6957 -0.4735
 2941TIP3    H130314   2.053   0.473   1.522  3.0206  0.3491 -1.6302
 2941TIP3    H230315   2.101   0.575   1.622  1.1863  0.5204 -0.8763
 2942TIP3   OH230316   6.769   4.719   2.898  0.6305  0.4155 -0.1598
 2942TIP3    H130317   6.814   4.785   2.952  0.0745 -0.2331  1.1309
 2942TIP3    H230318   6.836   4.691   2.835  1.4501  0.8492  0.4850
 2943TIP3   OH230319   3.607   0.563   1.979  0.1673 -0.6042  0.0685
 2943TIP3    H130320   3.627   0.476   1.945 -0.2210  0.2423 -2.5947
 2943TIP3    H230321   3.687   0.614   1.963  0.1306 -0.2751  0.8949
 2944TIP3   OH230322   6.312   4.135   3.537  0.2210  0.5287 -0.0018
 2944TIP3    H130323   6.230   4.094   3.566  0.2277 -0.1276 -0.8729
 2944TIP3    H230324   6.341   4.082   3.463  1.6020  0.5723  0.4813
 2945TIP3   OH230325   2.890   1.297  13.006 -0.5055 -0.4660  0.4491
 2945TIP3    H130326   2.834   1.220  12.993 -2.8204  0.9935  1.0948
 2945TIP3    H230327   2.848   1.366  12.954 -0.2977  1.1163  2.2717
 2946TIP3   OH230328   1.390   0.503  10.494  0.0156 -0.1148  0.4026
 2946TIP3    H130329   1.449   0.474  10.425  0.9499  0.7414  0.8228
 2946TIP3    H230330   1.336   0.426  10.513 -1.4124  0.0603 -2.4123
 2947TIP3   OH230331   5.218   4.686   2.763 -0.4693  0.1650 -0.3275
 2947TIP3    H130332   5.158   4.678   2.689  1.7820 -1.3973 -2.1508
 2947TIP3    H230333   5.228   4.597   2.796  0.6970  0.3960 -0.0002
 2948TIP3   OH230334   0.628   6.160   5.705 -0.6783 -0.7068 -0.5271
 2948TIP3    H130335   0.574   6.137   5.780 -1.4934  1.5506 -0.3354
 2948TIP3    H230336   0.571   6.144   5.629 -1.0286  0.0516 -0.4337
 2949TIP3   OH230337   5.826   2.587  12.661 -0.0240  0.4012  0.2050
 2949TIP3    H130338   5.919   2.603  12.645  0.1225  0.1451  0.7766
 2949TIP3    H230339   5.801   2.522  12.596  0.5303 -0.5351  0.8984
 2950TIP3   OH230340   2.073   5.354  10.980  0.0269  0.0077  0.2518
 2950TIP3    H130341   2.091   5.303  11.059 -0.8301  0.7284  0.9409
 2950TIP3    H230342   2.159   5.373  10.943  0.4319 -0.5240  0.8915
 2951TIP3   OH230343   0.915   2.169  15.265  0.8514 -0.8757  0.0584
 2951TIP3    H130344   0.934   2.255  15.229  1.4062 -1.3727 -0.8787
 2951TIP3    H230345   0.820   2.166  15.273  0.7878 -0.3973 -0.4744
 2952TIP3   OH230346   4.808   0.277  14.933 -0.3776  0.0974  0.0435
 2952TIP3    H130347   4.840   0.188  14.923 -0.8059 -0.0016 -0.4935
 2952TIP3    H230348   4.845   0.307  15.016 -1.9032 -1.3304  1.3161
 2953TIP3   OH230349   1.792   2.796   5.418  0.3356 -0.6299  0.5001
 2953TIP3    H130350   1.728   2.863   5.444 -0.2104 -0.6200 -0.8351
 2953TIP3    H230351   1.841   2.837   5.347 -0.5183 -1.9054 -0.8660
 2954TIP3   OH230352   3.888   2.409   5.297 -0.0112 -0.3090  0.2517
 2954TIP3    H130353   3.936   2.448   5.369 -0.0551  1.3294 -0.5533
 2954TIP3    H230354   3.929   2.445   5.218 -1.8925  0.3993 -0.4708
 2955TIP3   OH230355   1.037   0.007   1.795  0.0367 -0.4894  0.4146
 2955TIP3    H130356   1.129  -0.021   1.794  0.0950 -0.2917  0.0788
 2955TIP3    H230357   0.989  -0.065   1.755  0.0922 -0.4265  0.2366
 2956TIP3   OH230358   5.421   1.409   2.153  0.1668 -0.0434 -0.0856
 2956TIP3    H130359   5.375   1.407   2.070  1.5556 -2.0698 -0.9060
 2956TIP3    H230360   5.352   1.413   2.219 -1.0525 -0.2703 -1.3061
 2957TIP3   OH230361   5.221   5.416  14.395 -0.1786  0.1664  0.5779
 2957TIP3    H130362   5.222   5.382  14.305 -1.0795  0.3648  0.4798
 2957TIP3    H230363   5.264   5.348  14.447 -0.3925 -0.3319  0.1163
 2958TIP3   OH230364   5.788   2.943   1.905 -0.6351  0.1531 -1.1620
 2958TIP3    H130365   5.783   2.952   1.809 -2.1318 -2.7314 -1.4588
 2958TIP3    H230366   5.788   2.848   1.920  0.0032  0.5211  1.7157
 2959TIP3   OH230367   3.658   3.628  11.356 -0.7421 -0.2270 -0.1940
 2959TIP3    H130368   3.582   3.684  11.338 -0.5153  0.6811  1.4461
 2959TIP3    H230369   3.643   3.595  11.445  0.7824  0.0129  0.1907
 2960TIP3   OH230370   3.317   3.866   4.725 -0.3940  0.0184  1.0331
 2960TIP3    H130371   3.228   3.834   4.706 -0.7753  1.2160  0.7388
 2960TIP3    H230372   3.324   3.858   4.820 -0.0319 -2.0058  0.8939
 2961TIP3   OH230373   1.732   5.394   0.066 -0.4285  0.3656 -1.3965
 2961TIP3    H130374   1.760   5.483   0.045  1.5136  0.3972  0.8276
 2961TIP3    H230375   1.813   5.343   0.063 -1.2238 -0.9568 -0.9273
 2962TIP3   OH230376   2.069   0.251   2.907  0.0181 -0.2015 -0.0502
 2962TIP3    H130377   2.064   0.157   2.889 -1.9842  0.3817 -3.5276
 2962TIP3    H230378   2.163   0.270   2.912  0.4960 -2.5223  2.5084
 2963TIP3   OH230379   5.803   6.044   4.702  0.8207  0.0543  0.6804
 2963TIP3    H130380   5.834   5.966   4.656  0.1085 -0.8249  1.6437
 2963TIP3    H230381   5.768   6.100   4.632  1.3387 -0.4791 -0.0268
 2964TIP3   OH230382   0.818   2.914  12.379 -0.3577 -0.4666 -0.2486
 2964TIP3    H130383   0.860   2.830  12.395 -1.8946 -0.8272  2.5902
 2964TIP3    H230384   0.816   2.957  12.465  0.9062  2.7836 -1.6889
 2965TIP3   OH230385   0.986   1.884  15.080  0.5539  0.0202  0.4998
 2965TIP3    H130386   0.908   1.918  15.124  0.9645  0.4886  0.8798
 2965TIP3    H230387   0.965   1.792  15.062  0.5700 -0.3548  2.1663
 2966TIP3   OH230388   1.387   4.309  13.042 -0.6066 -0.5467 -0.0686
 2966TIP3    H130389   1.403   4.402  13.058  1.5756 -0.7762 -0.6456
 2966TIP3    H230390   1.433   4.265  13.114 -1.1771 -1.1990 -0.1015
 2967TIP3   OH230391   6.382   1.202   4.675 -0.2235  0.3850  0.0270
 2967TIP3    H130392   6.299   1.242   4.650  0.0569  1.1279  0.2548
 2967TIP3    H230393   6.376   1.191   4.770  0.4600  1.6900  0.2363
 2968TIP3   OH230394   5.943   3.050  13.086  0.2393  0.3221  0.3609
 2968TIP3    H130395   5.940   3.119  13.019  0.5824 -0.1294 -0.1369
 2968TIP3    H230396   6.020   3.071  13.138 -0.0814  0.7287  0.6787
 2969TIP3   OH230397   5.071   0.896   5.203  0.0066  0.4875  0.0261
 2969TIP3    H130398   4.983   0.885   5.168  0.1487  0.1058 -0.2125
 2969TIP3    H230399   5.113   0.958   5.144  0.1728  0.0167 -0.3549
 2970TIP3   OH230400   3.820   6.079  14.171  0.0429  0.0787  0.3310
 2970TIP3    H130401   3.847   6.169  14.151  1.4959 -0.4525 -0.2444
 2970TIP3    H230402   3.730   6.087  14.202  0.2123  1.7560  0.4875
 2971TIP3   OH230403   3.498   6.624  15.738 -0.2470  0.0750  0.2117
 2971TIP3    H130404   3.551   6.606  15.661  1.1389  1.4571  0.7898
 2971TIP3    H230405   3.488   6.539  15.782 -0.4162 -0.5790 -1.0683
 2972TIP3   OH230406   3.073   1.330  14.459  0.8230  0.7024 -0.1439
 2972TIP3    H130407   3.055   1.423  14.450  2.3109  0.9754 -0.4810
 2972TIP3    H230408   3.072   1.314  14.554  1.7407  1.3152 -0.0228
 2973TIP3   OH230409   5.027   2.246  15.193  0.1999  0.2026 -0.1859
 2973TIP3    H130410   5.112   2.205  15.210  1.5005  2.8013  0.2285
 2973TIP3    H230411   5.020   2.247  15.098 -0.4489 -1.9686 -0.1966
 2974TIP3   OH230412   0.154   1.608  13.371 -0.2161 -0.2391  0.0441
 2974TIP3    H130413   0.093   1.673  13.338 -0.6188 -0.7959 -0.3259
 2974TIP3    H230414   0.232   1.618  13.317 -0.3058 -0.1185 -0.0621
 2975TIP3   OH230415   3.964   5.149  11.953 -0.1599 -0.1321  0.4184
 2975TIP3    H130416   3.868   5.158  11.954 -0.3797 -1.9376 -0.6078
 2975TIP3    H230417   3.988   5.157  11.861  0.8888  1.8272  0.8223
 2976TIP3   OH230418   0.883   3.372  12.355 -0.5387 -0.0237  0.3967
 2976TIP3    H130419   0.940   3.299  12.332 -0.7787 -0.1996  0.3597
 2976TIP3    H230420   0.855   3.409  12.271  2.3863  2.3605  0.2838
 2977TIP3   OH230421   5.841   6.375   6.106 -0.3413 -0.2442 -0.0454
 2977TIP3    H130422   5.877   6.456   6.141  0.3987  0.1386 -1.6019
 2977TIP3    H230423   5.776   6.404   6.041  0.8511 -0.8240 -1.5606
 2978TIP3   OH230424   6.574   3.401  12.645 -0.4303 -0.1264 -0.1484
 2978TIP3    H130425   6.480   3.380  12.645 -0.3642 -0.4326  0.2807
 2978TIP3    H230426   6.595   3.415  12.553 -1.1232  0.9578 -0.1713
 2979TIP3   OH230427   0.037   0.387   0.614  0.3054 -0.2298  0.0552
 2979TIP3    H130428   0.059   0.325   0.545 -0.1350 -0.0352 -0.2671
 2979TIP3    H230429   0.050   0.473   0.574  1.9915 -0.0817  0.8358
 2980TIP3   OH230430   0.689   2.847  14.873  0.1160 -0.2542 -0.0771
 2980TIP3    H130431   0.621   2.864  14.807 -0.2024  0.2281  0.3632
 2980TIP3    H230432   0.670   2.759  14.904  0.9734 -0.9415 -1.4477
 2981TIP3   OH230433   5.098   3.160   3.141 -0.2993 -0.5364 -1.0430
 2981TIP3    H130434   5.186   3.123   3.142 -0.0399  0.0662 -1.3657
 2981TIP3    H230435   5.061   3.137   3.226  0.4296 -0.1786 -0.6276
 2982TIP3   OH230436   1.243   4.352   0.010 -0.2093 -0.1767 -0.0040
 2982TIP3    H130437   1.202   4.434   0.038 -1.1213 -0.5392 -0.2482
 2982TIP3    H230438   1.263   4.366  -0.083  1.2073  0.3827  0.3638
 2983TIP3   OH230439   1.421   6.744  14.813 -0.0434 -0.2973  0.4057
 2983TIP3    H130440   1.391   6.699  14.892 -1.5615  2.8512  1.7997
 2983TIP3    H230441   1.343   6.789  14.780  1.4358  1.7766 -0.4779
 2984TIP3   OH230442   6.831   0.640   3.236  0.3356 -0.1149 -0.1492
 2984TIP3    H130443   6.747   0.662   3.275  0.0760 -0.2961 -0.5930
 2984TIP3    H230444   6.842   0.546   3.254  0.8921  0.1143  0.7325
 2985TIP3   OH230445   2.361   6.115  12.093 -0.1242  0.0740 -0.4837
 2985TIP3    H130446   2.418   6.055  12.141 -0.8232 -0.2406 -0.0342
 2985TIP3    H230447   2.382   6.098  12.001  1.8365  1.2807 -0.3262
 2986TIP3   OH230448   6.294   0.077  12.337 -0.3810  0.5243 -0.0484
 2986TIP3    H130449   6.343   0.070  12.419 -0.3332 -0.3315 -0.1452
 2986TIP3    H230450   6.298   0.171  12.315  1.9862  0.3831 -0.5056
 2987TIP3   OH230451   4.791   5.051  14.049 -0.0117  0.3117 -0.5090
 2987TIP3    H130452   4.703   5.087  14.041 -0.8273 -1.3684  0.2564
 2987TIP3    H230453   4.795   5.018  14.139  1.4896  0.5602 -0.4653
 2988TIP3   OH230454   2.556   2.780   4.544 -0.8964 -0.3649  0.2483
 2988TIP3    H130455   2.635   2.819   4.508 -1.7578  1.0936 -0.1082
 2988TIP3    H230456   2.572   2.775   4.638  0.5252 -2.2682 -0.0385
 2989TIP3   OH230457   3.589   1.603  13.818 -0.0612  0.4539  0.2047
 2989TIP3    H130458   3.595   1.663  13.744 -1.4112  0.0651 -0.2427
 2989TIP3    H230459   3.497   1.579  13.822  0.2281 -0.5660  1.2008
 2990TIP3   OH230460   0.262   1.344   5.651  0.3280 -0.2004 -0.3342
 2990TIP3    H130461   0.344   1.384   5.622  0.8592  0.1524  1.5116
 2990TIP3    H230462   0.238   1.393   5.730 -0.4751 -1.7195  0.4210
 2991TIP3   OH230463   0.767   3.500  15.613  0.2547 -0.2518 -0.1166
 2991TIP3    H130464   0.743   3.586  15.645  0.1543  0.0507 -0.9786
 2991TIP3    H230465   0.699   3.478  15.550  0.4956 -0.7902 -0.1943
 2992TIP3   OH230466   0.999   4.338  15.440 -0.0887  0.1887  0.3347
 2992TIP3    H130467   1.030   4.425  15.467 -0.5409  0.0578  1.3114
 2992TIP3    H230468   1.079   4.289  15.420  0.2184  0.5444  0.6690
 2993TIP3   OH230469   2.249   6.682   0.617  0.1548 -0.3026  0.1377
 2993TIP3    H130470   2.303   6.659   0.541 -0.4261  1.6837 -0.9631
 2993TIP3    H230471   2.306   6.731   0.674 -0.5256  2.4102 -1.3539
 2994TIP3   OH230472   3.609   0.627   1.593  0.1452  0.0687  0.1077
 2994TIP3    H130473   3.519   0.595   1.603 -0.2238  1.5282  1.8913
 2994TIP3    H230474   3.603   0.721   1.606  1.9928  0.1373  0.7479
 2995TIP3   OH230475   3.398   4.885   1.025 -0.3438 -0.3235  0.4551
 2995TIP3    H130476   3.487   4.919   1.030 -0.6994  0.4869  2.8633
 2995TIP3    H230477   3.406   4.804   0.975  1.9445 -0.8045  1.4576
 2996TIP3   OH230478   4.728   2.005  10.946 -0.1722  0.3029  0.5141
 2996TIP3    H130479   4.644   2.001  10.991 -0.2800 -0.1743  0.2809
 2996TIP3    H230480   4.708   2.037  10.859 -0.1901 -0.3247  0.2835
 2997TIP3   OH230481   4.338   3.767  14.290  0.2837 -0.6311  0.2220
 2997TIP3    H130482   4.381   3.685  14.268 -0.4800 -1.4050  1.4871
 2997TIP3    H230483   4.344   3.773  14.385  0.6127  0.9614  0.1419
 2998TIP3   OH230484   4.416   6.364   0.113 -0.6848 -0.0107 -0.2527
 2998TIP3    H130485   4.388   6.276   0.088  0.1339 -0.1229 -0.8120
 2998TIP3    H230486   4.418   6.362   0.209 -0.5544 -0.6450 -0.2629
 2999TIP3   OH230487   6.457   2.799  10.798 -0.1454 -0.0139 -0.3454
 2999TIP3    H130488   6.490   2.734  10.736 -2.5924 -0.2906 -1.4873
 2999TIP3    H230489   6.426   2.871  10.742 -3.5669 -0.7973  0.3456
 3000TIP3   OH230490   1.381   6.533   4.050  0.1794 -0.5193  0.4345
 3000TIP3    H130491   1.477   6.530   4.054  0.2092 -0.4910 -0.1826
 3000TIP3    H230492   1.357   6.607   4.105  0.5533 -0.0889  0.0270
 3001TIP3   OH230493   4.492   0.233  14.013  0.2256  0.0470  0.1461
 3001TIP3    H130494   4.578   0.250  13.974  0.2644 -1.2051 -0.3794
 3001TIP3    H230495   4.498   0.143  14.045 -0.5244  0.3290  1.1255
 3002TIP3   OH230496   2.697   0.979   5.228  0.4330 -0.1756  0.1720
 3002TIP3    H130497   2.611   1.020   5.222 -0.8583 -2.6897  0.3226
 3002TIP3    H230498   2.689   0.915   5.298  1.3092 -2.8698 -2.0179
 3003TIP3   OH230499   6.080   5.400   1.766  0.6732  0.3211 -0.1779
 3003TIP3    H130500   6.123   5.461   1.825  2.0183  1.3817 -2.1484
 3003TIP3    H230501   6.073   5.447   1.683  1.6945 -2.1231 -1.7689
 3004TIP3   OH230502   5.383   5.581   2.574  0.3154  0.0127  0.4256
 3004TIP3    H130503   5.348   5.668   2.556  1.3523  0.0773 -1.6151
 3004TIP3    H230504   5.463   5.597   2.625  1.6985  0.4949 -1.7569
 3005TIP3   OH230505   6.832   5.976  13.338  0.3614  0.1260  0.8526
 3005TIP3    H130506   6.876   6.060  13.325 -0.3784  0.6467  1.6320
 3005TIP3    H230507   6.780   5.988  13.417 -2.5558  0.1101 -0.9156
 3006TIP3   OH230508   0.110   3.843   4.045 -0.2676  0.2874  0.0936
 3006TIP3    H130509   0.035   3.862   3.988 -1.5003 -1.4718  1.0495
 3006TIP3    H230510   0.183   3.827   3.984 -0.8044  1.3270 -0.8691
 3007TIP3   OH230511   2.739   0.725  13.806  0.0174  0.4027 -0.1157
 3007TIP3    H130512   2.748   0.654  13.742  0.9923  1.1654 -0.8685
 3007TIP3    H230513   2.767   0.803  13.759 -1.1003  1.3124  0.6775
 3008TIP3   OH230514   1.192   3.114  15.126 -0.1246  0.1847  0.0282
 3008TIP3    H130515   1.229   3.036  15.084 -0.3118  0.2607 -0.2796
 3008TIP3    H230516   1.167   3.171  15.054 -3.6107 -1.1095  0.0214
 3009TIP3   OH230517   1.587   1.365  16.086 -0.1120 -0.0552  0.4599
 3009TIP3    H130518   1.586   1.309  16.163 -0.3617 -0.3800  0.2223
 3009TIP3    H230519   1.496   1.368  16.056 -0.3780  1.6609  1.3097
 3010TIP3   OH230520   5.066   2.834   4.896  0.0244  0.1373 -0.0431
 3010TIP3    H130521   4.989   2.887   4.918 -0.3187 -0.5351  0.4080
 3010TIP3    H230522   5.030   2.751   4.866  0.5731 -0.0959 -0.0635
 3011TIP3   OH230523   4.363   1.035  10.647 -0.1160 -0.2138  0.3006
 3011TIP3    H130524   4.325   0.966  10.701  0.8649 -0.2520  0.9727
 3011TIP3    H230525   4.308   1.112  10.665 -0.8293 -0.6548  0.0290
 3012TIP3   OH230526   3.673   0.390  17.009  0.3095  0.1635 -0.2082
 3012TIP3    H130527   3.641   0.447  16.940  2.7013  0.3670 -1.2269
 3012TIP3    H230528   3.733   0.444  17.060 -0.1299 -0.4551  1.0071
 3013TIP3   OH230529   2.794   4.703   1.996 -0.0423  0.0301  0.4005
 3013TIP3    H130530   2.812   4.796   1.986 -2.3151  0.6574  1.5929
 3013TIP3    H230531   2.801   4.667   1.908  1.2999  1.1960 -0.0093
 3014TIP3   OH230532   5.946   5.920   6.529  0.0037  0.2946 -0.5544
 3014TIP3    H130533   6.030   5.951   6.494  0.8962 -1.0329  0.2889
 3014TIP3    H230534   5.952   5.938   6.623 -0.7271  0.3043 -0.5030
 3015TIP3   OH230535   1.541   6.746  11.562  0.1920  0.0991 -0.8129
 3015TIP3    H130536   1.540   6.718  11.654 -0.7409 -0.0506 -0.8633
 3015TIP3    H230537   1.496   6.830  11.562 -0.8001 -0.4177 -1.2863
 3016TIP3   OH230538   2.157   0.220  15.922  0.1783  0.2207 -0.3400
 3016TIP3    H130539   2.079   0.244  15.871  0.0716  0.6919  0.0409
 3016TIP3    H230540   2.122   0.194  16.007  0.3498 -0.6578 -0.5355
 3017TIP3   OH230541   3.485   4.344  12.377 -0.2899 -0.0803  0.8518
 3017TIP3    H130542   3.402   4.296  12.379  1.0775 -2.5963  2.2524
 3017TIP3    H230543   3.496   4.378  12.466  1.0748 -1.5532  1.2944
 3018TIP3   OH230544   5.205   0.712  10.571  0.6809 -0.1173 -0.2084
 3018TIP3    H130545   5.146   0.787  10.582 -1.0427 -1.2375 -1.2706
 3018TIP3    H230546   5.254   0.708  10.653 -0.6930  0.9106  0.7222
 3019TIP3   OH230547   2.505   2.345  12.858 -0.0719  0.1320  0.1495
 3019TIP3    H130548   2.519   2.413  12.793  0.1806 -0.3814 -0.3428
 3019TIP3    H230549   2.582   2.348  12.914  0.3741 -0.3414 -0.4210
 3020TIP3   OH230550   0.228   6.801   1.613  0.0206 -0.3104  0.0897
 3020TIP3    H130551   0.234   6.812   1.519  0.0727 -0.0752  0.1213
 3020TIP3    H230552   0.273   6.718   1.630 -0.9039 -0.8959 -0.2117
 3021TIP3   OH230553   5.151   3.351  15.308 -0.0214  0.1606 -0.3632
 3021TIP3    H130554   5.077   3.299  15.276 -2.1395  1.8921  1.4220
 3021TIP3    H230555   5.174   3.311  15.392  0.8917 -0.1699 -0.7609
 3022TIP3   OH230556   1.983   5.353   0.344 -0.2760  0.5937 -0.2971
 3022TIP3    H130557   2.067   5.378   0.308 -0.0683  1.3181  0.6498
 3022TIP3    H230558   1.925   5.426   0.325  0.2723  1.7946  2.2617
 3023TIP3   OH230559   1.356   4.714   4.473 -0.1317 -0.3867 -0.0706
 3023TIP3    H130560   1.390   4.652   4.538  1.8641 -0.4547 -1.1275
 3023TIP3    H230561   1.340   4.661   4.395  0.9111  0.2667 -0.7552
 3024TIP3   OH230562   5.903   4.226   2.596 -0.0313 -0.3764 -0.5784
 3024TIP3    H130563   5.915   4.270   2.512  0.8818 -0.5497 -0.5432
 3024TIP3    H230564   5.915   4.133   2.577  1.5652 -0.3169 -0.0300
 3025TIP3   OH230565   6.415   6.466   1.658 -0.1742 -0.3896 -0.2858
 3025TIP3    H130566   6.457   6.547   1.686  0.9494 -1.1318  0.2441
 3025TIP3    H230567   6.355   6.493   1.589 -2.6411  1.4700  2.3441
 3026TIP3   OH230568   4.120   2.417  16.877 -0.4818  0.5105  0.2540
 3026TIP3    H130569   4.131   2.427  16.783  0.4428 -1.4293  0.1132
 3026TIP3    H230570   4.026   2.425  16.892 -0.5999  1.1352 -0.7723
 3027TIP3   OH230571   0.522   2.334  10.812  0.4103  0.3122 -0.1239
 3027TIP3    H130572   0.472   2.311  10.734  1.8642 -2.5747 -0.3394
 3027TIP3    H230573   0.613   2.337  10.783  0.7977  1.1225  1.1019
 3028TIP3   OH230574   5.975   3.794   2.613 -0.1833 -0.3746  1.2122
 3028TIP3    H130575   6.046   3.755   2.562  0.3946  0.5487  1.2758
 3028TIP3    H230576   5.918   3.721   2.636  0.7883 -1.1529  1.2084
 3029TIP3   OH230577   2.268   3.758   3.995 -0.2548 -0.1306  0.0384
 3029TIP3    H130578   2.341   3.709   3.958 -0.4705 -0.3613 -0.0852
 3029TIP3    H230579   2.199   3.754   3.929 -1.1254 -1.6677  0.9682
 3030TIP3   OH230580   1.293   1.351  16.051  0.1665  0.3733  0.5436
 3030TIP3    H130581   1.310   1.407  16.127 -1.1292  0.7166  0.5893
 3030TIP3    H230582   1.234   1.283  16.084  0.3556 -0.0275  0.0626
 3031TIP3   OH230583   0.373   5.330   0.800  0.1695 -0.0078  0.0071
 3031TIP3    H130584   0.320   5.267   0.751 -1.6785  0.7504  0.9420
 3031TIP3    H230585   0.442   5.277   0.841 -0.6259 -1.2281 -0.1923
 3032TIP3   OH230586   4.885   5.323  12.810  0.0662 -0.5266  0.9068
 3032TIP3    H130587   4.816   5.389  12.798 -0.1918 -0.1040  3.9112
 3032TIP3    H230588   4.838   5.242  12.827  0.3892 -0.9719 -0.1818
 3033TIP3   OH230589   4.564   5.847  15.881 -0.3690 -0.0519  0.3267
 3033TIP3    H130590   4.482   5.800  15.862  0.8753 -2.4662  0.5056
 3033TIP3    H230591   4.611   5.845  15.798  0.3903 -0.6212  0.7592
 3034TIP3   OH230592   0.158   2.376  16.152  0.0213  0.4115 -0.5661
 3034TIP3    H130593   0.066   2.353  16.142  0.1985 -0.6888  0.1603
 3034TIP3    H230594   0.160   2.437  16.226  0.0864 -1.3402  0.9481
 3035TIP3   OH230595   5.267   0.625  16.437 -0.3851 -0.5759 -0.4142
 3035TIP3    H130596   5.248   0.649  16.347  1.2501 -0.2696 -0.6943
 3035TIP3    H230597   5.184   0.588  16.470 -1.0499 -0.5123 -1.9537
 3036TIP3   OH230598   4.614   6.112  11.828 -0.1208 -0.9124 -0.4156
 3036TIP3    H130599   4.656   6.195  11.852 -2.5937  0.2703  0.0816
 3036TIP3    H230600   4.650   6.092  11.741  0.2004  0.9485 -0.7625
 3037TIP3   OH230601   5.207   3.654  15.962 -0.3269  0.3300  0.2240
 3037TIP3    H130602   5.163   3.736  15.984 -2.1495 -1.0490  2.1775
 3037TIP3    H230603   5.201   3.649  15.867 -0.1693  2.4344  0.0473
 3038TIP3   OH230604   2.922   2.718  13.927  0.0039 -0.6687 -0.6262
 3038TIP3    H130605   2.929   2.735  14.021  0.4704  1.1861 -0.9393
 3038TIP3    H230606   2.948   2.627  13.917  2.3399 -0.2585  0.8095
 3039TIP3   OH230607   5.976   2.160  10.732  0.0652  0.0089 -0.1035
 3039TIP3    H130608   6.036   2.163  10.658  0.9815  1.1066  0.6423
 3039TIP3    H230609   5.898   2.207  10.702  0.1032 -0.2687 -0.6380
 3040TIP3   OH230610   4.712   6.187  15.163  0.4595  0.0635 -0.1210
 3040TIP3    H130611   4.681   6.132  15.091 -0.7577  0.5200  0.0290
 3040TIP3    H230612   4.646   6.175  15.232  0.8461  0.7343  0.3718
 3041TIP3   OH230613   6.692   0.074  16.485  0.1413 -0.4530  0.0347
 3041TIP3    H130614   6.691   0.169  16.475  0.6161 -0.5429 -0.9494
 3041TIP3    H230615   6.776   0.046  16.448 -0.8229 -1.4344 -1.5151
 3042TIP3   OH230616   0.443   3.439   1.429 -0.1024 -0.0898  0.3119
 3042TIP3    H130617   0.364   3.477   1.391  0.5183  0.6612 -0.2610
 3042TIP3    H230618   0.457   3.357   1.381  0.4495  0.6508 -0.8388
 3043TIP3   OH230619   1.326   6.588   0.425 -0.2402 -0.3912 -0.0065
 3043TIP3    H130620   1.322   6.502   0.385  0.2406 -1.4967  2.1569
 3043TIP3    H230621   1.396   6.634   0.379 -1.1104 -0.7812 -1.7960
 3044TIP3   OH230622   5.127   1.955   4.115  0.4019  0.0416  0.3340
 3044TIP3    H130623   5.199   1.922   4.169  0.9631 -1.9294 -1.4854
 3044TIP3    H230624   5.159   1.951   4.025 -1.8157 -0.5707 -0.5080
 3045TIP3   OH230625   3.039   3.233   5.238  0.3678 -0.0217  0.0394
 3045TIP3    H130626   2.955   3.274   5.216  0.4793  1.1220  1.5589
 3045TIP3    H230627   3.020   3.179   5.315  0.9295 -0.1278  0.1092
 3046TIP3   OH230628   0.329   2.031   0.451  0.3590 -0.0453  0.8575
 3046TIP3    H130629   0.403   2.004   0.396  0.2175 -0.0738  0.6810
 3046TIP3    H230630   0.329   2.126   0.446 -0.9945 -0.0905 -0.9850
 3047TIP3   OH230631   1.738   5.481  11.210  0.7464  0.4239 -0.2001
 3047TIP3    H130632   1.679   5.437  11.271 -0.5338 -0.1541 -1.7869
 3047TIP3    H230633   1.681   5.512  11.139  2.3550 -0.3482 -1.9150
 3048TIP3   OH230634   4.459   5.961   6.703  0.1075  0.3679  0.6215
 3048TIP3    H130635   4.450   5.874   6.743 -0.3269  0.1409  0.0516
 3048TIP3    H230636   4.370   5.997   6.704 -0.5048 -0.7530 -2.5452
 3049TIP3   OH230637   6.525   5.266   5.861 -0.3805  0.3379 -0.4398
 3049TIP3    H130638   6.521   5.284   5.955 -0.6297  1.3983 -0.6429
 3049TIP3    H230639   6.618   5.257   5.842 -0.3781 -1.3416  0.1474
 3050TIP3   OH230640   5.097   5.458  15.897 -0.1444 -0.2196 -0.3296
 3050TIP3    H130641   5.148   5.391  15.942  0.4212  0.1620 -0.3926
 3050TIP3    H230642   5.045   5.500  15.965  0.3620  0.0446 -0.0976
 3051TIP3   OH230643   1.965   1.371   5.077 -0.2944  0.1295  0.2003
 3051TIP3    H130644   2.007   1.455   5.056 -0.1640  0.0512  0.1487
 3051TIP3    H230645   1.877   1.395   5.105 -1.4227  0.0846 -2.9441
 3052TIP3   OH230646   4.240   3.377  16.566  0.3366 -0.5720 -0.3301
 3052TIP3    H130647   4.293   3.403  16.641  0.3135 -0.4708 -0.3473
 3052TIP3    H230648   4.159   3.343  16.604  0.0179  0.1668 -0.3188
 3053TIP3   OH230649   1.212   5.856  17.023 -0.1762  0.7553 -0.3867
 3053TIP3    H130650   1.201   5.927  17.086 -1.8650 -0.7711  1.1682
 3053TIP3    H230651   1.290   5.880  16.973  1.7122  1.7183  2.7804
 3054TIP3   OH230652   4.574   3.660  13.129  0.0282 -0.7609  0.0925
 3054TIP3    H130653   4.621   3.587  13.087 -0.0443 -1.7121  1.5980
 3054TIP3    H230654   4.638   3.731  13.132  0.3857 -1.0430 -0.5903
 3055TIP3   OH230655   5.406   0.080   0.316 -0.0576  0.2070 -0.2479
 3055TIP3    H130656   5.376   0.001   0.272 -3.0600  1.5969 -0.9890
 3055TIP3    H230657   5.501   0.077   0.310 -0.0268 -3.3282 -0.1515
 3056TIP3   OH230658   3.340   1.751   3.719 -0.0852  0.1621 -0.0508
 3056TIP3    H130659   3.351   1.664   3.680  0.7289  0.4502 -0.4901
 3056TIP3    H230660   3.325   1.734   3.812  0.6747 -0.4287 -0.0240
 3057TIP3   OH230661   2.231   6.816  15.815  0.7832 -0.0910 -0.2973
 3057TIP3    H130662   2.214   6.886  15.878 -1.5835 -0.6309 -0.2527
 3057TIP3    H230663   2.290   6.855  15.751  0.2755  1.6384  0.2504
 3058TIP3   OH230664   2.431   6.764  14.003 -0.0752 -0.0731 -0.5644
 3058TIP3    H130665   2.525   6.775  14.012 -0.2323  0.4461  0.5989
 3058TIP3    H230666   2.420   6.709  13.925  1.1351  0.6051 -1.2359
 3059TIP3   OH230667   6.226   1.926  11.800  0.6485 -0.8161  0.3798
 3059TIP3    H130668   6.300   1.866  11.788 -1.2774 -2.8120 -2.7588
 3059TIP3    H230669   6.221   1.975  11.718 -1.9603 -1.3887  0.0977
 3060TIP3   OH230670   4.081   0.058   2.670 -0.0439 -0.0571 -0.7673
 3060TIP3    H130671   4.143   0.118   2.712 -0.4825  0.0434 -0.2507
 3060TIP3    H230672   4.131   0.019   2.598  0.8112 -0.4136 -0.0192
 3061TIP3   OH230673   5.276   0.593  13.066  0.0262 -0.0011  0.0449
 3061TIP3    H130674   5.294   0.545  12.986 -0.1132  0.5334 -0.3152
 3061TIP3    H230675   5.322   0.544  13.135  0.5408 -0.1963 -0.4301
 3062TIP3   OH230676   2.966   3.499  15.338 -0.0069  0.0353  0.9185
 3062TIP3    H130677   2.942   3.590  15.318 -0.6721  0.1075  1.9894
 3062TIP3    H230678   2.980   3.498  15.432 -0.0742 -1.0010  0.9252
 3063TIP3   OH230679   6.697   4.700   0.614 -0.5388  0.0905  0.0125
 3063TIP3    H130680   6.752   4.737   0.683 -0.8397 -1.6363  1.2339
 3063TIP3    H230681   6.694   4.769   0.547  1.6967  0.9001  0.6394
 3064TIP3   OH230682   0.407   1.949   0.046  0.4515 -0.8366  0.1260
 3064TIP3    H130683   0.498   1.962   0.074 -0.1888  1.3921  1.3948
 3064TIP3    H230684   0.400   1.997  -0.036  0.4684 -1.2878 -0.1477
 3065TIP3   OH230685   1.600   5.485   1.113 -0.8394  0.4008  0.4673
 3065TIP3    H130686   1.516   5.446   1.137 -0.5197 -0.3638  0.3667
 3065TIP3    H230687   1.578   5.546   1.042 -1.3181  0.2820  0.5096
 3066TIP3   OH230688   0.235   5.818  11.443  0.4613 -0.0146 -0.1910
 3066TIP3    H130689   0.223   5.782  11.531  1.2437  0.2046  0.0164
 3066TIP3    H230690   0.324   5.791  11.418  0.6318  0.7935 -0.4997
 3067TIP3   OH230691   4.410   6.788   2.238 -0.0344  0.6356 -0.1371
 3067TIP3    H130692   4.390   6.872   2.196  0.2130  1.3448  1.1114
 3067TIP3    H230693   4.492   6.760   2.198  0.6438  1.7155  0.4503
 3068TIP3   OH230694   6.146   0.403  11.771  0.4073 -0.1861  0.2076
 3068TIP3    H130695   6.156   0.493  11.801 -0.8943 -0.0201  0.2049
 3068TIP3    H230696   6.222   0.387  11.716  1.9511  0.0812  2.1782
 3069TIP3   OH230697   4.933   5.753  14.078 -0.2094 -0.3641  0.3409
 3069TIP3    H130698   4.933   5.845  14.052  0.9752 -0.1725  0.9334
 3069TIP3    H230699   4.860   5.714  14.030 -0.9831  0.9593  0.3823
 3070TIP3   OH230700   5.876   6.668   4.416  0.2809 -0.0860  0.7782
 3070TIP3    H130701   5.855   6.584   4.374  0.1500  0.1352  0.3903
 3070TIP3    H230702   5.791   6.705   4.440 -0.1162  1.8701 -2.8481
 3071TIP3   OH230703   6.332   5.787  13.844  0.4023 -0.1788  0.0265
 3071TIP3    H130704   6.392   5.732  13.793  0.7199  0.8644 -0.7652
 3071TIP3    H230705   6.250   5.738  13.847  1.1524 -1.4533  0.7883
 3072TIP3   OH230706   3.028   3.826   1.882 -0.4656 -0.1999 -0.2597
 3072TIP3    H130707   2.952   3.776   1.853 -0.5689 -0.1780 -0.0280
 3072TIP3    H230708   3.103   3.774   1.855 -0.5465  0.0604 -1.0207
 3073TIP3   OH230709   4.196   4.975   5.345  0.3184  0.1106 -0.6039
 3073TIP3    H130710   4.123   5.033   5.325 -1.2209 -1.0555  1.3037
 3073TIP3    H230711   4.170   4.890   5.307  1.2192 -0.0566 -0.8760
 3074TIP3   OH230712   3.776   5.776   0.531  0.6228 -0.0954 -0.4754
 3074TIP3    H130713   3.810   5.858   0.494  0.5223  0.6248  0.9379
 3074TIP3    H230714   3.842   5.750   0.595 -0.5280  0.2815  0.9119
 3075TIP3   OH230715   5.500   3.187   1.954 -0.2811  0.1722  0.0982
 3075TIP3    H130716   5.575   3.237   1.988 -1.0161  0.9719  0.5906
 3075TIP3    H230717   5.457   3.153   2.033 -0.3266 -0.4542 -0.1933
 3076TIP3   OH230718   5.889   1.355  17.036  0.0550 -0.0760 -0.1143
 3076TIP3    H130719   5.812   1.322  16.990  0.1359 -0.1699 -0.1816
 3076TIP3    H230720   5.853   1.409  17.107 -0.1253 -1.7825  1.1426
 3077TIP3   OH230721   1.302   2.911  16.440 -0.4975  0.3176  0.1599
 3077TIP3    H130722   1.238   2.947  16.501  0.2351 -0.5068  1.4496
 3077TIP3    H230723   1.360   2.857  16.494 -2.1577 -3.8118 -1.6685
 3078TIP3   OH230724   3.903   3.001  14.455 -0.0494  0.2410 -0.6041
 3078TIP3    H130725   3.974   3.017  14.516  0.2782  0.9653 -1.1592
 3078TIP3    H230726   3.828   2.978  14.510  0.3728  0.3748  0.0301
 3079TIP3   OH230727   3.807   1.222   5.152 -0.5021 -0.1420 -0.4602
 3079TIP3    H130728   3.796   1.197   5.243 -2.8311  0.5105 -0.4941
 3079TIP3    H230729   3.734   1.282   5.134  0.8462  1.0703 -2.2966
 3080TIP3   OH230730   5.160   5.668   2.162 -0.3403  0.6034  0.4564
 3080TIP3    H130731   5.119   5.591   2.200  0.4823 -0.2057 -0.2573
 3080TIP3    H230732   5.113   5.742   2.201 -1.6012 -0.2554  0.6370
 3081TIP3   OH230733   4.889   4.033  15.406 -0.5265  0.1672  0.2933
 3081TIP3    H130734   4.799   4.041  15.374 -0.5363 -2.2303 -0.5434
 3081TIP3    H230735   4.918   3.948  15.372  1.0088 -0.5193  3.0667
 3082TIP3   OH230736   2.142   5.798  10.518  0.3423 -0.2024 -0.8933
 3082TIP3    H130737   2.164   5.709  10.491  1.0619 -0.5615  0.7148
 3082TIP3    H230738   2.212   5.852  10.481  1.5473 -0.7398  0.4663
 3083TIP3   OH230739   6.645   3.776  15.655  0.3348 -0.0070 -0.7467
 3083TIP3    H130740   6.670   3.689  15.626  0.4709 -0.3204  0.2696
 3083TIP3    H230741   6.714   3.802  15.716 -1.3285 -0.5505  1.4756
 3084TIP3   OH230742   1.288   0.285   0.153 -0.2468  0.1551 -0.7884
 3084TIP3    H130743   1.203   0.322   0.177  1.0185  1.8111  1.5697
 3084TIP3    H230744   1.304   0.219   0.220  0.0881 -0.5965 -1.5892
 3085TIP3   OH230745   5.164   0.402   1.741 -0.5126  0.1949  0.0168
 3085TIP3    H130746   5.120   0.351   1.810  1.2973 -0.0845  1.0186
 3085TIP3    H230747   5.098   0.466   1.714 -1.8713 -0.8236  0.7444
 3086TIP3   OH230748   3.206   6.143   3.434  0.1917  0.0467 -0.4646
 3086TIP3    H130749   3.226   6.131   3.341 -0.2625  0.9390 -0.6879
 3086TIP3    H230750   3.111   6.143   3.438  0.2132 -0.6640  0.1002
 3087TIP3   OH230751   0.348   6.371   4.652  0.5807  0.0479  0.1931
 3087TIP3    H130752   0.330   6.420   4.572 -1.5988  0.4506  0.8562
 3087TIP3    H230753   0.401   6.297   4.624 -0.1183  0.1957 -1.6359
 3088TIP3   OH230754   2.164   5.953   3.272  0.2639  0.3153 -0.3004
 3088TIP3    H130755   2.148   6.032   3.221  2.2975  0.8305 -0.2495
 3088TIP3    H230756   2.223   5.981   3.343  0.4421 -1.0877  0.1528
 3089TIP3   OH230757   6.575   6.135  12.837 -1.2040 -0.2601 -0.4399
 3089TIP3    H130758   6.530   6.214  12.866 -0.8767  0.7052 -2.4326
 3089TIP3    H230759   6.652   6.129  12.894 -1.6128  0.4337  0.2050
 3090TIP3   OH230760   5.257   4.460  16.691  0.1734  0.7605  0.2980
 3090TIP3    H130761   5.266   4.371  16.727 -0.6302  1.0246  1.1684
 3090TIP3    H230762   5.174   4.458  16.644 -0.9832  1.6531  2.1905
 3091TIP3   OH230763   4.527   4.507   0.046  0.4467 -0.0557 -0.1138
 3091TIP3    H130764   4.491   4.576   0.101 -0.5244 -1.3158  0.9137
 3091TIP3    H230765   4.553   4.551  -0.034  1.6436  1.7935  1.2291
 3092TIP3   OH230766   5.941   3.630   4.330  0.3194 -0.2285  0.1418
 3092TIP3    H130767   6.008   3.643   4.263  0.7402  3.1211  1.0282
 3092TIP3    H230768   5.863   3.671   4.295 -0.2585 -0.8764  0.6262
 3093TIP3   OH230769   5.827   3.721  14.137  0.2914 -0.6215  0.0889
 3093TIP3    H130770   5.754   3.756  14.085 -0.0047 -1.5183 -0.1089
 3093TIP3    H230771   5.900   3.780  14.117 -0.0190 -0.4973 -0.7526
 3094TIP3   OH230772   4.052   0.092  11.106  0.3614 -0.1110 -0.0675
 3094TIP3    H130773   4.010   0.100  11.191  0.9460  0.3980  0.1821
 3094TIP3    H230774   4.016   0.012  11.068  0.4562 -0.6054  0.8672
 3095TIP3   OH230775   5.947   5.119  16.145 -0.3734 -0.0662  0.0875
 3095TIP3    H130776   5.862   5.101  16.184 -0.5576 -0.2120 -0.3710
 3095TIP3    H230777   5.939   5.207  16.108 -0.3609 -0.1213 -0.0468
 3096TIP3   OH230778   4.688   6.848   5.981 -0.5832  0.3104  0.3201
 3096TIP3    H130779   4.677   6.887   6.067  1.8712 -2.3983  2.0284
 3096TIP3    H230780   4.772   6.881   5.949  0.2685 -1.3932  0.6568
 3097TIP3   OH230781   5.571   1.043  14.612  0.0509 -0.9508  0.3394
 3097TIP3    H130782   5.654   0.996  14.600  0.4869 -0.0544 -0.2446
 3097TIP3    H230783   5.566   1.060  14.706  1.8050  1.1957  0.1280
 3098TIP3   OH230784   2.281   2.881   1.698  0.0547  0.5607 -0.0875
 3098TIP3    H130785   2.331   2.884   1.780  0.2354  0.5970 -0.1978
 3098TIP3    H230786   2.278   2.972   1.669 -2.4065  0.9932  1.3017
 3099TIP3   OH230787   5.795   6.543   0.505 -0.0581 -0.2054 -0.6742
 3099TIP3    H130788   5.859   6.612   0.488 -0.3407 -0.1174 -1.4170
 3099TIP3    H230789   5.723   6.560   0.444 -0.6167 -0.5354 -0.1285
 3100TIP3   OH230790   5.741   1.143   6.387 -0.2100  0.1774  0.1377
 3100TIP3    H130791   5.676   1.191   6.439 -2.5762 -2.4364 -0.1989
 3100TIP3    H230792   5.737   1.053   6.420  2.1965 -0.4207 -0.9466
 3101TIP3   OH230793   3.762   6.420  14.994  0.1614  0.3696 -0.1590
 3101TIP3    H130794   3.714   6.478  14.935  0.1369  0.6326  0.1223
 3101TIP3    H230795   3.724   6.434  15.080  1.5806  1.5662  0.3300
 3102TIP3   OH230796   0.999   2.258  12.993  0.5091 -0.2351 -0.3983
 3102TIP3    H130797   0.922   2.236  12.940 -0.3833  2.6532 -0.4755
 3102TIP3    H230798   1.029   2.174  13.028 -2.6928 -1.5015 -0.3394
 3103TIP3   OH230799   3.519   2.901  14.829 -0.8042 -0.0952  0.5231
 3103TIP3    H130800   3.554   2.816  14.802  0.7501  0.6936 -0.0835
 3103TIP3    H230801   3.456   2.924  14.761 -0.4653 -0.3073  0.1312
 3104TIP3   OH230802   5.950   4.154   0.661 -0.3305 -0.2929  0.1058
 3104TIP3    H130803   6.027   4.201   0.695  0.8109 -1.3490 -0.9075
 3104TIP3    H230804   5.898   4.221   0.618 -0.4020  0.5830  1.4981
 3105TIP3   OH230805   2.261   4.931  14.555  0.1206 -0.0340 -0.0710
 3105TIP3    H130806   2.280   4.986  14.479  0.4962  0.3432  0.2910
 3105TIP3    H230807   2.170   4.951  14.577 -1.0471 -2.4338 -2.2975
 3106TIP3   OH230808   3.171   5.795  12.160 -1.0517 -0.3791  0.0925
 3106TIP3    H130809   3.092   5.742  12.149 -1.5725 -0.1092  2.1367
 3106TIP3    H230810   3.140   5.885  12.156 -0.5403 -0.2289 -0.8810
 3107TIP3   OH230811   1.246   3.089  12.095 -0.1340  0.6052 -0.2463
 3107TIP3    H130812   1.272   2.998  12.080  1.4428  1.3480 -2.5184
 3107TIP3    H230813   1.208   3.117  12.012  2.3768  2.9246 -0.7333
 3108TIP3   OH230814   2.826   3.780   2.192 -0.1555 -0.1003 -0.0194
 3108TIP3    H130815   2.838   3.709   2.254 -1.8327 -0.0177  0.4601
 3108TIP3    H230816   2.731   3.791   2.186  0.0401  2.1947  0.0525
 3109TIP3   OH230817   5.791   3.908   0.944  0.2506 -0.1852  0.4635
 3109TIP3    H130818   5.821   3.856   1.019 -0.8337 -0.3132  0.8363
 3109TIP3    H230819   5.696   3.916   0.957  0.3786  1.9275  0.4292
 3110TIP3   OH230820   2.032   1.390  11.545 -0.4530 -0.0471  0.4042
 3110TIP3    H130821   2.015   1.346  11.461  0.9187  1.2970 -0.6505
 3110TIP3    H230822   2.015   1.483  11.527  0.4332  0.3380  1.4416
 3111TIP3   OH230823   2.700   6.630  15.816  0.2096 -0.5996  0.6930
 3111TIP3    H130824   2.734   6.653  15.903  2.1883 -0.0636 -0.1620
 3111TIP3    H230825   2.760   6.672  15.755 -1.7225 -0.1058 -0.9758
 3112TIP3   OH230826   6.087   5.717   5.999  0.5840 -0.0206 -0.1755
 3112TIP3    H130827   6.110   5.660   5.925  0.5042 -1.0728  0.5910
 3112TIP3    H230828   6.051   5.796   5.958  0.1940 -0.7385 -1.2505
 3113TIP3   OH230829   1.583   4.871   4.419  0.0269  0.1276  0.5485
 3113TIP3    H130830   1.504   4.841   4.463 -1.4954  0.9216 -1.5020
 3113TIP3    H230831   1.590   4.815   4.341  1.9660 -0.4566  1.0869
 3114TIP3   OH230832   6.542   0.943   3.418 -0.6643 -0.3445  0.7323
 3114TIP3    H130833   6.535   1.031   3.454  0.1651 -0.2552  0.7091
 3114TIP3    H230834   6.592   0.954   3.336 -2.6285 -0.5299 -0.5459
 3115TIP3   OH230835   4.751   3.752   1.076  0.1070  0.2883  0.1163
 3115TIP3    H130836   4.668   3.740   1.123 -0.2006 -1.3858 -0.7579
 3115TIP3    H230837   4.810   3.690   1.118 -0.4041 -1.8776 -2.1169
 3116TIP3   OH230838   6.608   2.287  14.381  0.2114 -0.1643  0.1529
 3116TIP3    H130839   6.604   2.366  14.327  0.5980 -0.6570 -0.6121
 3116TIP3    H230840   6.519   2.278  14.417  0.0839  0.4376 -0.0008
 3117TIP3   OH230841   0.871   2.053  14.107 -0.5168  0.5595 -0.2530
 3117TIP3    H130842   0.924   2.048  14.187  1.9397  1.2005 -1.7102
 3117TIP3    H230843   0.828   2.138  14.112 -2.1230 -0.2768  1.3089
 3118TIP3   OH230844   4.881   6.533   2.121 -0.1528  0.5072 -0.0429
 3118TIP3    H130845   4.867   6.622   2.089  0.7397  0.2972 -1.0910
 3118TIP3    H230846   4.826   6.527   2.199 -0.7948  1.7327 -0.3620
 3119TIP3   OH230847   6.014   5.949  13.688 -0.2120 -0.2628  0.4624
 3119TIP3    H130848   5.925   5.983  13.678 -0.3564 -0.5264  0.8119
 3119TIP3    H230849   6.069   6.026  13.699 -0.4681 -0.1170  0.7357
 3120TIP3   OH230850   6.649   1.185   3.017 -0.3978 -0.2940  0.1444
 3120TIP3    H130851   6.722   1.218   2.966  1.0084 -2.0853  0.9067
 3120TIP3    H230852   6.574   1.189   2.957  0.5363  0.5366 -1.0138
 3121TIP3   OH230853   1.398   6.627   4.917 -0.2994  0.0234 -0.1192
 3121TIP3    H130854   1.320   6.642   4.862  0.5187 -0.2937 -1.4078
 3121TIP3    H230855   1.457   6.577   4.861  0.6126 -0.2358  1.0460
 3122TIP3   OH230856   2.723   1.831  11.482  0.2472 -0.0395  0.1719
 3122TIP3    H130857   2.656   1.899  11.472  0.8350  0.4201 -0.8076
 3122TIP3    H230858   2.700   1.787  11.563 -0.2897  1.1802  0.7140
 3123TIP3   OH230859   1.386   2.864   2.732 -0.2433 -0.1059  0.8445
 3123TIP3    H130860   1.404   2.771   2.719  0.2137  0.0069  0.6560
 3123TIP3    H230861   1.320   2.885   2.666 -1.3361 -0.5989  1.7529
 3124TIP3   OH230862   3.370   5.418  16.788  0.6447  0.1301 -0.1385
 3124TIP3    H130863   3.361   5.500  16.739  0.4580 -0.5919 -1.3545
 3124TIP3    H230864   3.437   5.436  16.853 -0.7261  1.8331  0.9020
 3125TIP3   OH230865   2.533   0.986   5.577 -0.4178 -0.1292  0.2100
 3125TIP3    H130866   2.493   1.004   5.662 -0.9616 -2.1012  0.4112
 3125TIP3    H230867   2.534   1.071   5.533 -3.4550  0.3177  0.7793
 3126TIP3   OH230868   1.263   4.806  15.675 -0.6482  0.5730 -0.4040
 3126TIP3    H130869   1.250   4.750  15.598 -0.3988 -0.1679  0.0821
 3126TIP3    H230870   1.176   4.813  15.714 -0.8109  1.1143 -0.8672
 3127TIP3   OH230871   3.385   3.772  13.086 -0.4865  0.0017 -0.2924
 3127TIP3    H130872   3.412   3.688  13.122 -0.7916 -0.4514 -1.0868
 3127TIP3    H230873   3.360   3.752  12.996 -0.8538  0.8942 -0.3962
 3128TIP3   OH230874   5.010   2.388   1.445  0.0382  0.3059 -0.2595
 3128TIP3    H130875   4.989   2.439   1.366  1.7220  1.2406 -0.1479
 3128TIP3    H230876   5.087   2.431   1.481  1.9444 -2.6727 -0.4601
 3129TIP3   OH230877   0.661   3.573  11.918  1.1168 -0.7078  0.2416
 3129TIP3    H130878   0.645   3.660  11.882  0.0386 -1.1440 -0.3718
 3129TIP3    H230879   0.677   3.517  11.842  1.8392 -1.0396  0.6302
 3130TIP3   OH230880   3.133   2.248  16.387 -0.1063  0.6479  0.2330
 3130TIP3    H130881   3.086   2.187  16.330 -1.6376 -0.3010  2.3451
 3130TIP3    H230882   3.223   2.247  16.355 -0.3358 -1.8139 -0.5656
 3131TIP3   OH230883   1.889   5.535  11.833  0.1434 -0.4589 -0.2362
 3131TIP3    H130884   1.929   5.518  11.748  2.6177 -0.3944  0.8341
 3131TIP3    H230885   1.833   5.459  11.848  1.8155 -1.8671 -0.7625
 3132TIP3   OH230886   5.064   3.193  13.348  0.5357  0.7904 -0.3318
 3132TIP3    H130887   5.134   3.259  13.346  1.0535  0.2624  0.2373
 3132TIP3    H230888   5.057   3.169  13.440  0.7056 -0.3347 -0.6074
 3133TIP3   OH230889   4.113   4.663  15.604 -0.2995 -0.3279 -0.0743
 3133TIP3    H130890   4.095   4.739  15.660  0.1601  1.6517 -2.4122
 3133TIP3    H230891   4.029   4.617  15.597 -0.3458 -0.6831  2.2036
 3134TIP3   OH230892   0.574   4.055   5.739 -0.0041 -0.7922  0.3346
 3134TIP3    H130893   0.496   4.051   5.795 -0.2863  1.9177  0.2448
 3134TIP3    H230894   0.550   4.004   5.661 -1.7427  0.0598  0.2755
 3135TIP3   OH230895   4.657   1.723   1.084 -0.1263 -0.3281 -0.2885
 3135TIP3    H130896   4.571   1.699   1.048 -0.4661 -0.8941  0.8536
 3135TIP3    H230897   4.638   1.753   1.173  0.9020 -0.7818  0.0961
 3136TIP3   OH230898   4.544   5.669   2.677 -0.2854 -0.4004  0.6395
 3136TIP3    H130899   4.625   5.660   2.727 -0.8121 -1.4180  1.3548
 3136TIP3    H230900   4.478   5.623   2.730 -0.7375 -2.1027 -1.2590
 3137TIP3   OH230901   1.666   5.615   3.511  0.6799 -0.7520 -0.2871
 3137TIP3    H130902   1.701   5.658   3.589  0.9591 -1.0373 -0.2527
 3137TIP3    H230903   1.649   5.687   3.450 -0.0243 -0.4789  0.2195
 3138TIP3   OH230904   1.029   6.089  11.578  0.4330  0.2833 -0.9145
 3138TIP3    H130905   1.040   6.048  11.492 -0.4658 -2.1690  0.0496
 3138TIP3    H230906   0.964   6.158  11.564  1.1143  0.6474 -2.3972
 3139TIP3   OH230907   0.688   0.146   5.686  0.3109  0.1746  0.5182
 3139TIP3    H130908   0.637   0.224   5.663 -0.4821  0.3867  2.7389
 3139TIP3    H230909   0.623   0.085   5.721  1.0271 -1.2321 -0.5380
 3140TIP3   OH230910   4.374   4.585  14.104  0.1205  0.6210 -0.0955
 3140TIP3    H130911   4.317   4.659  14.082 -0.5612  0.5484  1.3537
 3140TIP3    H230912   4.356   4.520  14.036  1.2085  1.9861 -1.7771
 3141TIP3   OH230913   4.630   1.782   4.110 -0.0239  0.2848 -0.4554
 3141TIP3    H130914   4.556   1.839   4.090 -0.0982  0.4785  0.3446
 3141TIP3    H230915   4.707   1.831   4.080 -0.3173 -0.8829 -3.4687
 3142TIP3   OH230916   2.438   6.278   0.193  0.4304  0.1996  0.3535
 3142TIP3    H130917   2.504   6.228   0.145  0.4617  1.2863 -0.7876
 3142TIP3    H230918   2.359   6.224   0.188  0.6580 -0.0960 -0.1913
 3143TIP3   OH230919   3.254   3.641  16.907  0.1921 -0.4083 -0.3360
 3143TIP3    H130920   3.194   3.567  16.919 -0.7924  0.3831 -0.2664
 3143TIP3    H230921   3.337   3.610  16.943  0.3238 -2.1352 -1.9724
 3144TIP3   OH230922   1.940   3.118  15.340  0.0947 -0.4533  0.5229
 3144TIP3    H130923   2.002   3.098  15.411  0.8279  0.3022  0.1153
 3144TIP3    H230924   1.856   3.126  15.384  0.4023 -0.7988  1.1958
 3145TIP3   OH230925   1.107   2.915  13.301  0.0244  0.5027 -0.4732
 3145TIP3    H130926   1.126   2.994  13.251 -0.5239  1.2594  0.4657
 3145TIP3    H230927   1.014   2.923  13.325  0.3539  0.3731  0.9662
 3146TIP3   OH230928   3.020   2.915   6.136 -0.2450 -0.0114  0.5804
 3146TIP3    H130929   2.928   2.906   6.162 -0.2109  1.2310  1.2189
 3146TIP3    H230930   3.021   2.989   6.075  0.1828 -0.7201 -0.2825
 3147TIP3   OH230931   1.214   2.293   4.079 -0.3948  0.4083  0.0051
 3147TIP3    H130932   1.161   2.331   4.009  0.2563 -1.3677 -1.5514
 3147TIP3    H230933   1.300   2.334   4.069 -0.2834  0.1063 -0.2985
 3148TIP3   OH230934   0.362   4.482  13.475 -0.2093 -0.5755  0.2521
 3148TIP3    H130935   0.269   4.494  13.460  0.2818  1.3760 -1.6337
 3148TIP3    H230936   0.396   4.571  13.488  1.5402 -1.1579 -0.0896
 3149TIP3   OH230937   0.724   4.859   3.459 -0.6119 -0.5675 -0.0796
 3149TIP3    H130938   0.745   4.848   3.551 -1.0590 -0.6493  0.0155
 3149TIP3    H230939   0.629   4.869   3.457 -0.3453  3.2122 -0.1487
 3150TIP3   OH230940   6.170   4.104  15.762 -0.2119  0.4379 -0.2928
 3150TIP3    H130941   6.092   4.081  15.812  0.3464 -0.6001  0.1218
 3150TIP3    H230942   6.182   4.031  15.702 -0.4305  1.3141 -1.4336
 3151TIP3   OH230943   5.002   5.366  14.563  0.2566 -0.2936 -0.1719
 3151TIP3    H130944   5.036   5.350  14.652 -0.2332 -0.8442 -0.0792
 3151TIP3    H230945   5.069   5.420  14.522  0.0029  0.8640  0.8707
 3152TIP3   OH230946   3.112   3.247  15.547 -0.1909 -0.0938  0.1183
 3152TIP3    H130947   3.094   3.189  15.622  1.0000  2.1331  2.2891
 3152TIP3    H230948   3.055   3.322  15.561  0.5790  0.6819 -0.7969
 3153TIP3   OH230949   3.244   3.799  12.823  0.0193 -0.2291  0.0724
 3153TIP3    H130950   3.192   3.745  12.883  0.5230 -0.0093  0.7086
 3153TIP3    H230951   3.191   3.878  12.811 -1.1654 -1.2037 -1.5887
 3154TIP3   OH230952   1.414   5.106  11.961 -0.5489 -0.1886  0.4025
 3154TIP3    H130953   1.374   5.097  11.874 -0.9100  1.4960  0.3653
 3154TIP3    H230954   1.450   5.019  11.979 -2.1303 -1.1030 -0.5993
 3155TIP3   OH230955   0.319   3.340   3.545  0.0224 -0.2138 -0.3059
 3155TIP3    H130956   0.404   3.300   3.525  0.5437  0.1573  1.0214
 3155TIP3    H230957   0.335   3.434   3.536  0.4471  0.0198  2.1868
 3156TIP3   OH230958   5.404   0.646   3.162 -0.1070  0.2693 -0.1399
 3156TIP3    H130959   5.329   0.684   3.115 -0.6969 -0.2186  0.3912
 3156TIP3    H230960   5.373   0.560   3.190  0.7582 -0.0459 -0.1512
 3157TIP3   OH230961   1.173   3.934   0.562 -1.0178 -0.4267 -0.3015
 3157TIP3    H130962   1.137   4.004   0.617  0.1051 -0.3491  0.3712
 3157TIP3    H230963   1.139   3.853   0.601 -0.4220 -0.3582  0.3793
 3158TIP3   OH230964   5.240   4.306   3.324 -0.0388 -0.5140 -0.3850
 3158TIP3    H130965   5.280   4.222   3.347  0.2931 -0.2227  0.1145
 3158TIP3    H230966   5.238   4.306   3.228 -0.3690 -1.2459 -0.3872
 3159TIP3   OH230967   6.171   5.102   0.063 -0.1008 -0.8358  0.3452
 3159TIP3    H130968   6.085   5.144   0.055 -0.1497 -0.7641  1.1927
 3159TIP3    H230969   6.165   5.050   0.143  0.7840 -0.5187  0.6268
 3160TIP3   OH230970   0.536   5.421   5.744  0.2183  0.7727  0.3015
 3160TIP3    H130971   0.458   5.429   5.799 -0.1286  0.2237 -0.0981
 3160TIP3    H230972   0.570   5.510   5.736 -1.6989  1.4059 -1.4409
 3161TIP3   OH230973   1.423   0.394   6.247  0.5364 -0.1857 -0.0103
 3161TIP3    H130974   1.367   0.470   6.231 -0.3031 -0.9511 -0.8588
 3161TIP3    H230975   1.513   0.428   6.239  0.1781  0.5246 -1.4223
 3162TIP3   OH230976   3.911   5.202  11.649 -0.0492 -0.7650 -0.3700
 3162TIP3    H130977   3.889   5.110  11.633  1.2046 -1.2207  0.3352
 3162TIP3    H230978   3.867   5.250  11.580  0.6579 -2.0765 -1.7984
 3163TIP3   OH230979   0.810   2.545  14.808  0.1983 -0.1331 -0.2793
 3163TIP3    H130980   0.785   2.578  14.722 -2.5904 -2.0741 -0.3577
 3163TIP3    H230981   0.736   2.566  14.865  1.1959 -0.4752  1.2221
 3164TIP3   OH230982   4.360   0.274  16.302  0.3993  0.6307 -0.2177
 3164TIP3    H130983   4.322   0.357  16.273  0.4736  0.7608  0.0512
 3164TIP3    H230984   4.361   0.219  16.224 -0.0648  0.7283 -0.2970
 3165TIP3   OH230985   0.592   0.199  14.139 -0.4549  0.2890 -0.2514
 3165TIP3    H130986   0.539   0.251  14.198 -0.5206 -0.0288 -0.0242
 3165TIP3    H230987   0.566   0.226  14.051 -0.7663  0.3565 -0.1377
 3166TIP3   OH230988   2.687   1.104  17.067 -0.0049  0.6045  0.1427
 3166TIP3    H130989   2.621   1.096  17.136  0.9025  1.1829  1.1115
 3166TIP3    H230990   2.769   1.076  17.108  0.5798  1.1108 -0.6469
 3167TIP3   OH230991   1.002   2.325   4.435 -0.1927 -0.1941 -0.2172
 3167TIP3    H130992   1.055   2.274   4.496 -0.6773  1.2726  1.5101
 3167TIP3    H230993   1.056   2.402   4.415 -0.7041  0.1354 -0.3448
 3168TIP3   OH230994   2.760   4.103   1.302  0.2531  0.3043 -0.4332
 3168TIP3    H130995   2.704   4.041   1.348 -2.1956  2.7137  0.1118
 3168TIP3    H230996   2.827   4.127   1.366  0.3116 -0.6486 -0.1330
 3169TIP3   OH230997   5.438   2.126  11.351  0.5543  0.3660  0.7448
 3169TIP3    H130998   5.402   2.049  11.308 -1.1265  1.1735  0.6160
 3169TIP3    H230999   5.492   2.091  11.421  0.6184 -0.9329  0.0789
 3170TIP3   OH231000   1.638   0.552  11.613  0.9372  0.2262 -0.2360
 3170TIP3    H131001   1.651   0.615  11.685  0.2025 -0.0767  0.1725
 3170TIP3    H231002   1.565   0.498  11.642  1.7384 -1.0067 -0.4488
 3171TIP3   OH231003   2.722   3.516   3.573  0.3725  0.1136 -0.0506
 3171TIP3    H131004   2.725   3.560   3.658  2.1185  0.0161 -0.0402
 3171TIP3    H231005   2.649   3.455   3.582  0.5639  0.0433  1.4165
 3172TIP3   OH231006   2.437   5.518   4.104 -0.0640  0.3972 -0.1353
 3172TIP3    H131007   2.530   5.499   4.099 -0.0315  0.5294 -0.0614
 3172TIP3    H231008   2.431   5.592   4.165 -0.0371  1.6349 -1.5616
 3173TIP3   OH231009   1.180   2.236  10.400 -0.3901 -0.2897 -0.0922
 3173TIP3    H131010   1.239   2.204  10.468 -0.1802 -1.5562 -0.8407
 3173TIP3    H231011   1.092   2.217  10.434 -0.3694  0.8816  0.6730
 3174TIP3   OH231012   0.903   0.346   3.186  0.6000  0.4775 -0.0823
 3174TIP3    H131013   0.968   0.291   3.230  0.4439  0.3696  0.0119
 3174TIP3    H231014   0.829   0.350   3.246 -0.5242 -1.4868 -1.2487
 3175TIP3   OH231015   6.594   1.953   4.216 -0.2364  0.3630 -0.3125
 3175TIP3    H131016   6.612   2.027   4.274 -1.5605 -0.8707  1.8289
 3175TIP3    H231017   6.678   1.910   4.206  0.0058  0.5018  0.9195
 3176TIP3   OH231018   5.655   0.680   3.294 -0.0159  0.2811  0.0865
 3176TIP3    H131019   5.565   0.674   3.261  0.4576 -0.1334 -1.2140
 3176TIP3    H231020   5.679   0.590   3.317 -0.6391  0.6755  2.5357
 3177TIP3   OH231021   0.010   0.294  12.741  0.1733 -0.2364 -0.1974
 3177TIP3    H131022   0.100   0.275  12.713  0.1196 -0.0004 -0.5254
 3177TIP3    H231023   0.020   0.360  12.810  0.1641  0.9667 -1.3127
 3178TIP3   OH231024   3.422   4.245  11.248  0.2030 -0.2227 -0.2520
 3178TIP3    H131025   3.383   4.232  11.161  0.9375 -0.6567 -0.5174
 3178TIP3    H231026   3.361   4.202  11.308 -0.3283  0.1142 -0.5411
 3179TIP3   OH231027   4.781   3.243  11.435 -0.0960  0.3859 -0.4895
 3179TIP3    H131028   4.858   3.299  11.447 -0.2829  0.9477 -1.7010
 3179TIP3    H231029   4.810   3.156  11.462  0.0023  1.1338  2.0794
 3180TIP3   OH231030   6.610   3.413  12.362 -0.3723  0.1921 -0.0196
 3180TIP3    H131031   6.599   3.504  12.336 -0.2632 -0.0291 -0.8726
 3180TIP3    H231032   6.543   3.365  12.313  1.5265 -0.5929 -2.0290
 3181TIP3   OH231033   4.014   6.685  13.001  0.0095  0.2056  0.6641
 3181TIP3    H131034   4.063   6.605  13.018 -0.3003 -0.2805 -0.6282
 3181TIP3    H231035   3.925   6.666  13.030  0.2607  0.6082  1.7281
 3182TIP3   OH231036   3.651   6.829   3.729  0.0362 -0.1555 -0.2687
 3182TIP3    H131037   3.660   6.915   3.771  2.3380 -1.1290  1.4582
 3182TIP3    H231038   3.625   6.770   3.799 -0.4820 -1.0928 -1.2107
 3183TIP3   OH231039   5.100   1.561  10.148  0.1095 -0.4328  0.2301
 3183TIP3    H131040   5.079   1.601  10.232 -1.5974  2.7344 -1.5549
 3183TIP3    H231041   5.033   1.493  10.136 -1.4229  1.0317  0.2184
 3184TIP3   OH231042   5.269   0.976  14.830 -0.3238 -0.1798 -0.1658
 3184TIP3    H131043   5.324   1.053  14.842 -0.6327  0.4908 -2.5263
 3184TIP3    H231044   5.182   1.003  14.861  0.2392 -0.7300  2.0890
 3185TIP3   OH231045   2.422   6.206   2.839  0.0775  0.4849 -0.5242
 3185TIP3    H131046   2.397   6.175   2.926 -2.2836  1.9327 -0.5828
 3185TIP3    H231047   2.494   6.267   2.855  0.3484 -0.0440  0.3049
 3186TIP3   OH231048   4.706   2.126   0.943  0.0553 -0.3475  0.1809
 3186TIP3    H131049   4.778   2.064   0.932 -0.1628 -0.7278  0.8182
 3186TIP3    H231050   4.637   2.092   0.885  0.3676 -0.0040 -0.4005
 3187TIP3   OH231051   6.183   2.291  10.599  0.4418 -0.2904 -0.2535
 3187TIP3    H131052   6.267   2.258  10.566  0.8241  0.0897  0.3147
 3187TIP3    H231053   6.185   2.384  10.579 -0.2290 -0.4271 -1.0128
 3188TIP3   OH231054   1.630   3.330   0.591  0.3031  0.0225 -0.0735
 3188TIP3    H131055   1.699   3.324   0.525 -0.5161 -0.9849 -0.8803
 3188TIP3    H231056   1.549   3.336   0.540 -0.3983 -1.4667  0.8139
 3189TIP3   OH231057   0.032   2.596   3.369 -0.0510  0.3693  0.2899
 3189TIP3    H131058   0.018   2.683   3.334  3.2986  1.6245  1.6615
 3189TIP3    H231059   0.037   2.608   3.464  1.2558 -1.1336  0.4650
 3190TIP3   OH231060   0.483   1.648   0.437  0.3422  0.6447  0.1319
 3190TIP3    H131061   0.478   1.736   0.399 -3.0223  1.5627  2.3007
 3190TIP3    H231062   0.547   1.656   0.508  0.4726  1.1589 -0.0364
 3191TIP3   OH231063   4.247   3.152   1.423 -0.0320 -0.4871  0.2149
 3191TIP3    H131064   4.337   3.124   1.408 -0.6183 -1.8182 -1.0525
 3191TIP3    H231065   4.195   3.071   1.418 -1.5244  0.4842 -1.2221
 3192TIP3   OH231066   4.284   0.386  12.283  0.1568  0.3000 -0.3975
 3192TIP3    H131067   4.284   0.297  12.318 -2.6732 -0.2419 -1.5521
 3192TIP3    H231068   4.229   0.435  12.344  1.4974  1.2473  0.0923
 3193TIP3   OH231069   2.141   0.556  11.175  0.6241  0.2222 -0.3538
 3193TIP3    H131070   2.123   0.465  11.154  0.3052 -0.4893  2.5849
 3193TIP3    H231071   2.161   0.597  11.090  1.0571 -2.5952 -1.7178
 3194TIP3   OH231072   6.757   1.333  14.470 -0.0966 -0.1748 -0.0042
 3194TIP3    H131073   6.712   1.413  14.446  1.0769 -0.5308 -4.2456
 3194TIP3    H231074   6.845   1.342  14.433  0.1603 -3.2859 -0.4898
 3195TIP3   OH231075   5.340   4.663   1.200  0.6766  0.0425 -0.5427
 3195TIP3    H131076   5.250   4.694   1.207  0.3830 -1.0772  1.1696
 3195TIP3    H231077   5.348   4.631   1.110 -1.8194 -3.2587  0.2279
 3196TIP3   OH231078   0.800   6.703   2.158  0.1821 -0.3130 -0.5965
 3196TIP3    H131079   0.827   6.767   2.092  0.9969 -0.4345 -0.3895
 3196TIP3    H231080   0.789   6.754   2.238  2.2919 -0.6201 -0.0571
 3197TIP3   OH231081   1.554   3.787  12.116 -0.2974 -0.4503  0.2854
 3197TIP3    H131082   1.582   3.824  12.032 -0.9489 -0.1719  0.1807
 3197TIP3    H231083   1.620   3.721  12.137  1.7154  1.6907  1.1583
 3198TIP3   OH231084   1.478   2.310   3.434  0.1377 -0.3078  0.0182
 3198TIP3    H131085   1.547   2.340   3.374  1.0650 -0.4051  0.9991
 3198TIP3    H231086   1.402   2.295   3.378  0.2788  1.8107 -0.8161
 3199TIP3   OH231087   1.703   5.448   4.928 -0.3397 -0.1341 -0.0011
 3199TIP3    H131088   1.641   5.519   4.911 -0.4789 -0.2523  0.0013
 3199TIP3    H231089   1.774   5.462   4.867 -0.6218 -0.2971 -0.3695
 3200TIP3   OH231090   0.881   6.207  15.998 -0.3207 -0.3330 -0.2308
 3200TIP3    H131091   0.843   6.171  16.078  0.9578 -0.6658  0.2549
 3200TIP3    H231092   0.826   6.174  15.928 -1.2771 -0.2886  0.4860
 3201TIP3   OH231093   6.312   6.050   2.810  0.2401 -0.2367  0.0734
 3201TIP3    H131094   6.404   6.077   2.805 -0.1843  1.6111  1.1070
 3201TIP3    H231095   6.275   6.075   2.725  0.7241 -1.2006 -0.4332
 3202TIP3   OH231096   4.115   4.679  14.764 -0.0974  0.0551  0.1368
 3202TIP3    H131097   4.136   4.591  14.732  1.8134  0.4614  0.1471
 3202TIP3    H231098   4.200   4.721  14.774 -1.0083  2.0982 -0.3508
 3203TIP3   OH231099   5.349   5.656  12.163 -0.0738  0.1134 -0.3634
 3203TIP3    H131100   5.278   5.592  12.172 -1.5995  1.6487 -0.7866
 3203TIP3    H231101   5.365   5.686  12.252 -3.0840  2.8470 -0.5461
 3204TIP3   OH231102   1.996   6.302  12.625 -0.5081 -0.3214 -0.8760
 3204TIP3    H131103   2.076   6.353  12.611 -0.2735 -0.4791 -0.1711
 3204TIP3    H231104   1.925   6.363  12.607 -0.3911 -1.2072 -5.7031
 3205TIP3   OH231105   3.177   4.674  11.497 -0.1205 -0.3810  0.1822
 3205TIP3    H131106   3.143   4.586  11.488 -0.5287 -0.1101 -1.1763
 3205TIP3    H231107   3.101   4.731  11.483  0.4091  0.1954 -0.4224
 3206TIP3   OH231108   1.826   1.289   5.702  0.1609  0.3517 -0.2173
 3206TIP3    H131109   1.905   1.290   5.755 -0.1717  3.1068  0.3897
 3206TIP3    H231110   1.854   1.252   5.618  2.0129  0.9564  0.0949
 3207TIP3   OH231111   4.059   3.413  13.563 -0.5213 -1.0662  0.3766
 3207TIP3    H131112   4.149   3.380  13.559 -0.1998 -0.1412 -0.2476
 3207TIP3    H231113   4.005   3.335  13.549  0.2039 -1.4319 -0.5076
 3208TIP3   OH231114   3.452   6.230  15.522 -0.0891 -0.3368 -0.3128
 3208TIP3    H131115   3.439   6.287  15.446  1.7163 -0.5799 -0.8458
 3208TIP3    H231116   3.533   6.183  15.503 -1.0882 -2.5113  0.4856
 3209TIP3   OH231117   4.630   0.359   2.441 -0.1196 -0.3549  0.1301
 3209TIP3    H131118   4.703   0.356   2.503  0.8526 -0.7767 -1.0108
 3209TIP3    H231119   4.665   0.405   2.365 -1.7754  1.5696  0.4490
 3210TIP3   OH231120   2.459   6.606  15.678 -0.1281 -0.3593  0.0556
 3210TIP3    H131121   2.438   6.692  15.640 -0.9988  0.1085  1.4906
 3210TIP3    H231122   2.534   6.623  15.735 -0.4252 -0.5013  0.4934
 3211TIP3   OH231123   2.080   2.984   4.612 -0.2835  0.1851  0.5416
 3211TIP3    H131124   2.067   2.898   4.651 -1.8475  0.1376  0.0174
 3211TIP3    H231125   2.169   3.008   4.635 -0.1699 -1.1132  1.5973
 3212TIP3   OH231126   6.049   0.885   0.204 -0.1044 -0.1108 -0.3045
 3212TIP3    H131127   6.003   0.969   0.211 -1.1872 -0.7688  1.0036
 3212TIP3    H231128   6.072   0.863   0.294  0.8425 -0.8671 -0.7161
 3213TIP3   OH231129   5.308   6.062  15.986  0.3380 -0.2845  0.7733
 3213TIP3    H131130   5.232   6.037  16.038  0.4416 -0.4125  0.8627
 3213TIP3    H231131   5.329   5.984  15.935  1.5472 -0.8765  2.1151
 3214TIP3   OH231132   0.805   0.302   1.632  0.1827 -0.2772  0.1438
 3214TIP3    H131133   0.762   0.223   1.600  1.0029 -1.0539  0.8987
 3214TIP3    H231134   0.815   0.288   1.727 -0.1328  0.9595  0.3794
 3215TIP3   OH231135   5.430   4.558  12.958 -0.3261 -0.4392 -0.1366
 3215TIP3    H131136   5.525   4.564  12.968 -0.3711 -0.2715  0.2083
 3215TIP3    H231137   5.414   4.470  12.924 -0.0819 -0.6232  0.2286
 3216TIP3   OH231138   2.993   4.577   2.877 -0.0365 -0.1449 -0.4140
 3216TIP3    H131139   3.055   4.624   2.933 -0.7268  0.7249 -0.3668
 3216TIP3    H231140   2.922   4.639   2.861  0.1867 -0.3243 -2.3691
 3217TIP3   OH231141   5.651   6.828   5.393 -0.5826  0.4823 -0.0274
 3217TIP3    H131142   5.657   6.774   5.472 -0.0865 -0.6409 -0.8173
 3217TIP3    H231143   5.627   6.915   5.426  0.1641  0.1723  1.4132
 3218TIP3   OH231144   0.783   3.187  15.401  0.4170  0.1526 -0.0084
 3218TIP3    H131145   0.806   3.279  15.387 -0.3529  0.1539 -1.4400
 3218TIP3    H231146   0.821   3.141  15.326 -0.5518 -0.4660 -0.1260
 3219TIP3   OH231147   1.636   0.069  14.734  0.0903  0.1300  0.2210
 3219TIP3    H131148   1.625   0.057  14.640  2.2892 -0.7132  0.0265
 3219TIP3    H231149   1.568   0.013  14.773 -2.4981  2.3398 -0.7698
 3220TIP3   OH231150   6.205   5.939  16.966  0.4778 -0.3070 -0.7758
 3220TIP3    H131151   6.192   5.968  17.057 -1.4805 -0.3750 -0.9816
 3220TIP3    H231152   6.203   5.844  16.970  1.2056 -0.3304 -0.8073
 3221TIP3   OH231153   2.735   2.102   2.532 -0.1668 -0.2517  0.4961
 3221TIP3    H131154   2.682   2.099   2.612  0.2735 -0.5244  0.7827
 3221TIP3    H231155   2.826   2.098   2.563  0.0223 -2.8308 -0.0851
 3222TIP3   OH231156   0.900   5.592   3.415 -0.3212  1.0046 -0.4676
 3222TIP3    H131157   0.832   5.659   3.410  1.0441  2.3766 -1.4886
 3222TIP3    H231158   0.860   5.521   3.465 -2.7399  1.4682 -1.6106
 3223TIP3   OH231159   6.824   2.836  15.575 -0.0507  0.1133  0.0660
 3223TIP3    H131160   6.840   2.898  15.504  1.0384 -1.3437 -1.0124
 3223TIP3    H231161   6.729   2.823  15.574 -0.3064  1.7723  0.3580
 3224TIP3   OH231162   2.078   5.043   3.971  0.0479 -0.0996 -0.3812
 3224TIP3    H131163   2.120   4.970   4.016  0.7113  0.3811 -0.2166
 3224TIP3    H231164   2.025   5.085   4.039 -0.0993 -0.2405 -0.4062
 3225TIP3   OH231165   5.158   1.627  16.445 -0.4334 -0.1771 -0.3907
 3225TIP3    H131166   5.139   1.549  16.392  1.0463 -0.7554 -0.1341
 3225TIP3    H231167   5.220   1.596  16.511 -0.2180  1.1208  0.0422
 3226TIP3   OH231168   4.353   1.111   3.855 -0.5997 -0.3479  0.3949
 3226TIP3    H131169   4.342   1.125   3.761 -0.2096  0.3288  0.4487
 3226TIP3    H231170   4.440   1.072   3.863 -0.2115  0.5269  0.5554
 3227TIP3   OH231171   1.614   5.193  11.738  0.4512 -0.1336 -0.3319
 3227TIP3    H131172   1.640   5.103  11.759  0.6332 -0.0916 -0.3776
 3227TIP3    H231173   1.638   5.244  11.816 -0.3413 -0.2489  0.0013
 3228TIP3   OH231174   5.757   0.735   2.804 -0.4469  0.1757 -0.0216
 3228TIP3    H131175   5.676   0.778   2.831 -0.1200  0.4673  0.5053
 3228TIP3    H231176   5.764   0.659   2.861  0.8514  1.4330  1.5891
 3229TIP3   OH231177   2.338   2.893   4.758  0.0029  0.3454  0.0842
 3229TIP3    H131178   2.363   2.806   4.792 -1.2268  0.2346  0.7648
 3229TIP3    H231179   2.390   2.954   4.810  1.2311  0.0257 -0.7180
 3230TIP3   OH231180   3.916   5.874  11.253 -0.7812  0.3834 -0.1653
 3230TIP3    H131181   3.909   5.858  11.347 -1.6212  1.3849 -0.0453
 3230TIP3    H231182   3.921   5.970  11.245  0.9071  0.2697 -1.0444
 3231TIP3   OH231183   3.152   4.072  13.609  0.2466  0.2372  0.5491
 3231TIP3    H131184   3.079   4.100  13.553  0.5935 -0.7128 -0.4042
 3231TIP3    H231185   3.228   4.118  13.574  0.2868  0.4941  0.9557
 3232TIP3   OH231186   2.488   4.444  13.332  0.1349  0.3698  0.2910
 3232TIP3    H131187   2.478   4.534  13.364  0.2641 -0.2305  2.1663
 3232TIP3    H231188   2.398   4.411  13.326  0.0194  0.8955 -1.3623
 3233TIP3   OH231189   2.901   0.400   0.921 -0.3992  0.2943 -0.1833
 3233TIP3    H131190   2.807   0.403   0.903 -0.8438 -2.5461  1.1821
 3233TIP3    H231191   2.910   0.439   1.008 -0.5739 -0.8901  0.3807
 3234TIP3   OH231192   1.302   0.755  14.739 -0.1901  0.1619 -0.3262
 3234TIP3    H131193   1.230   0.774  14.799  0.9275  1.0847  0.7748
 3234TIP3    H231194   1.376   0.802  14.775  0.7034  0.1577 -2.0673
 3235TIP3   OH231195   5.599   4.527   0.660  0.5248 -0.1266 -0.4931
 3235TIP3    H131196   5.639   4.609   0.631  1.4532 -0.3547  0.0926
 3235TIP3    H231197   5.613   4.526   0.755 -0.1825 -0.5968 -0.3837
 3236TIP3   OH231198   5.595   2.468  16.631 -0.3369  0.1992  0.2081
 3236TIP3    H131199   5.657   2.409  16.673  0.2498  0.3352 -0.4323
 3236TIP3    H231200   5.558   2.417  16.559 -1.9928 -0.3254  1.3917
 3237TIP3   OH231201   6.136   2.475  12.914 -1.0175  0.6940 -0.4129
 3237TIP3    H131202   6.045   2.502  12.901 -1.6053 -0.5207  0.9352
 3237TIP3    H231203   6.138   2.382  12.893  0.7585  1.3450 -3.9666
 3238TIP3   OH231204   3.668   3.222   6.073  0.3505  0.6332 -0.4744
 3238TIP3    H131205   3.578   3.194   6.056  0.4212  0.9531 -1.4076
 3238TIP3    H231206   3.707   3.149   6.121 -0.9558  1.2599  1.7358
 3239TIP3   OH231207   6.260   6.616  16.765 -0.2255  0.4148  0.1048
 3239TIP3    H131208   6.308   6.604  16.847 -1.5067 -0.0995  0.8150
 3239TIP3    H231209   6.294   6.547  16.707 -1.2295 -1.0485  1.1639
 3240TIP3   OH231210   0.013   2.262   6.058 -0.4790  0.3189 -0.8215
 3240TIP3    H131211   0.087   2.286   6.003  0.8808  2.0026  1.5495
 3240TIP3    H231212  -0.059   2.318   6.029  0.7810  2.6526  0.3062
 3241TIP3   OH231213   2.191   6.545  14.240 -0.1508 -0.4082  0.0529
 3241TIP3    H131214   2.192   6.516  14.149 -1.1427 -0.4499  0.0421
 3241TIP3    H231215   2.283   6.542  14.268  0.1051 -0.8048 -0.8108
 3242TIP3   OH231216   4.716   6.389  13.363  0.1389  0.5184  0.3910
 3242TIP3    H131217   4.790   6.446  13.342  0.3246  0.4047  0.7317
 3242TIP3    H231218   4.647   6.416  13.302  0.3627  0.8263  0.2716
 3243TIP3   OH231219   2.441   6.526   0.049  0.5196 -0.0791 -0.0553
 3243TIP3    H131220   2.436   6.455   0.113 -1.3123 -1.0767 -1.2274
 3243TIP3    H231221   2.365   6.513  -0.007  0.1407  2.8130 -0.3439
 3244TIP3   OH231222   2.197   3.941   1.290  0.7324 -0.0607  0.8153
 3244TIP3    H131223   2.109   3.965   1.319  1.4805  1.2401  2.1105
 3244TIP3    H231224   2.206   3.984   1.205 -0.0485 -0.6230  0.4334
 3245TIP3   OH231225   6.843   3.047   1.462  0.5471 -0.1850 -0.3295
 3245TIP3    H131226   6.769   3.107   1.449  1.1146  0.6791  0.3306
 3245TIP3    H231227   6.900   3.062   1.387  0.4635 -0.2425 -0.4052
 3246TIP3   OH231228   6.116   1.817   5.832 -0.0953 -0.0452 -0.1673
 3246TIP3    H131229   6.183   1.844   5.769  0.1687 -0.9823 -0.3054
 3246TIP3    H231230   6.046   1.881   5.821  0.7092  0.8705 -0.1207
 3247TIP3   OH231231   4.130   3.976  13.543  0.0881  0.1415  0.5318
 3247TIP3    H131232   4.107   3.916  13.472 -0.3267 -0.2446  0.9885
 3247TIP3    H231233   4.155   3.919  13.615 -1.0557  0.4890  1.2262
 3248TIP3   OH231234   0.955   5.646  12.167  0.4607 -0.1687 -0.5229
 3248TIP3    H131235   0.910   5.644  12.252 -0.6070  1.7709 -0.9894
 3248TIP3    H231236   0.897   5.598  12.108  0.6051 -0.4576 -0.4333
 3249TIP3   OH231237   4.051   6.373   0.001  0.8817 -0.1480  0.5028
 3249TIP3    H131238   4.092   6.345  -0.081  0.5526  1.2270 -0.1615
 3249TIP3    H231239   3.957   6.374  -0.017  0.8941  1.7874  0.3163
 3250TIP3   OH231240   1.036   0.542  13.088  0.0544  0.3622  0.1453
 3250TIP3    H131241   1.121   0.584  13.104  0.9705 -0.6552 -1.7003
 3250TIP3    H231242   1.048   0.452  13.116 -0.7103  0.4302  0.6977
 3251TIP3   OH231243   6.633   0.417  14.578 -0.1133 -0.6012 -0.6263
 3251TIP3    H131244   6.694   0.468  14.631  0.7303  0.7523 -2.7405
 3251TIP3    H231245   6.669   0.422  14.489 -1.3066 -2.9439 -1.3192
 3252TIP3   OH231246   2.645   6.345   5.438 -0.1145  0.0052  0.7350
 3252TIP3    H131247   2.633   6.293   5.359  0.2669 -0.3365  0.8983
 3252TIP3    H231248   2.607   6.430   5.417  0.6870  0.1751 -0.1084
 3253TIP3   OH231249   1.191   2.324   2.525 -0.3629  0.4707 -0.1943
 3253TIP3    H131250   1.241   2.255   2.481 -1.6514  0.6358 -2.0032
 3253TIP3    H231251   1.105   2.284   2.542 -0.3974  0.9310  0.7959
 3254TIP3   OH231252   6.658   0.478   4.643 -0.3026  0.0007 -0.3215
 3254TIP3    H131253   6.564   0.464   4.632 -0.4022  1.2259 -1.2406
 3254TIP3    H231254   6.678   0.438   4.728 -1.6816 -0.1164 -0.0176
 3255TIP3   OH231255   5.422   1.551  16.664  0.2887 -0.3822 -0.1981
 3255TIP3    H131256   5.513   1.525  16.675 -0.1858 -1.9015  0.2890
 3255TIP3    H231257   5.372   1.489  16.716 -0.9965  0.8831  0.1524
 3256TIP3   OH231258   4.539   4.324   0.990  0.2909  0.8282  0.4368
 3256TIP3    H131259   4.550   4.344   1.083 -0.0140 -0.4027  0.7547
 3256TIP3    H231260   4.590   4.391   0.945  0.3114  1.5315  1.4857
 3257TIP3   OH231261   3.164   5.495  12.855 -0.5551  0.3891  0.0831
 3257TIP3    H131262   3.126   5.464  12.773  2.2130 -1.3988 -0.6708
 3257TIP3    H231263   3.194   5.583  12.836  1.2143 -0.4516 -1.3456
 3258TIP3   OH231264   4.320   6.369   2.932 -0.4329 -0.1466 -0.4171
 3258TIP3    H131265   4.364   6.454   2.942 -0.4903 -0.1334 -0.2692
 3258TIP3    H231266   4.293   6.366   2.841  1.7771 -1.0769 -1.0914
 3259TIP3   OH231267   2.331   2.929  15.174 -0.1384 -0.2007  0.2264
 3259TIP3    H131268   2.321   2.974  15.090 -0.8010  0.2590  0.5440
 3259TIP3    H231269   2.416   2.886  15.168 -0.6785 -1.1349 -1.1298
 3260TIP3   OH231270   0.576   0.707   1.218  0.4261  0.0525 -0.5044
 3260TIP3    H131271   0.513   0.773   1.189  1.1209  1.5950  1.2994
 3260TIP3    H231272   0.526   0.626   1.221 -1.0061  0.9005 -0.7509
 3261TIP3   OH231273   6.788   5.512  15.711 -0.0770 -0.1387  0.3100
 3261TIP3    H131274   6.695   5.527  15.692  0.1609  1.6841  0.4063
 3261TIP3    H231275   6.798   5.536  15.803  0.6080  0.2790  0.1314
 3262TIP3   OH231276   5.886   6.097  11.961  0.2760 -0.1647 -0.6642
 3262TIP3    H131277   5.955   6.078  12.024  0.1244  0.6267 -0.2499
 3262TIP3    H231278   5.814   6.038  11.986  0.4685 -0.3415 -0.5265
 3263TIP3   OH231279   6.560   5.428  17.051  0.8270  0.2607  0.5424
 3263TIP3    H131280   6.527   5.511  17.017  0.2433 -0.4220 -0.6251
 3263TIP3    H231281   6.641   5.451  17.096  0.3713  1.5360  0.7562
 3264TIP3   OH231282   6.773   3.684  14.708 -0.2901  0.7283  0.4810
 3264TIP3    H131283   6.759   3.619  14.776  2.5110 -0.2573  0.2616
 3264TIP3    H231284   6.855   3.727  14.733  1.2641 -0.1701 -2.5232
 3265TIP3   OH231285   3.701   2.596   6.283  0.3142  0.0726  0.5483
 3265TIP3    H131286   3.769   2.657   6.310 -0.7363  3.2130 -2.9359
 3265TIP3    H231287   3.633   2.604   6.349  0.7114  1.8569  0.7788
 3266TIP3   OH231288   3.941   4.942  14.976  0.5293 -0.3852 -0.5723
 3266TIP3    H131289   3.876   4.939  15.047  0.4564 -0.4542 -0.6405
 3266TIP3    H231290   3.963   4.851  14.960  0.3020 -0.3915 -0.8588
 3267TIP3   OH231291   0.768   2.188   4.797  0.0789 -0.4302 -0.3533
 3267TIP3    H131292   0.693   2.129   4.807 -1.5714  1.5065 -0.7782
 3267TIP3    H231293   0.841   2.140   4.837 -1.9518 -1.2029  2.7839
 3268TIP3   OH231294   1.463   2.025   4.764 -0.0291 -0.1058 -0.0234
 3268TIP3    H131295   1.499   2.053   4.680 -2.6086 -1.7309 -1.8298
 3268TIP3    H231296   1.504   1.941   4.781 -0.5534 -0.4454 -0.4150
 3269TIP3   OH231297   5.168   3.001  12.964  0.0106 -0.3783  0.0321
 3269TIP3    H131298   5.243   3.013  12.906  0.1211 -0.1400  0.2270
 3269TIP3    H231299   5.206   2.977  13.048 -0.1436 -0.5341  0.0577
 3270TIP3   OH231300   2.136   3.658   3.125 -0.2010  0.2518  0.3800
 3270TIP3    H131301   2.139   3.744   3.167  1.1375  1.0571 -1.2366
 3270TIP3    H231302   2.091   3.673   3.042  1.4505 -0.2072 -0.6575
 3271TIP3   OH231303   6.130   3.739   5.797  0.4825 -0.0320  0.0281
 3271TIP3    H131304   6.046   3.784   5.803  0.8367  1.0136 -2.0705
 3271TIP3    H231305   6.185   3.796   5.744  1.9616 -1.5200 -0.1433
 3272TIP3   OH231306   1.128   4.880  13.248 -0.8641  0.1571  0.3604
 3272TIP3    H131307   1.215   4.869  13.209 -1.1325 -1.5252  0.1771
 3272TIP3    H231308   1.140   4.856  13.340 -0.6881  2.1105  0.9076
 3273TIP3   OH231309   5.825   4.655  12.708  0.5524 -0.0362  0.2788
 3273TIP3    H131310   5.847   4.740  12.746  0.6164 -0.2106  0.6418
 3273TIP3    H231311   5.900   4.599  12.730  0.4433 -0.2232  0.1752
 3274TIP3   OH231312   1.380   1.716   1.515  0.6400 -0.0344 -0.3198
 3274TIP3    H131313   1.351   1.671   1.436  1.4278 -2.1330  0.5315
 3274TIP3    H231314   1.418   1.798   1.483 -1.0392  0.2022 -1.8959
 3275TIP3   OH231315   1.880   5.408   4.656  0.1378 -0.0955 -0.1403
 3275TIP3    H131316   1.904   5.482   4.600 -0.2794 -0.2624 -0.5503
 3275TIP3    H231317   1.894   5.331   4.601  0.1945 -0.2911  0.1509
 3276TIP3   OH231318   4.519   6.426   4.145  0.0364  0.2350  0.0868
 3276TIP3    H131319   4.604   6.451   4.182 -0.3314  1.1614  0.3293
 3276TIP3    H231320   4.537   6.410   4.053  0.1000  2.5864 -0.3665
 3277TIP3   OH231321   0.406   3.088  12.407  0.4931 -0.3055 -0.8053
 3277TIP3    H131322   0.450   3.034  12.342  1.1608 -0.1595 -0.4852
 3277TIP3    H231323   0.382   3.168  12.360  0.6489 -0.3486 -0.9559
 3278TIP3   OH231324   4.323   5.480   1.931  0.3023  0.2473 -0.5277
 3278TIP3    H131325   4.233   5.490   1.963  0.6370 -0.5429  0.7247
 3278TIP3    H231326   4.313   5.438   1.846 -0.5151  0.1727 -0.4063
 3279TIP3   OH231327   0.761   3.244   2.496  0.4868 -0.3880  0.3137
 3279TIP3    H131328   0.683   3.292   2.467  0.5521 -0.8719 -0.6929
 3279TIP3    H231329   0.830   3.311   2.499 -0.1415  0.2375  2.1065
 3280TIP3   OH231330   5.942   0.609  14.446 -0.0482  0.1436  0.2876
 3280TIP3    H131331   5.948   0.584  14.353  0.3473 -2.6302  0.9631
 3280TIP3    H231332   5.999   0.685  14.454  0.3845  0.0890 -1.6400
 3281TIP3   OH231333   5.721   4.422   5.163 -0.1816 -0.0239 -0.1601
 3281TIP3    H131334   5.670   4.500   5.184  1.3945  0.7363  1.0916
 3281TIP3    H231335   5.705   4.362   5.236  1.9391  0.8995  1.1610
 3282TIP3   OH231336   1.699   4.823  16.907  1.1802 -0.0302 -0.2495
 3282TIP3    H131337   1.689   4.760  16.978  0.8892 -1.0910 -1.1907
 3282TIP3    H231338   1.639   4.792  16.839  0.5762  1.6195 -0.5277
 3283TIP3   OH231339   6.050   0.347   5.270  0.0688 -0.3103 -0.5649
 3283TIP3    H131340   5.993   0.270   5.262 -0.3721 -0.1623  0.8614
 3283TIP3    H231341   6.027   0.386   5.354 -0.0043  1.6536 -1.4431
 3284TIP3   OH231342   4.475   3.316  15.634  0.0340 -0.5633  0.1807
 3284TIP3    H131343   4.497   3.409  15.639 -0.8600 -0.2253 -1.4546
 3284TIP3    H231344   4.442   3.295  15.722 -1.4508  1.1566  0.1144
 3285TIP3   OH231345   5.490   5.970  14.481  0.1191 -0.6438 -0.5819
 3285TIP3    H131346   5.555   6.013  14.538 -0.0701  0.8202 -1.4014
 3285TIP3    H231347   5.498   5.877  14.501 -0.4896 -0.1610  2.3885
 3286TIP3   OH231348   1.510   3.792  10.917  0.1646  0.1010 -0.4186
 3286TIP3    H131349   1.451   3.867  10.926 -0.0238 -0.1295  0.3143
 3286TIP3    H231350   1.475   3.727  10.977  0.7666 -0.2987 -0.4975
 3287TIP3   OH231351   1.237   2.911   6.336  0.5369  0.4077 -0.4804
 3287TIP3    H131352   1.150   2.871   6.329  0.3739  1.0403 -2.3870
 3287TIP3    H231353   1.228   2.976   6.406  0.2940 -1.4507  1.3413
 3288TIP3   OH231354   5.426   0.624   6.348 -0.3398  0.1920  0.1508
 3288TIP3    H131355   5.363   0.640   6.417 -0.0793  2.1616 -0.0230
 3288TIP3    H231356   5.507   0.600   6.394 -0.8519 -1.1746  0.3990
 3289TIP3   OH231357   3.693   5.489  12.332 -0.2880  0.1643 -0.2717
 3289TIP3    H131358   3.700   5.487  12.427  0.6519  1.1657 -0.3051
 3289TIP3    H231359   3.603   5.461  12.314 -0.5870  0.3151  0.9192
 3290TIP3   OH231360   6.733   5.838   2.804  1.0339  0.3496 -0.0925
 3290TIP3    H131361   6.666   5.904   2.825 -0.2436 -1.7633  3.4160
 3290TIP3    H231362   6.697   5.789   2.730  0.0856  1.0831 -0.1322
 3291TIP3   OH231363   2.703   6.389  15.656 -0.5228 -0.3465 -0.0982
 3291TIP3    H131364   2.664   6.418  15.573  0.6883 -0.9590 -0.9219
 3291TIP3    H231365   2.721   6.470  15.703 -2.7328 -0.0424  0.3263
 3292TIP3   OH231366   1.522   5.276  12.987 -0.3543  0.3781  0.0444
 3292TIP3    H131367   1.477   5.360  12.997 -0.1135  0.4980  0.1327
 3292TIP3    H231368   1.459   5.220  12.942 -0.0868  0.9635 -1.0885
 3293TIP3   OH231369   3.298   1.698  14.548  0.0306 -0.0482  0.3848
 3293TIP3    H131370   3.307   1.699  14.452  0.0628  1.5028  0.3757
 3293TIP3    H231371   3.289   1.606  14.570  0.5797 -0.4858 -1.0649
 3294TIP3   OH231372   3.537   6.185   3.414 -0.3869  0.1278  0.3207
 3294TIP3    H131373   3.448   6.218   3.401  0.3103  1.6369 -1.2279
 3294TIP3    H231374   3.557   6.139   3.332  0.5874  0.7319  0.1994
 3295TIP3   OH231375   5.257   3.390   0.900  0.3056  0.2307 -0.0320
 3295TIP3    H131376   5.255   3.469   0.954 -1.4227  0.5379 -0.5007
 3295TIP3    H231377   5.349   3.363   0.901  0.9540  2.2608  0.1347
 3296TIP3   OH231378   1.275   2.940  11.028 -0.0787  0.0684  0.3491
 3296TIP3    H131379   1.350   2.997  11.012 -0.2705  0.4004  0.6271
 3296TIP3    H231380   1.226   2.942  10.946 -0.1565  0.4084  0.4023
 3297TIP3   OH231381   1.939   5.294  16.776 -0.5193  0.0729  0.1083
 3297TIP3    H131382   1.959   5.294  16.870  1.3976 -5.6616  0.0883
 3297TIP3    H231383   1.859   5.244  16.769 -0.2077 -0.2448 -1.3625
 3298TIP3   OH231384   3.432   1.929   1.715 -0.0211  0.3652 -0.3933
 3298TIP3    H131385   3.375   1.993   1.758  1.6095  0.8937  1.1220
 3298TIP3    H231386   3.504   1.981   1.679 -0.7669 -0.2082 -2.8645
 3299TIP3   OH231387   2.340   2.578   1.066 -0.1712 -0.3612  0.1307
 3299TIP3    H131388   2.303   2.495   1.096  0.9044 -0.8856  0.0899
 3299TIP3    H231389   2.265   2.637   1.057 -0.6947 -0.5601  2.5318
 3300TIP3   OH231390   6.456   6.704  11.933  0.3677  0.4154  0.3667
 3300TIP3    H131391   6.530   6.671  11.984  0.8336 -1.2847 -1.2934
 3300TIP3    H231392   6.397   6.629  11.924 -0.4616  1.1167 -0.2365
 3301TIP3   OH231393   0.383   3.954  12.997 -1.0293 -0.2551  0.3290
 3301TIP3    H131394   0.448   3.937  12.929 -0.5701  0.8962  0.4634
 3301TIP3    H231395   0.374   4.049  12.999  0.0982 -0.1274  2.9212
 3302TIP3   OH231396   1.476   5.529   2.886 -0.1537 -0.1618  0.8541
 3302TIP3    H131397   1.487   5.498   2.976  0.2545  0.3277  0.9752
 3302TIP3    H231398   1.520   5.614   2.884 -1.9078  0.7781  0.7151
 3303TIP3   OH231399   3.112   4.583  15.970  0.3652 -0.1175  0.2596
 3303TIP3    H131400   3.114   4.635  16.050  0.2118 -0.3390  0.4049
 3303TIP3    H231401   3.021   4.553  15.963  0.2533  0.2993 -0.2523
 3304TIP3   OH231402   6.547   1.779   0.068  0.2188  0.1762  0.1350
 3304TIP3    H131403   6.614   1.720   0.034 -1.2661  0.0030 -2.7987
 3304TIP3    H231404   6.521   1.740   0.152  1.0875 -1.9252 -0.4965
 3305TIP3   OH231405   2.279   1.957  10.602 -0.2898 -0.1337  0.2636
 3305TIP3    H131406   2.360   1.927  10.561 -1.1420 -2.0197 -0.1701
 3305TIP3    H231407   2.213   1.948  10.533 -1.2548 -0.7274  1.2356
 3306TIP3   OH231408   1.307   0.771  11.111 -0.7220 -0.5308  0.2248
 3306TIP3    H131409   1.264   0.687  11.127  1.1780 -1.6117 -0.1034
 3306TIP3    H231410   1.345   0.763  11.024 -0.6738  0.7508  0.1045
 3307TIP3   OH231411   5.894   3.130  14.047 -0.4469  0.7908  0.1484
 3307TIP3    H131412   5.958   3.189  14.086 -1.5186  0.8401  1.9448
 3307TIP3    H231413   5.905   3.142  13.953  2.1135  0.8348  0.3841
 3308TIP3   OH231414   2.282   1.567  15.477 -0.5302  0.1504  0.6055
 3308TIP3    H131415   2.262   1.617  15.398  3.4534  1.1966  0.0589
 3308TIP3    H231416   2.273   1.630  15.549  1.4169  0.8823  0.2613
 3309TIP3   OH231417   1.313   4.716  12.474  0.2735 -0.3235  0.0596
 3309TIP3    H131418   1.372   4.640  12.473  1.2508  0.4182 -0.9450
 3309TIP3    H231419   1.370   4.790  12.499 -0.4080  0.2794 -0.1630
 3310TIP3   OH231420   5.106   5.244  12.650 -0.2782  0.3446 -0.1276
 3310TIP3    H131421   5.036   5.284  12.701  0.1449  0.3745  0.4405
 3310TIP3    H231422   5.078   5.154  12.637 -0.2868  0.2710  0.3655
 3311TIP3   OH231423   5.244   6.631   3.658  0.5340  0.0251  0.0179
 3311TIP3    H131424   5.205   6.620   3.745 -1.3281 -0.7000 -0.8672
 3311TIP3    H231425   5.306   6.703   3.669  0.7261 -0.4035  2.0645
 3312TIP3   OH231426   3.961   4.885  13.619  0.5165 -0.3513  0.1860
 3312TIP3    H131427   3.918   4.853  13.540 -0.4011 -0.4008  0.6808
 3312TIP3    H231428   4.031   4.822  13.636  0.5440 -0.4909 -0.4383
 3313TIP3   OH231429   2.752   4.245   4.081  0.1020 -0.2608 -0.6090
 3313TIP3    H131430   2.803   4.292   4.147  0.3960 -0.3611 -0.7621
 3313TIP3    H231431   2.679   4.207   4.130 -1.0186  1.6292 -0.7269
 3314TIP3   OH231432   1.770   5.013  13.023  0.7728 -0.5269  0.1243
 3314TIP3    H131433   1.822   5.092  13.008  1.2235 -0.7489  0.5120
 3314TIP3    H231434   1.694   5.023  12.966  0.5522  0.4461  0.5685
 3315TIP3   OH231435   5.048   5.257  15.033  0.1258 -0.0972 -0.1166
 3315TIP3    H131436   5.031   5.284  14.943 -1.1323 -0.1444  0.0800
 3315TIP3    H231437   5.041   5.162  15.032 -2.6404 -0.0076  0.4690
 3316TIP3   OH231438   6.251   6.435   3.005 -0.3373 -0.3577  0.3512
 3316TIP3    H131439   6.343   6.431   2.980 -0.5038  1.8493 -0.9024
 3316TIP3    H231440   6.242   6.371   3.075  1.7130 -1.9514 -0.7415
 3317TIP3   OH231441   3.999   5.477   6.121  0.2997 -0.9655  0.2513
 3317TIP3    H131442   4.007   5.386   6.090 -2.0932 -1.2361  0.2791
 3317TIP3    H231443   4.037   5.475   6.209 -1.1635 -2.3578  0.9020
 3318TIP3   OH231444   4.713   5.374  13.086 -0.2253 -0.1773 -0.7707
 3318TIP3    H131445   4.654   5.311  13.044  0.2429 -2.1807  1.3675
 3318TIP3    H231446   4.657   5.420  13.148 -0.0774 -0.2168 -0.6075
 3319TIP3   OH231447   5.490   6.412  15.919  0.0562 -0.5896  0.1627
 3319TIP3    H131448   5.482   6.497  15.876  0.0712 -0.5456  0.2467
 3319TIP3    H231449   5.454   6.349  15.856 -1.5089 -0.3324  0.7610
 3320TIP3   OH231450   0.102   3.962  16.473  0.0782 -0.0960 -0.0554
 3320TIP3    H131451   0.121   3.987  16.563 -0.6199  0.2939 -0.0116
 3320TIP3    H231452   0.149   3.880  16.460 -0.1844 -0.3936  0.8070
 3321TIP3   OH231453   1.847   2.264   2.922 -0.1861  0.2590  0.2931
 3321TIP3    H131454   1.942   2.274   2.923 -0.0429 -0.9138  0.5444
 3321TIP3    H231455   1.824   2.245   3.013 -0.6165  0.2315  0.1805
 3322TIP3   OH231456   2.047   5.888  11.560 -0.3830 -0.4618  0.3454
 3322TIP3    H131457   2.103   5.964  11.578 -0.2658  0.4798 -3.0737
 3322TIP3    H231458   1.959   5.925  11.556 -0.5950 -0.9276  0.7219
 3323TIP3   OH231459   4.930   4.029   3.345 -0.1372 -0.2378  0.2510
 3323TIP3    H131460   4.881   3.957   3.306 -0.4181  0.2584 -0.3279
 3323TIP3    H231461   5.005   3.987   3.388 -1.0238 -0.9991  1.1089
 3324TIP3   OH231462   5.064   6.446   4.846 -0.7483 -0.4006 -0.0227
 3324TIP3    H131463   5.001   6.518   4.842 -1.1542 -0.6938  0.7652
 3324TIP3    H231464   5.023   6.383   4.905  0.0622 -0.8199  0.0967
 3325TIP3   OH231465   3.071   2.245   1.115 -0.2511  0.7013 -0.5826
 3325TIP3    H131466   3.089   2.154   1.092  1.2833  0.9681 -0.5246
 3325TIP3    H231467   3.091   2.294   1.036 -0.4450  1.0587 -0.4132
 3326TIP3   OH231468   1.534   3.216  11.463 -0.7269  0.0822  0.2204
 3326TIP3    H131469   1.534   3.311  11.451 -1.1462 -0.0865 -1.2695
 3326TIP3    H231470   1.573   3.181  11.383  0.6971 -0.9602  1.3094
 3327TIP3   OH231471   3.941   6.542   2.060  0.3931  0.1204  0.0490
 3327TIP3    H131472   4.033   6.565   2.073  0.2144  0.9250 -0.0648
 3327TIP3    H231473   3.930   6.540   1.965  0.0699  0.9678  0.0628
 3328TIP3   OH231474   2.252   5.367  13.391 -0.5410  0.3409 -0.0427
 3328TIP3    H131475   2.253   5.414  13.307  1.0583 -0.7845 -0.7151
 3328TIP3    H231476   2.325   5.404  13.440  0.2379 -0.8520 -0.2637
 3329TIP3   OH231477   5.173   6.646   5.454  0.2231  0.0293  0.0695
 3329TIP3    H131478   5.179   6.607   5.367  0.7990  0.7039 -0.2051
 3329TIP3    H231479   5.255   6.623   5.497 -0.7187 -1.6726  1.0493
 3330TIP3   OH231480   6.131   0.834  13.667  0.4389  0.2733  0.0512
 3330TIP3    H131481   6.048   0.881  13.660 -1.1944 -2.4601 -0.2872
 3330TIP3    H231482   6.164   0.858  13.753 -1.5099  0.2564  0.8628
 3331TIP3   OH231483   6.108   1.058  12.775 -0.0457 -0.5070  0.0800
 3331TIP3    H131484   6.130   1.138  12.728 -0.6348 -0.9287 -0.9592
 3331TIP3    H231485   6.052   1.087  12.847  1.2925  0.2066  0.8660
 3332TIP3   OH231486   0.144   1.744   1.318  0.2525  0.5214  0.0907
 3332TIP3    H131487   0.203   1.700   1.258  0.8105  0.0749  0.9422
 3332TIP3    H231488   0.080   1.788   1.262 -1.0566 -2.3099 -0.8193
 3333TIP3   OH231489   3.644   2.923   4.040 -0.2653  0.5377  0.5758
 3333TIP3    H131490   3.584   2.997   4.026  0.7884  1.4891  0.9408
 3333TIP3    H231491   3.621   2.860   3.972 -0.8629  1.4149 -0.0549
 3334TIP3   OH231492   3.588   5.228  13.553 -0.3894  0.9311  0.5107
 3334TIP3    H131493   3.613   5.320  13.568  0.4642  0.6735  0.7182
 3334TIP3    H231494   3.622   5.181  13.629 -0.9595  0.4600  0.4791
 3335TIP3   OH231495   4.776   6.076  13.032  0.2677  0.4504 -0.0063
 3335TIP3    H131496   4.803   6.024  12.956  0.6221  0.3467  0.1914
 3335TIP3    H231497   4.681   6.081  13.024  0.3374  0.8172 -0.7069
 3336TIP3   OH231498   2.750   3.262  15.866  0.4252 -0.0636 -0.4021
 3336TIP3    H131499   2.733   3.244  15.959 -2.5451  0.8061 -0.6721
 3336TIP3    H231500   2.787   3.181  15.833  2.3711 -0.1200  1.6821
 3337TIP3   OH231501   1.177   3.953   2.590 -0.3276  0.1814 -0.1535
 3337TIP3    H131502   1.092   3.938   2.632 -0.2577 -0.6295 -0.2730
 3337TIP3    H231503   1.158   3.946   2.496  0.1247 -1.6530 -0.1559
 3338TIP3   OH231504   6.096   3.607   0.626  0.0642  0.0426  0.8224
 3338TIP3    H131505   6.161   3.677   0.633  1.4210 -1.3150  4.2927
 3338TIP3    H231506   6.017   3.644   0.666  0.0226  0.3389  0.4699
 3339TIP3   OH231507   6.076   1.817   1.901  0.0535  0.9827  0.3513
 3339TIP3    H131508   5.990   1.803   1.861  1.2902 -1.4298 -1.6788
 3339TIP3    H231509   6.119   1.880   1.844 -0.3917  2.4086  1.5257
 3340TIP3   OH231510   6.778   4.611  16.496 -0.1903  0.2007  0.1135
 3340TIP3    H131511   6.774   4.598  16.591 -1.2893 -0.6932 -0.0291
 3340TIP3    H231512   6.709   4.554  16.461  0.3726  0.3068 -1.2440
 3341TIP3   OH231513   1.329   5.460   2.630 -0.1176  0.2035 -0.1478
 3341TIP3    H131514   1.259   5.504   2.678 -0.0558  1.0726 -0.8253
 3341TIP3    H231515   1.409   5.486   2.676  0.0005  1.5354 -1.0283
 3342TIP3   OH231516   4.599   5.393  13.515  0.4895 -0.2973  0.0918
 3342TIP3    H131517   4.612   5.313  13.565 -0.2506 -1.0236 -0.8386
 3342TIP3    H231518   4.511   5.423  13.539  0.2609 -0.4703 -0.4934
 3343TIP3   OH231519   3.082   4.732  16.209 -0.2008  0.2636  0.2659
 3343TIP3    H131520   3.057   4.824  16.200  1.2598  0.6981  0.5316
 3343TIP3    H231521   3.018   4.696  16.271  0.9685  1.8619  2.5517
 3344TIP3   OH231522   2.023   1.673   3.107 -0.1548 -0.1834 -0.3346
 3344TIP3    H131523   2.066   1.611   3.048  1.2302  0.5012 -0.0751
 3344TIP3    H231524   2.095   1.718   3.151 -1.1601  0.1045  1.0606
 3345TIP3   OH231525   3.907   2.973  13.037  0.5412 -0.1709  0.2737
 3345TIP3    H131526   3.855   2.999  13.113  1.0332 -1.0080  0.9106
 3345TIP3    H231527   3.842   2.947  12.971  0.1085  0.6953  0.3383
 3346TIP3   OH231528   0.247   5.632  12.767 -0.2151 -0.0552 -0.1578
 3346TIP3    H131529   0.341   5.618  12.755 -0.1669  0.9329 -1.0747
 3346TIP3    H231530   0.211   5.629  12.679 -0.7538  1.4640 -0.0219
 3347TIP3   OH231531   0.170   3.472   4.474 -0.1002  0.0462  0.1778
 3347TIP3    H131532   0.135   3.387   4.446 -1.0749  0.6476 -0.5015
 3347TIP3    H231533   0.205   3.455   4.562 -0.8456 -0.9240  0.3121
 3348TIP3   OH231534   4.531   6.661  15.378  0.1582  0.1006  0.1478
 3348TIP3    H131535   4.516   6.611  15.298  1.3487  1.0661 -0.7096
 3348TIP3    H231536   4.456   6.721  15.383 -0.5767 -0.8297  0.4575
 3349TIP3   OH231537   5.948   6.378  16.061  0.1503 -0.2684 -0.1842
 3349TIP3    H131538   5.904   6.366  15.977  0.4589  0.1618 -0.4180
 3349TIP3    H231539   5.881   6.364  16.127 -0.4742  0.8730 -0.5460
 3350TIP3   OH231540   3.175   0.661  13.170  0.4375  0.4643  0.4263
 3350TIP3    H131541   3.114   0.725  13.133  0.3285 -0.6156 -1.3632
 3350TIP3    H231542   3.138   0.576  13.146  2.3722 -0.2219 -0.2922
 3351TIP3   OH231543   0.294   4.547   3.888  0.0795 -0.2338 -0.5536
 3351TIP3    H131544   0.386   4.543   3.864  0.2713  0.5161  0.0436
 3351TIP3    H231545   0.270   4.639   3.877 -0.7548 -0.5240 -1.2677
 3352TIP3   OH231546   3.196   5.911   3.266  0.3617 -0.0631  0.7315
 3352TIP3    H131547   3.228   5.994   3.232  1.5897 -0.6581  0.3822
 3352TIP3    H231548   3.134   5.880   3.201 -2.0152  1.7054  2.0094
 3353TIP3   OH231549   3.301   4.543   0.089  0.4129 -0.0065 -0.4329
 3353TIP3    H131550   3.287   4.528   0.183 -1.4260  1.1985 -0.4804
 3353TIP3    H231551   3.365   4.476   0.064 -0.7716 -1.8503  1.1871
 3354TIP3   OH231552   0.100   3.731   1.099 -0.3034  0.1431 -0.1726
 3354TIP3    H131553   0.081   3.757   1.009  0.5689  0.0031 -0.4019
 3354TIP3    H231554   0.069   3.805   1.152 -0.8670  0.2038 -0.5729
 3355TIP3   OH231555   0.230   3.931  10.810  0.3512 -0.0053 -0.1330
 3355TIP3    H131556   0.156   3.897  10.759 -0.7792  0.1988  1.3186
 3355TIP3    H231557   0.206   4.022  10.829  1.7380  0.5692 -0.9897
 3356TIP3   OH231558   1.125   2.100  15.921 -0.1655  0.4171  0.0423
 3356TIP3    H131559   1.209   2.141  15.940  0.2937  0.4577 -1.8276
 3356TIP3    H231560   1.118   2.104  15.825 -1.9754 -0.2222  0.1134
 3357TIP3   OH231561   5.059   2.071  11.463  0.0805 -0.5559 -0.3488
 3357TIP3    H131562   5.116   2.023  11.404 -1.2879 -2.0831 -0.5177
 3357TIP3    H231563   5.100   2.063  11.549  1.0723  0.0138 -0.7556
 3358TIP3   OH231564   5.656   1.794  10.746  0.0085  0.1884 -0.3000
 3358TIP3    H131565   5.722   1.859  10.772  0.9393 -0.3400 -1.2609
 3358TIP3    H231566   5.594   1.843  10.692  0.2749  0.4412 -0.3800
 3359TIP3   OH231567   2.373   4.225   4.062  0.0274  0.1960  0.0673
 3359TIP3    H131568   2.289   4.208   4.019 -0.1616 -0.7812  0.8047
 3359TIP3    H231569   2.421   4.143   4.053  1.3377  1.0457 -1.2512
 3360TIP3   OH231570   4.853   0.315   0.397 -0.8596  0.0133  0.9619
 3360TIP3    H131571   4.763   0.291   0.374 -0.7929  0.9413 -0.3763
 3360TIP3    H231572   4.903   0.301   0.317  0.2753 -0.8059  1.7857
 3361TIP3   OH231573   1.135   4.902  12.839  0.1169 -0.1148  0.6030
 3361TIP3    H131574   1.172   4.825  12.883 -0.5660 -0.3219  0.8182
 3361TIP3    H231575   1.102   4.868  12.755  0.4188  0.0730  0.4048
 3362TIP3   OH231576   1.355   5.351   0.782 -0.3879  0.1775  0.1173
 3362TIP3    H131577   1.419   5.357   0.710 -0.4662 -0.1152  0.0200
 3362TIP3    H231578   1.372   5.266   0.821  0.0084  0.5594  0.7874
 3363TIP3   OH231579   5.248   1.916   0.768 -0.0995  0.0068  0.1547
 3363TIP3    H131580   5.191   1.840   0.781  1.1503 -1.0906 -0.5104
 3363TIP3    H231581   5.255   1.956   0.854 -0.2045 -1.0658  0.6804
 3364TIP3   OH231582   2.410   1.632  14.326 -0.5507 -0.6059  0.0511
 3364TIP3    H131583   2.350   1.586  14.384 -0.0777 -0.5123  0.6233
 3364TIP3    H231584   2.362   1.709  14.296 -0.7406 -0.5727  0.4418
 3365TIP3   OH231585   0.088   0.498  13.578  0.2181 -0.2764 -0.1226
 3365TIP3    H131586   0.079   0.509  13.483  0.6858 -1.2170 -0.2938
 3365TIP3    H231587   0.012   0.445  13.604  0.9210 -1.4060 -0.2627
 3366TIP3   OH231588   4.963   5.003   4.863 -0.6392  0.3515 -0.0795
 3366TIP3    H131589   4.977   5.053   4.782  0.1675 -0.9799 -0.7910
 3366TIP3    H231590   5.051   4.991   4.898 -1.0346  1.5636  1.4403
 3367TIP3   OH231591   1.454   0.518  15.284 -0.5798 -0.3384 -0.4285
 3367TIP3    H131592   1.387   0.579  15.316 -0.8039 -0.3973 -0.7800
 3367TIP3    H231593   1.486   0.559  15.203 -0.4376 -0.4842 -0.4459
 3368TIP3   OH231594   5.990   1.223   4.533  0.0420 -0.2749 -0.3914
 3368TIP3    H131595   5.904   1.182   4.524 -0.7677  1.2345  0.0684
 3368TIP3    H231596   6.020   1.238   4.443  0.3598 -1.8219 -0.5659
 3369TIP3   OH231597   0.277   1.380   1.826 -0.1808  0.1130  0.4960
 3369TIP3    H131598   0.191   1.350   1.795 -0.1826 -1.1923  1.6571
 3369TIP3    H231599   0.310   1.308   1.879  1.1674  1.0336  0.9726
 3370TIP3   OH231600   5.071   5.115   4.308  0.0130  0.1583  0.1536
 3370TIP3    H131601   5.053   5.032   4.352  0.6095 -1.2353 -2.1084
 3370TIP3    H231602   4.997   5.127   4.248  0.3768  0.8191 -0.1712
 3371TIP3   OH231603   3.384   5.397   3.903 -0.7117  0.2072 -0.3848
 3371TIP3    H131604   3.420   5.486   3.907 -1.4564  0.7030 -2.7956
 3371TIP3    H231605   3.300   5.403   3.949  0.2544  0.0970  1.5129
 3372TIP3   OH231606   5.144   2.544  14.902 -0.6038 -0.1174 -0.1898
 3372TIP3    H131607   5.203   2.581  14.967 -0.5155 -0.5857  0.0038
 3372TIP3    H231608   5.071   2.605  14.898  0.1489  0.7710 -0.8415
 3373TIP3   OH231609   5.551   5.925  16.784  0.1789 -0.1283  0.8254
 3373TIP3    H131610   5.636   5.913  16.739 -0.2288  0.6822 -0.1996
 3373TIP3    H231611   5.571   5.912  16.876  1.2523 -0.8623  0.5149
 3374TIP3   OH231612   0.985   6.509  14.754  0.3410 -0.0040  0.0747
 3374TIP3    H131613   0.911   6.553  14.797 -0.0854  0.1121 -0.7638
 3374TIP3    H231614   0.993   6.426  14.801  1.2260  0.9665  1.7520
 3375TIP3   OH231615   3.009   4.459  13.432 -0.2176  0.5612  0.1436
 3375TIP3    H131616   2.929   4.456  13.485  0.4807  0.4999  1.2367
 3375TIP3    H231617   3.067   4.394  13.472  0.9772  1.7472  0.4173
 3376TIP3   OH231618   0.036   2.900  15.306  0.3604 -0.3715  0.6752
 3376TIP3    H131619   0.076   2.974  15.262  1.8902 -2.1866 -1.2169
 3376TIP3    H231620  -0.042   2.881  15.255  0.5166 -0.6646  0.5436
 3377TIP3   OH231621   5.455   2.260  11.652  0.4144  0.7322 -0.3476
 3377TIP3    H131622   5.503   2.180  11.631 -1.8813 -1.3255  1.6078
 3377TIP3    H231623   5.425   2.293  11.567  0.4008 -1.1768 -1.1298
 3378TIP3   OH231624   3.198   3.771   5.441 -0.3762  0.1501  0.0542
 3378TIP3    H131625   3.160   3.727   5.518 -0.4789  0.8799  0.4345
 3378TIP3    H231626   3.130   3.764   5.374 -0.5674  0.1058  0.2495
 3379TIP3   OH231627   6.362   1.978   0.692 -0.1549 -0.1117 -0.1443
 3379TIP3    H131628   6.357   1.913   0.622 -0.2578 -0.9193  0.5945
 3379TIP3    H231629   6.271   2.004   0.707 -0.0451  0.8056 -0.9732
 3380TIP3   OH231630   5.884   1.183   3.972  0.3390 -0.4669  0.3396
 3380TIP3    H131631   5.931   1.253   3.926  0.0665 -0.2118  0.4427
 3380TIP3    H231632   5.928   1.103   3.945 -1.0292 -0.5486 -1.9885
 3381TIP3   OH231633   6.349   5.282  14.499 -0.0707  0.1496  0.5020
 3381TIP3    H131634   6.284   5.248  14.560 -0.5982 -0.1711 -0.2249
 3381TIP3    H231635   6.405   5.206  14.480  0.9374  0.5726  1.6219
 3382TIP3   OH231636   3.031   3.044   0.482  0.4272  0.2727  0.5838
 3382TIP3    H131637   3.014   3.021   0.391 -1.4517 -0.4035  1.0738
 3382TIP3    H231638   3.089   2.975   0.514  0.8731  0.3653  0.0054
 3383TIP3   OH231639   0.275   2.479   3.647  0.2169 -0.0033  0.5576
 3383TIP3    H131640   0.328   2.460   3.569 -0.0274  0.5409  0.2508
 3383TIP3    H231641   0.281   2.574   3.658 -1.2645  0.1799  0.0825
 3384TIP3   OH231642   6.339   2.474  17.110  0.1545 -0.7869  0.1395
 3384TIP3    H131643   6.406   2.498  17.174 -0.3782  1.8526 -0.1705
 3384TIP3    H231644   6.387   2.460  17.028  0.4885 -0.4928  0.2818
 3385TIP3   OH231645   2.816   1.858   5.856 -0.0079 -0.0360 -0.2920
 3385TIP3    H131646   2.738   1.890   5.902  0.0786  0.3421 -0.4051
 3385TIP3    H231647   2.887   1.869   5.919  0.2292  1.1097 -0.7326
 3386TIP3   OH231648   0.811   5.607   0.545 -0.2845  0.1821  0.5464
 3386TIP3    H131649   0.860   5.536   0.586 -0.0654 -0.3758 -0.6265
 3386TIP3    H231650   0.873   5.647   0.483 -0.6083  0.9666  0.7056
 3387TIP3   OH231651   3.548   1.480   2.046 -0.1885 -0.1853 -0.3161
 3387TIP3    H131652   3.520   1.523   2.126  2.0423  0.2093  0.3207
 3387TIP3    H231653   3.562   1.389   2.071  0.7272 -0.0156 -0.1752
 3388TIP3   OH231654   1.491   3.628   5.018 -0.4660  0.1861  0.1302
 3388TIP3    H131655   1.444   3.706   4.990 -0.1888  0.3950  0.2472
 3388TIP3    H231656   1.442   3.556   4.978  0.8131  0.5375 -2.2328
 3389TIP3   OH231657   4.697   5.137  13.367  0.0211 -0.0237  0.3453
 3389TIP3    H131658   4.766   5.147  13.432 -0.9029  0.1819  1.3134
 3389TIP3    H231659   4.733   5.176  13.288 -0.0599  2.8220  1.6111
 3390TIP3   OH231660   5.544   5.451   0.036 -0.7080 -0.4783 -0.1185
 3390TIP3    H131661   5.503   5.395   0.101 -0.2434  0.0884  0.6796
 3390TIP3    H231662   5.476   5.512   0.010 -0.2098  1.0040  1.8250
 3391TIP3   OH231663   2.540   3.887  16.958 -0.1757  0.5706  0.8436
 3391TIP3    H131664   2.585   3.926  16.882 -0.5949  0.7552  0.6801
 3391TIP3    H231665   2.602   3.896  17.030 -0.9612  3.3613  1.2854
 3392TIP3   OH231666   5.632   5.703   5.779  0.2298 -0.6499 -0.1582
 3392TIP3    H131667   5.700   5.659   5.831  0.3449  0.1586  0.4012
 3392TIP3    H231668   5.680   5.767   5.727  0.0881 -1.3113 -1.1408
 3393TIP3   OH231669   0.821   4.406   4.320  0.1852  0.4199  0.1291
 3393TIP3    H131670   0.800   4.361   4.402 -0.9964 -1.0526 -0.9336
 3393TIP3    H231671   0.737   4.438   4.288  0.4061 -0.2575 -1.1962
 3394TIP3   OH231672   1.217   0.628  14.524 -0.2379 -0.0474  0.3008
 3394TIP3    H131673   1.260   0.689  14.583 -1.1587  0.8012  0.1275
 3394TIP3    H231674   1.286   0.567  14.498  0.4695  0.3135  1.2605
 3395TIP3   OH231675   3.000   2.760  10.651 -0.7198  0.1316 -0.3176
 3395TIP3    H131676   2.987   2.846  10.692  1.2813  0.6673 -0.7276
 3395TIP3    H231677   2.943   2.701  10.701  0.9291  0.9060  2.7639
 3396TIP3   OH231678   6.444   5.728  14.554  0.0200 -0.0257 -0.5563
 3396TIP3    H131679   6.387   5.741  14.630 -0.2544  2.2110 -1.0775
 3396TIP3    H231680   6.532   5.720  14.591 -0.0423  1.5615  0.0154
 3397TIP3   OH231681   5.240   4.802  11.530 -0.4966 -0.1185 -0.9004
 3397TIP3    H131682   5.279   4.805  11.443  1.7260  0.6925  0.0617
 3397TIP3    H231683   5.304   4.756  11.584 -0.5299  1.7599  0.8695
 3398TIP3   OH231684   2.254   4.345   4.523 -0.4131 -0.1203  0.1286
 3398TIP3    H131685   2.306   4.426   4.530 -1.4329  0.5398  0.3222
 3398TIP3    H231686   2.204   4.356   4.442 -1.2853 -0.1094  0.6617
 3399TIP3   OH231687   2.094   1.594   5.864  0.0518 -0.1648  0.0292
 3399TIP3    H131688   2.019   1.559   5.911  0.9439 -0.2710  1.4646
 3399TIP3    H231689   2.170   1.551   5.906  0.9104  0.0268 -1.2794
 3400TIP3   OH231690   5.808   3.954  13.194  0.2013 -0.5361 -0.1334
 3400TIP3    H131691   5.875   4.021  13.178 -0.3365 -0.1728 -0.9397
 3400TIP3    H231692   5.749   3.961  13.119 -0.1203 -1.6165  0.0028
 3401TIP3   OH231693   1.309   0.535  12.091  0.3909 -0.6911  0.5992
 3401TIP3    H131694   1.235   0.500  12.043 -0.2910  0.8819  0.4598
 3401TIP3    H231695   1.368   0.569  12.024  1.9673 -3.1305  0.6048
 3402TIP3   OH231696   5.325   1.841   1.395  0.0801 -0.2014  0.3889
 3402TIP3    H131697   5.247   1.811   1.442  0.4707 -0.3005  0.9794
 3402TIP3    H231698   5.345   1.770   1.333 -1.8103  0.8995 -1.6515
 3403TIP3   OH231699   5.923   3.306   2.766  0.1823  0.3200 -0.6992
 3403TIP3    H131700   5.983   3.376   2.741  0.7437  0.5516  1.1085
 3403TIP3    H231701   5.979   3.242   2.811 -0.5161 -0.7306 -1.2965
 3404TIP3   OH231702   0.403   5.036   3.050 -0.0057 -0.5939  0.1386
 3404TIP3    H131703   0.367   5.080   2.973  0.6579  1.3000  0.8519
 3404TIP3    H231704   0.478   4.987   3.017 -0.2700 -0.5244 -0.5716
 3405TIP3   OH231705   3.645   5.840   2.781  0.0373 -0.6192 -0.6761
 3405TIP3    H131706   3.734   5.872   2.793  0.2327 -1.3858  0.0069
 3405TIP3    H231707   3.646   5.798   2.695  1.0880 -2.9680  0.4028
 3406TIP3   OH231708   6.146   6.791   2.504  0.0064 -0.2905 -0.0617
 3406TIP3    H131709   6.058   6.828   2.497 -0.8634 -1.8481  1.6921
 3406TIP3    H231710   6.169   6.802   2.596  2.3466  1.4497 -0.7668
 3407TIP3   OH231711   1.038   5.946   2.847  0.7729 -0.1462 -0.1110
 3407TIP3    H131712   1.126   5.915   2.825  1.7100  1.9418  0.5168
 3407TIP3    H231713   1.038   6.039   2.824 -1.1465 -0.0011  0.2906
 3408TIP3   OH231714   2.130   6.785  14.742  0.5055 -0.2621  0.0699
 3408TIP3    H131715   2.103   6.877  14.738 -0.5596 -0.4586  1.9241
 3408TIP3    H231716   2.181   6.772  14.662  1.5158  2.2010  0.2114
 3409TIP3   OH231717   2.339   6.048  11.832 -0.3793  0.6983 -0.4665
 3409TIP3    H131718   2.278   6.060  11.759 -0.5884  1.7107 -0.1322
 3409TIP3    H231719   2.414   6.104  11.811 -0.2093  0.5939 -0.1513
 3410TIP3   OH231720   3.866   1.285  11.864 -0.3308  0.6180 -0.2240
 3410TIP3    H131721   3.834   1.244  11.783  3.3124 -1.2151 -0.9608
 3410TIP3    H231722   3.921   1.357  11.834 -0.5474  1.2129  0.7661
 3411TIP3   OH231723   0.431   6.005  14.521  0.3842  0.0847  0.0503
 3411TIP3    H131724   0.338   5.983  14.525  0.6983 -1.1374  1.0108
 3411TIP3    H231725   0.476   5.922  14.503  1.1891  0.9536 -2.5006
 3412TIP3   OH231726   6.260   0.002  14.272  0.0420  0.2580  0.1816
 3412TIP3    H131727   6.199   0.027  14.341  1.3574  0.8568  1.1696
 3412TIP3    H231728   6.290  -0.085  14.297  0.7410  0.5946  0.5381
 3413TIP3   OH231729   0.577   1.738   2.478  0.0057 -0.4273 -0.1862
 3413TIP3    H131730   0.588   1.832   2.493  0.4485 -0.4617 -0.2774
 3413TIP3    H231731   0.582   1.729   2.382  0.5746 -0.6143 -0.1434
 3414TIP3   OH231732   6.438   1.174   0.056  0.0622  0.6297 -0.0176
 3414TIP3    H131733   6.384   1.101   0.026 -0.8576  1.2297  0.1452
 3414TIP3    H231734   6.522   1.162   0.011 -0.1345 -0.4206 -0.1327
 3415TIP3   OH231735   3.235   1.228  14.253  0.2635  0.6456 -0.3339
 3415TIP3    H131736   3.286   1.306  14.230  0.6793  0.5882  0.3609
 3415TIP3    H231737   3.185   1.254  14.330  1.2278 -0.0953  0.5579
 3416TIP3   OH231738   1.921   6.607  15.437 -0.1770 -0.1959  0.9579
 3416TIP3    H131739   1.968   6.628  15.518  1.3019 -2.7519  0.8620
 3416TIP3    H231740   1.970   6.535  15.398 -2.6979 -1.2546 -0.5481
 3417TIP3   OH231741   2.729   5.311  12.177 -0.4099  0.5989 -0.0172
 3417TIP3    H131742   2.650   5.291  12.227  0.9426 -3.5317  0.8637
 3417TIP3    H231743   2.798   5.315  12.242  0.7698 -0.6725 -1.1291
 3418TIP3   OH231744   6.407   4.834   4.678  0.5570 -0.4878  0.1614
 3418TIP3    H131745   6.330   4.778   4.675 -0.1721  0.2680  2.5891
 3418TIP3    H231746   6.373   4.922   4.663  1.1775 -0.2855 -0.1002
 3419TIP3   OH231747   4.592   0.066  17.018 -0.0736 -0.4602 -0.0578
 3419TIP3    H131748   4.552   0.153  17.005  0.8739 -0.3327 -2.6845
 3419TIP3    H231749   4.519   0.005  17.010 -0.4389 -0.0087 -0.2391
 3420TIP3   OH231750   3.980   6.127  11.356  0.5730 -0.1470 -0.0494
 3420TIP3    H131751   3.960   6.218  11.335  0.0876 -0.1990  0.1717
 3420TIP3    H231752   4.075   6.125  11.366  0.6073  0.2914 -0.2579
 3421TIP3   OH231753   4.429   1.312   6.205 -0.0245 -0.8462  0.4225
 3421TIP3    H131754   4.355   1.294   6.146  0.4841 -0.3844 -0.3646
 3421TIP3    H231755   4.389   1.357   6.280 -0.3917  0.4565 -0.5341
 3422TIP3   OH231756   4.510   2.477  11.177 -0.2763 -0.4400  0.0712
 3422TIP3    H131757   4.559   2.483  11.095 -1.1452  1.0777 -0.3756
 3422TIP3    H231758   4.436   2.419  11.156 -1.9178  1.9162 -1.0354
 3423TIP3   OH231759   6.779   2.267  12.282  0.1358  0.0138 -0.2157
 3423TIP3    H131760   6.701   2.323  12.276  0.3875  0.2578 -1.7665
 3423TIP3    H231761   6.751   2.191  12.333 -0.5813  0.9542  0.8153
 3424TIP3   OH231762   3.253   3.496   5.877  0.8298  0.0038  0.2364
 3424TIP3    H131763   3.274   3.403   5.887 -0.2403 -0.0583  2.4105
 3424TIP3    H231764   3.178   3.510   5.934 -0.2966  1.8177 -1.5540
 3425TIP3   OH231765   5.213   1.077  11.681  0.4152  0.0076  0.2629
 3425TIP3    H131766   5.192   1.168  11.661  0.3946 -0.2302 -0.8832
 3425TIP3    H231767   5.241   1.078  11.772  0.2936  1.1396  0.3002
 3426TIP3   OH231768   5.735   5.804  14.311 -0.1714 -0.2530  0.4140
 3426TIP3    H131769   5.822   5.792  14.272 -0.9149 -1.1548 -1.0303
 3426TIP3    H231770   5.751   5.801  14.405  1.4224  0.0493  0.1837
 3427TIP3   OH231771   4.182   5.366  14.498 -0.6458 -0.3677  0.4307
 3427TIP3    H131772   4.152   5.278  14.524  0.8172 -0.6747  1.1835
 3427TIP3    H231773   4.219   5.403  14.578 -0.7389  0.7365 -0.0167
 3428TIP3   OH231774   0.291   2.571   3.296 -0.1121 -0.1537 -0.1283
 3428TIP3    H131775   0.295   2.476   3.297 -0.0723 -0.1492  0.3905
 3428TIP3    H231776   0.198   2.591   3.291 -0.0867 -0.2170 -1.0272
 3429TIP3   OH231777   6.187   1.833   3.266 -0.2526 -0.2861  0.2558
 3429TIP3    H131778   6.137   1.759   3.231  3.3881 -2.2261 -1.4535
 3429TIP3    H231779   6.232   1.798   3.343  0.7799  0.3765 -0.0156
 3430TIP3   OH231780   3.484   6.714  16.636  0.1353  0.0597 -0.0436
 3430TIP3    H131781   3.569   6.695  16.594  0.5151 -0.1596  0.8098
 3430TIP3    H231782   3.455   6.795  16.594  1.4964  0.9799  0.7140
 3431TIP3   OH231783   1.338   5.082  14.776 -0.3468  0.4640  0.1889
 3431TIP3    H131784   1.379   5.010  14.727 -1.6330 -0.5797  0.6135
 3431TIP3    H231785   1.299   5.137  14.708 -0.6877 -0.0782 -0.0625
 3432TIP3   OH231786   2.776   4.050   1.762  0.2737 -0.3700  0.2147
 3432TIP3    H131787   2.861   4.022   1.794 -0.0900  0.0088  1.5628
 3432TIP3    H231788   2.780   4.145   1.762  0.7376 -0.3327 -2.2461
 3433TIP3   OH231789   2.850   4.245  11.528  0.7550  0.0463 -0.1085
 3433TIP3    H131790   2.757   4.223  11.521 -0.2202  3.1104  1.0735
 3433TIP3    H231791   2.888   4.173  11.577 -1.4193 -0.4989  0.9313
 3434TIP3   OH231792   3.418   0.687  13.024 -0.0742  0.0478  0.5363
 3434TIP3    H131793   3.462   0.720  13.102 -1.0749 -0.5271  1.3621
 3434TIP3    H231794   3.328   0.670  13.052 -0.2840 -0.7936 -0.5692
 3435TIP3   OH231795   6.211   5.478  13.563 -0.4620  0.6361 -0.1928
 3435TIP3    H131796   6.180   5.566  13.545  0.6715  1.1693  0.3202
 3435TIP3    H231797   6.275   5.489  13.634  0.0071 -0.5339 -0.4039
 3436TIP3   OH231798   2.042   1.466   3.767 -0.2217  0.0515 -0.0696
 3436TIP3    H131799   2.119   1.512   3.732  0.2248  0.0223  0.8264
 3436TIP3    H231800   2.040   1.383   3.721 -1.0947  0.9722 -1.7882
 3437TIP3   OH231801   0.508   5.026  11.909  0.2140 -0.0993  0.3985
 3437TIP3    H131802   0.591   4.992  11.874  0.5941 -0.7180  1.8481
 3437TIP3    H231803   0.474   4.955  11.963  0.2326  1.2385  2.2414
 3438TIP3   OH231804   1.220   4.038  12.736  0.0262 -0.3796  0.1979
 3438TIP3    H131805   1.221   3.944  12.721 -1.7653 -0.2309 -1.3362
 3438TIP3    H231806   1.229   4.076  12.649 -1.7996  0.7836  0.4614
 3439TIP3   OH231807   0.606   3.618  14.933  0.1550  0.0365 -0.7217
 3439TIP3    H131808   0.546   3.645  14.864 -1.3139  0.6717  0.7341
 3439TIP3    H231809   0.601   3.687  14.999  1.1173 -0.7797  0.2652
 3440TIP3   OH231810   4.881   4.909  12.314  0.2794 -0.0992  0.5385
 3440TIP3    H131811   4.935   4.829  12.315 -0.8191 -0.8626  0.0725
 3440TIP3    H231812   4.927   4.967  12.254  1.1064 -0.3697  0.8913
 3441TIP3   OH231813   0.708   1.207   3.078 -0.6183 -0.1722 -0.2003
 3441TIP3    H131814   0.658   1.249   3.148 -0.2581 -0.3957  0.1899
 3441TIP3    H231815   0.663   1.234   2.998 -0.7312  0.4978  0.0810
 3442TIP3   OH231816   4.308   2.626  11.534 -0.4411 -0.3165  0.0545
 3442TIP3    H131817   4.342   2.539  11.554  0.8371  0.3550  0.9606
 3442TIP3    H231818   4.331   2.641  11.442 -3.1065 -1.9663 -1.0178
 3443TIP3   OH231819   1.144   1.230   5.483  0.8422  0.0944 -0.0203
 3443TIP3    H131820   1.142   1.301   5.547 -2.2247  0.6981 -0.6035
 3443TIP3    H231821   1.088   1.260   5.412 -0.1777 -2.6736 -0.5191
 3444TIP3   OH231822   4.137   6.348   3.259 -0.9016  0.2892  0.2443
 3444TIP3    H131823   4.042   6.345   3.260 -1.0151  1.9927 -0.7677
 3444TIP3    H231824   4.160   6.365   3.167  0.3193  0.6239  0.5856
 3445TIP3   OH231825   3.986   0.458  15.675  0.1533  0.1982  0.2252
 3445TIP3    H131826   3.992   0.385  15.614  0.1174  0.8896 -0.6281
 3445TIP3    H231827   4.062   0.513  15.655 -1.1634  1.6954 -0.9102
 3446TIP3   OH231828   1.260   1.008  15.543  0.5485  0.5083  0.2051
 3446TIP3    H131829   1.289   1.013  15.452  0.0571  3.1319  0.1197
 3446TIP3    H231830   1.252   1.099  15.571  0.0804 -0.2163  2.6994
 3447TIP3   OH231831   1.736   5.392  13.446  0.3319  0.3381  0.3418
 3447TIP3    H131832   1.666   5.412  13.385 -0.0401  0.0652  0.6784
 3447TIP3    H231833   1.798   5.339  13.395 -0.5131 -0.8331  0.5007
 3448TIP3   OH231834   4.255   1.912   5.964  0.1177  0.2291  0.3955
 3448TIP3    H131835   4.282   2.003   5.960  1.1473 -0.1255 -2.2527
 3448TIP3    H231836   4.337   1.863   5.978 -0.2183 -0.3928  0.2335
 3449TIP3   OH231837   4.698   4.680  13.864  0.1434  0.6886  0.7199
 3449TIP3    H131838   4.632   4.613  13.851 -0.4717  1.3411  0.4169
 3449TIP3    H231839   4.705   4.689  13.959 -1.1576  1.5269  0.7539
 3450TIP3   OH231840   6.543   0.138   0.552  0.3627 -0.2733 -0.3121
 3450TIP3    H131841   6.538   0.196   0.629 -1.5369  0.2099 -0.7356
 3450TIP3    H231842   6.585   0.059   0.584  1.4955  0.7025  0.7102
 3451TIP3   OH231843   2.118   5.819   2.090  0.2317  0.0517 -0.2424
 3451TIP3    H131844   2.178   5.787   2.023 -0.9362 -0.6998 -0.9725
 3451TIP3    H231845   2.031   5.798   2.056 -0.5085  2.1028  0.2727
 3452TIP3   OH231846   3.998   0.170  10.420  0.5088 -0.0658 -0.5584
 3452TIP3    H131847   4.054   0.157  10.497  0.9471  1.4590 -0.5805
 3452TIP3    H231848   4.009   0.091  10.368  1.9529 -0.1930 -0.1115
 3453TIP3   OH231849   5.787   0.251   0.025  0.1393  0.0187  0.2136
 3453TIP3    H131850   5.797   0.158   0.005  0.3117  0.3328 -1.2221
 3453TIP3    H231851   5.877   0.281   0.042  0.2828  0.2535 -0.8963
 3454TIP3   OH231852   4.664   2.888   3.894 -0.3458  0.4785  0.2865
 3454TIP3    H131853   4.666   2.928   3.806  1.8030  0.0044  0.0768
 3454TIP3    H231854   4.704   2.802   3.882  0.3214  0.5535  1.8004
 3455TIP3   OH231855   1.352   3.479  13.986 -0.4553 -0.3697 -0.3527
 3455TIP3    H131856   1.268   3.476  14.032 -0.0281 -0.3092  0.4503
 3455TIP3    H231857   1.403   3.407  14.024  0.5124  0.7266  0.4850
 3456TIP3   OH231858   4.036   2.959  14.721  0.3119  0.2700  0.1816
 3456TIP3    H131859   4.100   2.937  14.790 -0.4020 -1.1283  0.4227
 3456TIP3    H231860   3.995   2.876  14.699  0.1630  0.7836 -1.6016
 3457TIP3   OH231861   4.246   3.390   5.223 -0.3924  0.3243 -0.0313
 3457TIP3    H131862   4.324   3.446   5.229 -1.9418  3.0932 -2.8272
 3457TIP3    H231863   4.191   3.418   5.296 -0.7647  1.8909 -0.8781
 3458TIP3   OH231864   3.867   3.457  12.977  0.1799  0.4466  0.0647
 3458TIP3    H131865   3.928   3.516  12.933  0.6425  0.1560  0.3095
 3458TIP3    H231866   3.802   3.514  13.016  0.2959  0.7604 -0.1972
 3459TIP3   OH231867   1.008   0.199  14.666  0.0946  0.3176 -0.6436
 3459TIP3    H131868   0.969   0.283  14.639 -0.8516  0.2571  0.4395
 3459TIP3    H231869   0.970   0.135  14.607  0.4455  0.5819 -1.1633
 3460TIP3   OH231870   4.015   6.643   5.996 -0.0235 -0.0320  0.7485
 3460TIP3    H131871   4.023   6.587   6.074 -0.1107  0.5876  1.2065
 3460TIP3    H231872   4.092   6.620   5.943 -0.1578 -0.7218  0.8364
 3461TIP3   OH231873   2.701   6.217  15.245  0.1745  0.0014  0.5164
 3461TIP3    H131874   2.733   6.160  15.315  0.0547  0.7434  1.1867
 3461TIP3    H231875   2.636   6.164  15.199 -1.0745  0.1023  2.0834
 3462TIP3   OH231876   3.793   6.849  12.356  0.0583 -0.1065 -0.7862
 3462TIP3    H131877   3.781   6.864  12.450 -1.1490 -0.8130 -0.8039
 3462TIP3    H231878   3.734   6.776  12.336  0.4497 -0.0953 -2.0547
 3463TIP3   OH231879   0.759   2.258  13.334 -0.3681  0.0678 -0.0516
 3463TIP3    H131880   0.723   2.277  13.248 -1.8484 -0.3897  0.4407
 3463TIP3    H231881   0.719   2.175  13.360  0.9953 -0.4353  0.5753
 3464TIP3   OH231882   3.805   3.222   1.515  0.3797  0.3984  0.1743
 3464TIP3    H131883   3.832   3.139   1.556  0.5759  0.6572  0.5853
 3464TIP3    H231884   3.875   3.241   1.453  0.1221  0.0431 -0.2264
 3465TIP3   OH231885   4.647   2.458  15.767 -0.1490  0.5716 -0.0015
 3465TIP3    H131886   4.734   2.496  15.764 -0.5818  1.7767  1.5146
 3465TIP3    H231887   4.588   2.533  15.782 -1.3359 -0.3260  0.0052
 3466TIP3   OH231888   1.330   1.488  14.228 -0.0552  0.0250  0.2988
 3466TIP3    H131889   1.253   1.438  14.201  0.9487 -1.6296  0.3166
 3466TIP3    H231890   1.369   1.518  14.145 -0.9021  1.2210  0.3075
 3467TIP3   OH231891   4.105   1.530   2.296 -0.4684  0.2011  0.9621
 3467TIP3    H131892   4.163   1.506   2.368 -0.1733  2.2173  1.4385
 3467TIP3    H231893   4.042   1.457   2.291  1.2615 -1.3913  1.2771
 3468TIP3   OH231894   6.012   2.870   2.427 -0.1871 -0.9734  0.8433
 3468TIP3    H131895   6.069   2.800   2.394  0.4602 -0.3371  0.5698
 3468TIP3    H231896   5.970   2.833   2.505  0.6072 -1.4715  1.0461
 3469TIP3   OH231897   4.469   5.761  13.823 -0.0658 -0.0368 -0.2692
 3469TIP3    H131898   4.422   5.840  13.850  1.2134  1.1765 -1.4676
 3469TIP3    H231899   4.447   5.750  13.731  0.3728 -0.6625 -0.3086
 3470TIP3   OH231900   4.428   4.278   5.566 -1.0700  0.3125  0.0940
 3470TIP3    H131901   4.348   4.330   5.568 -0.3718  1.4322  2.0659
 3470TIP3    H231902   4.483   4.323   5.500 -1.5974  0.2583 -0.3898
 3471TIP3   OH231903   4.155   0.090  12.061 -0.1347  0.2974 -0.4572
 3471TIP3    H131904   4.194   0.031  12.125  0.8481  1.4047  0.0032
 3471TIP3    H231905   4.106   0.033  12.002  2.7694 -1.2712 -1.5400
 3472TIP3   OH231906   4.326   4.063  11.950  0.0258 -0.1104 -0.3005
 3472TIP3    H131907   4.360   4.088  11.864 -0.5472 -0.5119 -0.6525
 3472TIP3    H231908   4.392   4.003  11.985  1.1794  1.4658  0.3562
 3473TIP3   OH231909   6.512   3.442  14.627  0.5677 -0.2147  0.3539
 3473TIP3    H131910   6.445   3.507  14.645  0.1460 -0.6119  0.2308
 3473TIP3    H231911   6.545   3.417  14.714  0.3979 -0.1882  0.4255
 3474TIP3   OH231912   3.218   2.256  15.016  0.6925 -0.0832 -0.1383
 3474TIP3    H131913   3.297   2.216  15.053  1.7526  1.2400 -0.8936
 3474TIP3    H231914   3.183   2.189  14.957  0.4392 -1.2101  1.2205
 3475TIP3   OH231915   6.051   3.499  16.961  1.0035 -0.4311  0.5264
 3475TIP3    H131916   5.957   3.516  16.955  0.4914 -2.4115  2.0171
 3475TIP3    H231917   6.063   3.417  16.914  1.8852 -0.5117  0.8780
 3476TIP3   OH231918   6.534   1.630  13.357  0.1682 -0.0866  0.3693
 3476TIP3    H131919   6.499   1.624  13.268 -2.0195  0.1590  1.1553
 3476TIP3    H231920   6.512   1.718  13.387 -2.4268 -1.2796  2.3601
 3477TIP3   OH231921   6.128   0.346  14.725  0.4789  0.1217  0.4094
 3477TIP3    H131922   6.221   0.323  14.722  0.9080  1.4531  1.9638
 3477TIP3    H231923   6.126   0.440  14.708 -0.4396  0.3412  1.6310
 3478TIP3   OH231924   5.534   2.193  10.901  0.0014 -0.1150  0.3215
 3478TIP3    H131925   5.513   2.132  10.830 -0.0927  0.3080 -0.0163
 3478TIP3    H231926   5.585   2.140  10.963  1.6215 -0.0703 -0.8952
 3479TIP3   OH231927   4.846   3.373  15.793  0.2833  0.3387 -0.1275
 3479TIP3    H131928   4.897   3.382  15.873 -1.0855  0.5083  0.7595
 3479TIP3    H231929   4.792   3.452  15.791 -0.9667 -0.5037 -0.2753
 3480TIP3   OH231930   3.852   5.174   3.526  0.1479 -0.3414 -0.1821
 3480TIP3    H131931   3.920   5.184   3.460  1.0491 -0.9834  0.6219
 3480TIP3    H231932   3.795   5.104   3.492 -0.4313  0.5530 -1.0983
 3481TIP3   OH231933   4.909   6.457  14.960 -0.0209  0.3357 -0.2913
 3481TIP3    H131934   4.971   6.419  15.022 -0.5615  2.5058  1.7478
 3481TIP3    H231935   4.875   6.383  14.911  1.6377 -1.3065  0.9058
 3482TIP3   OH231936   5.744   6.806   0.691  0.1997  0.2125 -0.0093
 3482TIP3    H131937   5.649   6.794   0.691  0.3668 -1.5571 -1.7408
 3482TIP3    H231938   5.779   6.720   0.667  2.2331  0.9397  0.1747
 3483TIP3   OH231939   0.605   6.563   4.208 -0.3787  0.5632  0.2464
 3483TIP3    H131940   0.620   6.657   4.209  1.6465  0.3246 -0.6658
 3483TIP3    H231941   0.598   6.541   4.115  0.6510 -0.3509  0.3655
 3484TIP3   OH231942   5.882   1.606   3.439 -0.1790 -0.3736  0.2637
 3484TIP3    H131943   5.827   1.568   3.371  1.1555  2.7531 -2.9055
 3484TIP3    H231944   5.965   1.558   3.432 -0.1033 -0.1778 -0.2351
 3485TIP3   OH231945   5.810   0.935   5.200  0.2334 -0.4758  0.0514
 3485TIP3    H131946   5.841   0.886   5.276  0.2238 -2.0565 -0.9221
 3485TIP3    H231947   5.779   1.018   5.236  3.6359  0.3992  1.3645
 3486TIP3   OH231948   6.300   2.105   1.135  0.7730  0.0053 -0.0757
 3486TIP3    H131949   6.294   2.198   1.112  0.4874  0.7352  2.6754
 3486TIP3    H231950   6.339   2.065   1.057  0.9334  2.4034 -1.3563
 3487TIP3   OH231951   1.424   4.718   1.110  0.2848 -0.1877 -0.1650
 3487TIP3    H131952   1.400   4.802   1.149  0.8658  0.4866 -1.2160
 3487TIP3    H231953   1.447   4.662   1.184 -0.1838  0.5484  0.5463
 3488TIP3   OH231954   4.392   3.424   3.886  0.0427 -0.6297 -0.2614
 3488TIP3    H131955   4.324   3.404   3.822 -1.5539  0.6518  0.9499
 3488TIP3    H231956   4.381   3.359   3.955  1.2380 -1.5112 -0.8674
 3489TIP3   OH231957   5.805   3.208   4.807  0.1699  0.2394  0.5022
 3489TIP3    H131958   5.737   3.168   4.861  1.7012  2.1669  4.1935
 3489TIP3    H231959   5.761   3.232   4.726 -2.7774 -1.1281  1.5635
 3490TIP3   OH231960   0.094   4.533  13.425  0.0128 -0.3646 -0.6547
 3490TIP3    H131961   0.045   4.582  13.358  1.6523  1.7967 -0.3800
 3490TIP3    H231962   0.026   4.493  13.479 -1.4793  1.8588 -0.7546
 3491TIP3   OH231963   0.153   6.758  15.921 -0.3341  0.1694 -0.4493
 3491TIP3    H131964   0.151   6.755  16.016 -0.4214  0.6709 -0.4331
 3491TIP3    H231965   0.150   6.851  15.899 -1.0337  0.0403 -0.9499
 3492TIP3   OH231966   4.821   5.127   0.961  0.2082  0.2037  0.8262
 3492TIP3    H131967   4.872   5.093   1.035 -1.5855  1.2728  2.6558
 3492TIP3    H231968   4.758   5.057   0.942  1.0224 -0.3019 -0.1249
 3493TIP3   OH231969   3.891   6.721   1.400  0.1020 -0.0945 -0.0533
 3493TIP3    H131970   3.885   6.654   1.333  2.1789 -1.0656  0.6369
 3493TIP3    H231971   3.800   6.737   1.427 -0.5397 -1.6595 -1.1478
 3494TIP3   OH231972   4.289   6.805  12.940  0.1608 -0.1752  0.1347
 3494TIP3    H131973   4.205   6.763  12.923 -0.4291  1.2803 -0.7215
 3494TIP3    H231974   4.271   6.868  13.009  0.7172 -0.3667  0.4576
 3495TIP3   OH231975   1.075   2.532   5.903  0.0222 -0.4828  0.1840
 3495TIP3    H131976   1.011   2.519   5.833  1.0035 -0.5804 -0.7193
 3495TIP3    H231977   1.070   2.625   5.924 -2.0945 -0.8809  1.8170
 3496TIP3   OH231978   6.244   3.587  13.153 -0.6626 -0.7616 -0.3066
 3496TIP3    H131979   6.262   3.498  13.124 -1.0481 -0.9401  0.0009
 3496TIP3    H231980   6.306   3.601  13.225  0.0314 -0.4523 -0.9529
 3497TIP3   OH231981   0.765   3.930   3.962  0.0354  0.3790 -0.7338
 3497TIP3    H131982   0.852   3.912   3.926 -0.5557 -0.2801 -1.9125
 3497TIP3    H231983   0.743   3.850   4.010 -0.0275  0.4329 -0.6735
 3498TIP3   OH231984   5.268   0.289  11.762 -0.2057  0.0178 -0.1394
 3498TIP3    H131985   5.176   0.314  11.775 -0.3032  0.4642 -1.5283
 3498TIP3    H231986   5.298   0.346  11.691  0.4993 -1.6208 -1.2086
 3499TIP3   OH231987   2.832   6.390  13.531 -0.1611 -0.1290 -0.0128
 3499TIP3    H131988   2.795   6.302  13.541 -1.8517  0.4884 -0.5421
 3499TIP3    H231989   2.846   6.400  13.437 -2.2624  0.9995 -0.2719
 3500TIP3   OH231990   1.639   2.648  12.102  0.0393  0.4534  0.2519
 3500TIP3    H131991   1.725   2.623  12.067 -0.1514  1.0642 -0.6583
 3500TIP3    H231992   1.599   2.565  12.129 -0.5545 -0.3013 -2.6359
 3501TIP3   OH231993   5.806   3.685   1.919  0.0275 -0.0780 -0.2148
 3501TIP3    H131994   5.810   3.600   1.873  4.9751 -0.7896  0.9262
 3501TIP3    H231995   5.793   3.662   2.011  2.8785  0.0663  0.3253
 3502TIP3   OH231996   0.199   1.601  15.834 -0.7027 -0.0046 -0.2200
 3502TIP3    H131997   0.230   1.628  15.920 -0.4159  0.5060 -0.4821
 3502TIP3    H231998   0.166   1.512  15.847 -0.1191 -0.1485  0.2902
 3503TIP3   OH231999   2.544   5.097  15.267  0.2734 -0.3934  0.3663
 3503TIP3    H132000   2.583   5.045  15.338 -0.5929 -0.2532  0.9574
 3503TIP3    H232001   2.451   5.098  15.287 -0.0156 -0.5138 -0.8887
 3504TIP3   OH232002   3.269   1.693   1.642  0.0719 -0.5429 -0.2744
 3504TIP3    H132003   3.245   1.705   1.550 -0.2673  1.7223  0.0489
 3504TIP3    H232004   3.323   1.769   1.663  2.5163 -2.4118  0.7137
 3505TIP3   OH232005   1.301   3.955  15.619  0.4989  0.2664 -0.4452
 3505TIP3    H132006   1.344   3.900  15.684 -0.3854  0.1476  0.0651
 3505TIP3    H232007   1.254   3.894  15.562 -0.7968  0.4818  0.3538
 3506TIP3   OH232008   0.246   5.984  16.615 -0.4749  0.1703 -0.0675
 3506TIP3    H132009   0.165   6.032  16.630 -1.0852 -0.7280 -0.3362
 3506TIP3    H232010   0.217   5.898  16.582  0.6255  0.5339 -2.1833
 3507TIP3   OH232011   3.169   1.723  13.422 -0.3983  0.3802  0.4495
 3507TIP3    H132012   3.238   1.779  13.386 -2.9995  2.1030 -2.3056
 3507TIP3    H232013   3.167   1.647  13.364 -2.0391  1.2863 -0.7388
 3508TIP3   OH232014   5.333   0.389   3.233 -0.1152 -0.2062 -0.0619
 3508TIP3    H132015   5.239   0.403   3.248 -0.4057 -2.8041  1.0869
 3508TIP3    H232016   5.336   0.319   3.168  1.0504  0.3470 -0.6146
 3509TIP3   OH232017   0.310   2.610   5.392 -0.2858  0.0121  0.6489
 3509TIP3    H132018   0.313   2.681   5.328  0.7636 -1.7970 -1.4380
 3509TIP3    H232019   0.238   2.555   5.363 -1.7851  0.6796  2.8663
 3510TIP3   OH232020   0.867   5.216  16.679 -0.0295 -0.2501  0.6923
 3510TIP3    H132021   0.904   5.303  16.662 -1.0577  0.2092  0.7025
 3510TIP3    H232022   0.890   5.197  16.770  0.7235 -0.2642  0.5040
 3511TIP3   OH232023   6.070   3.359   5.070 -0.1141  0.0439 -0.0976
 3511TIP3    H132024   5.997   3.345   5.130 -0.9195 -1.4477 -1.3662
 3511TIP3    H232025   6.029   3.372   4.984  1.0816  0.0665 -0.6960
 3512TIP3   OH232026   0.521   5.124  15.954 -0.1595  0.0737  0.3513
 3512TIP3    H132027   0.546   5.151  16.043 -0.2724  1.1532  0.0655
 3512TIP3    H232028   0.598   5.079  15.920  0.4496  1.0173  0.4482
 3513TIP3   OH232029   2.205   3.929  11.128  0.4007  0.1045 -0.1042
 3513TIP3    H132030   2.215   4.024  11.122  3.2209 -0.1216 -0.6603
 3513TIP3    H232031   2.176   3.914  11.218 -2.2061  1.5237 -0.6134
 3514TIP3   OH232032   5.449   1.097  15.278  0.5120 -0.4639  0.2664
 3514TIP3    H132033   5.460   1.004  15.300  1.3465 -0.9615 -2.0054
 3514TIP3    H232034   5.538   1.132  15.278  0.4296 -0.2052 -0.9256
 3515TIP3   OH232035   4.625   4.048  15.210 -0.0440  0.1076  0.6331
 3515TIP3    H132036   4.542   4.082  15.175  0.2033  1.2857  1.1410
 3515TIP3    H232037   4.646   3.973  15.155 -0.2523  1.2042 -0.9934
 3516TIP3   OH232038   6.163   1.599   5.547 -0.1981 -0.1971 -0.2122
 3516TIP3    H132039   6.240   1.555   5.581  1.6147  1.6436 -1.6710
 3516TIP3    H232040   6.117   1.532   5.497  1.7076 -0.8196 -1.2170
 3517TIP3   OH232041   5.665   3.236  16.167 -0.1289 -0.0864  0.0044
 3517TIP3    H132042   5.580   3.192  16.159 -0.5018  0.8068 -1.2692
 3517TIP3    H232043   5.644   3.329  16.163  0.7451  0.2208  1.7021
 3518TIP3   OH232044   2.750   2.387   2.460 -0.2183  0.3742 -0.9405
 3518TIP3    H132045   2.714   2.380   2.548 -0.3343 -0.7232 -1.0717
 3518TIP3    H232046   2.829   2.439   2.471 -0.3758  0.4824 -0.2381
 3519TIP3   OH232047   5.616   4.585  11.693 -0.0467 -0.1601  0.3604
 3519TIP3    H132048   5.562   4.571  11.771 -0.2441 -1.1114  0.0657
 3519TIP3    H232049   5.612   4.680  11.677  1.2721  0.3030  2.4128
 3520TIP3   OH232050   2.857   1.842   4.843 -0.3535  0.4378 -0.0198
 3520TIP3    H132051   2.898   1.853   4.757 -0.5136 -0.5290 -0.2321
 3520TIP3    H232052   2.916   1.783   4.890 -1.7959 -1.5326 -0.5671
 3521TIP3   OH232053   1.254   4.140   6.089  0.0583 -0.0451 -0.3995
 3521TIP3    H132054   1.272   4.081   6.162  0.4647  1.1704  0.5245
 3521TIP3    H232055   1.250   4.227   6.129  1.0707  0.7599 -1.9254
 3522TIP3   OH232056   2.679   1.908   3.048  0.7163  0.0606 -0.0223
 3522TIP3    H132057   2.642   1.828   3.010 -2.8873  2.2589 -1.6423
 3522TIP3    H232058   2.764   1.918   3.006 -1.1765 -0.0184 -4.4342
 3523TIP3   OH232059   1.959   6.078   5.339  0.3453 -0.1191  0.2973
 3523TIP3    H132060   1.903   6.153   5.358 -1.9934 -2.2188  2.4219
 3523TIP3    H232061   1.899   6.004   5.333  2.6434 -2.0423 -0.5843
 3524TIP3   OH232062   4.722   5.945   3.307 -0.1749 -0.0943  0.0822
 3524TIP3    H132063   4.655   5.899   3.257  0.3726 -0.7400 -0.0649
 3524TIP3    H232064   4.718   6.035   3.275  0.5398 -0.6017 -1.5273
 3525TIP3   OH232065   6.139   3.202  17.099  0.3186 -0.1716  0.0617
 3525TIP3    H132066   6.167   3.196  17.007  1.9265 -1.5248  0.5819
 3525TIP3    H232067   6.097   3.118  17.116  0.7022 -0.2309  0.7494
 3526TIP3   OH232068   4.616   4.930  14.563  0.7804  0.1302  0.0556
 3526TIP3    H132069   4.626   4.865  14.632  0.2393  0.9091  0.8923
 3526TIP3    H232070   4.602   5.012  14.610  1.3019  0.8276 -0.9781
 3527TIP3   OH232071   0.205   6.408   1.994 -0.3966  0.0098 -0.2129
 3527TIP3    H132072   0.241   6.411   2.083  2.3189  1.0905 -1.2353
 3527TIP3    H232073   0.282   6.412   1.937 -2.0551 -0.4419 -2.6355
 3528TIP3   OH232074   0.720   3.917   2.578 -0.2839 -0.2625 -0.0502
 3528TIP3    H132075   0.723   3.954   2.490 -3.4071 -0.9364 -0.5583
 3528TIP3    H232076   0.639   3.951   2.616  1.2780  0.5383  2.8771
 3529TIP3   OH232077   5.108   2.611  13.473 -0.3558 -0.0316 -0.1207
 3529TIP3    H132078   5.054   2.666  13.530  0.5658  1.5823 -0.7433
 3529TIP3    H232079   5.094   2.646  13.385  0.2672 -0.7896 -0.5307
 3530TIP3   OH232080   0.174   6.228  16.785  0.0419 -0.0549 -0.0530
 3530TIP3    H132081   0.216   6.152  16.826  1.9557  2.1161  2.3312
 3530TIP3    H232082   0.080   6.209  16.790  0.4500 -2.4311 -0.0187
 3531TIP3   OH232083   0.554   5.419  16.134 -0.5044  0.5693 -0.3075
 3531TIP3    H132084   0.566   5.328  16.160 -0.2897  0.4283 -0.8943
 3531TIP3    H232085   0.493   5.454  16.199 -0.3170  0.1088  0.1297
 3532TIP3   OH232086   5.766   1.425   2.503  0.0119  0.2481 -0.1720
 3532TIP3    H132087   5.765   1.418   2.407 -0.3664 -1.2450 -0.0832
 3532TIP3    H232088   5.689   1.375   2.531  1.4234 -1.4016  0.9943
 3533TIP3   OH232089   3.921   4.867   4.388  0.0522  0.1294 -0.1805
 3533TIP3    H132090   3.847   4.817   4.422 -1.2063  1.5739 -0.6604
 3533TIP3    H232091   3.887   4.956   4.376  2.6695  1.6601  2.4348
 3534TIP3   OH232092   1.373   6.568  16.507 -0.2421  0.0015 -0.1986
 3534TIP3    H132093   1.372   6.522  16.591 -0.0263 -0.0690 -0.2336
 3534TIP3    H232094   1.320   6.646  16.522 -0.1266  0.0379  0.0304
 3535TIP3   OH232095   5.185   2.219   4.619 -0.4207  0.4526 -0.3479
 3535TIP3    H132096   5.194   2.128   4.592 -0.2950  0.2578  0.3228
 3535TIP3    H232097   5.091   2.237   4.613 -0.3540  0.5171 -1.2240
 3536TIP3   OH232098   5.982   3.948  16.004 -0.8200  0.0144 -0.1236
 3536TIP3    H132099   5.964   4.033  16.044 -0.5825 -0.3454  0.7684
 3536TIP3    H232100   5.944   3.884  16.064  0.9740 -0.6238  0.4074
 3537TIP3   OH232101   2.998   6.063   6.252  0.3209 -0.1645 -0.0661
 3537TIP3    H132102   3.091   6.084   6.238  0.3902  0.3103  1.0155
 3537TIP3    H232103   2.963   6.050   6.164  1.1257  0.9211 -0.5730
 3538TIP3   OH232104   1.881   2.680   3.998 -0.2809 -0.0972 -0.0022
 3538TIP3    H132105   1.949   2.735   3.958 -0.5090  0.1615 -0.0345
 3538TIP3    H232106   1.907   2.590   3.975 -1.6264  0.1089 -2.7020
 3539TIP3   OH232107   6.374   1.564   3.495 -0.3950 -0.1846  0.0635
 3539TIP3    H132108   6.357   1.496   3.430  1.5017 -1.1228  0.4791
 3539TIP3    H232109   6.447   1.614   3.459  0.8699 -0.8812  1.5081
 3540TIP3   OH232110   6.073   3.488  14.811  0.1254  0.2709 -0.2672
 3540TIP3    H132111   6.056   3.548  14.884  1.7485 -1.6586  1.8456
 3540TIP3    H232112   5.995   3.433  14.807  0.9986 -1.2583  1.8289
 3541TIP3   OH232113   2.575   0.854  14.912 -0.3467 -0.0269 -0.5427
 3541TIP3    H132114   2.504   0.801  14.946 -0.3905  0.5195  0.2547
 3541TIP3    H232115   2.552   0.871  14.821 -1.0444 -0.1728 -0.3949
 3542TIP3   OH232116   5.613   3.166   4.633  0.4602 -0.3257  0.3925
 3542TIP3    H132117   5.640   3.118   4.555 -2.2863  1.9724 -2.2616
 3542TIP3    H232118   5.537   3.118   4.666 -1.4641  1.2320 -1.4758
 3543TIP3   OH232119   0.307   5.147   3.310  0.2502  0.0063  0.2239
 3543TIP3    H132120   0.367   5.105   3.248 -0.6795 -1.1746  0.0857
 3543TIP3    H232121   0.309   5.239   3.286  1.7128 -0.0573 -0.0199
 3544TIP3   OH232122   2.487   1.009   2.751  0.6025 -0.1181  0.0232
 3544TIP3    H132123   2.494   0.953   2.829 -0.0687 -1.8192 -1.0630
 3544TIP3    H232124   2.421   1.074   2.774 -0.8391 -1.6241  0.3396
 3545TIP3   OH232125   6.001   5.687   5.410  0.3214 -0.0935  0.5532
 3545TIP3    H132126   6.046   5.771   5.402  1.2784 -0.7588 -2.2138
 3545TIP3    H232127   6.064   5.631   5.457  1.3113 -0.2617 -0.9126
 3546TIP3   OH232128   0.361   0.349   5.349  0.3593 -0.1513 -0.2012
 3546TIP3    H132129   0.351   0.255   5.361 -0.5087 -0.1547 -0.8086
 3546TIP3    H232130   0.349   0.363   5.255  3.0937  0.2884 -0.5716
 3547TIP3   OH232131   0.683   1.235   1.080  0.5917  0.4541 -0.1081
 3547TIP3    H132132   0.732   1.171   1.131 -0.9600 -0.4094  0.3726
 3547TIP3    H232133   0.698   1.318   1.125  0.5529 -0.0242  0.8196
 3548TIP3   OH232134   0.509   1.086  13.861 -0.5173 -0.4975 -0.0730
 3548TIP3    H132135   0.526   1.179  13.874 -2.7362  0.1750 -1.4607
 3548TIP3    H232136   0.467   1.057  13.942 -0.7705 -0.0104 -0.0276
 3549TIP3   OH232137   3.213   4.520  12.260 -0.0924 -0.0111 -0.3388
 3549TIP3    H132138   3.308   4.520  12.264  0.0999 -3.6313 -1.7273
 3549TIP3    H232139   3.187   4.441  12.307 -2.3772  0.4108 -0.7814
 3550TIP3   OH232140   5.055   6.806   6.606 -0.0157 -0.0753  0.3746
 3550TIP3    H132141   5.138   6.850   6.623  0.6092 -0.6646 -0.9775
 3550TIP3    H232142   4.998   6.875   6.573  0.1228  0.2146  0.7359
 3551TIP3   OH232143   2.224   5.491  12.574 -0.1822 -0.5583 -0.2024
 3551TIP3    H132144   2.214   5.580  12.607  2.9475  0.2184 -1.0690
 3551TIP3    H232145   2.184   5.493  12.487  0.5898  0.2770 -0.5588
 3552TIP3   OH232146   0.679   3.259   1.049 -0.6288  0.8285 -0.1181
 3552TIP3    H132147   0.729   3.186   1.013 -0.8613  0.3021  0.5968
 3552TIP3    H232148   0.706   3.263   1.141 -2.0711  0.3519  0.3582
 3553TIP3   OH232149   3.669   2.674   5.246  0.5120  0.2745 -0.5827
 3553TIP3    H132150   3.687   2.649   5.337  2.7910  1.1837 -0.7194
 3553TIP3    H232151   3.755   2.677   5.204 -0.1099  3.0573 -1.9204
 3554TIP3   OH232152   4.342   0.437   3.856  0.4423 -0.2389 -0.1375
 3554TIP3    H132153   4.327   0.354   3.903  0.1771  0.5586  1.2374
 3554TIP3    H232154   4.431   0.429   3.823  0.7531 -0.7267  0.7655
 3555TIP3   OH232155   6.446   3.479  14.171 -0.5716 -0.2384  0.1494
 3555TIP3    H132156   6.418   3.402  14.221 -1.9584  0.0509 -0.1669
 3555TIP3    H232157   6.375   3.496  14.109  0.1819  0.6783 -0.5040
 3556TIP3   OH232158   2.699   6.240  14.617 -0.0629 -0.3054 -0.0806
 3556TIP3    H132159   2.715   6.281  14.533  1.6373 -0.9769 -0.1336
 3556TIP3    H232160   2.713   6.146  14.601  0.9420 -0.3768  1.0763
 3557TIP3   OH232161   5.081   1.830  14.033 -0.0691 -0.1717 -0.0879
 3557TIP3    H132162   5.107   1.795  14.118 -1.2274  0.2037  0.4363
 3557TIP3    H232163   5.062   1.752  13.980 -0.5825 -0.3913  0.4063
 3558TIP3   OH232164   6.834   4.864  11.822  0.6987  0.2334  0.4798
 3558TIP3    H132165   6.767   4.800  11.799  0.3719  0.5860  0.4357
 3558TIP3    H232166   6.846   4.854  11.916  0.7323  0.0287  0.4545
 3559TIP3   OH232167   1.593   1.991   6.344  0.3191 -0.1406  0.3261
 3559TIP3    H132168   1.621   1.917   6.399  0.9056  0.1329  0.4054
 3559TIP3    H232169   1.655   1.991   6.271  0.5195  0.4646  0.4912
 3560TIP3   OH232170   1.073   3.596  16.219 -0.4502  0.3662 -0.2557
 3560TIP3    H132171   1.046   3.505  16.230 -0.5333  0.5971  1.7942
 3560TIP3    H232172   1.044   3.639  16.300  2.6161  1.4677  0.3592
 3561TIP3   OH232173   0.255   0.698   3.337 -0.4099 -0.5472 -0.1166
 3561TIP3    H132174   0.289   0.780   3.301 -2.7023  0.7878  0.5377
 3561TIP3    H232175   0.168   0.689   3.297 -0.4947 -2.2959  0.3922
 3562TIP3   OH232176   4.114   1.903  13.299 -0.1976 -0.4384  0.0007
 3562TIP3    H132177   4.090   1.979  13.246 -0.4155 -0.3430  0.2364
 3562TIP3    H232178   4.136   1.835  13.234 -0.0994 -0.2080 -0.2082
 3563TIP3   OH232179   1.993   0.100   4.879 -0.5789 -0.3112 -0.5093
 3563TIP3    H132180   2.028   0.013   4.898  0.8376  0.2266 -0.5697
 3563TIP3    H232181   1.975   0.138   4.964  0.4788 -0.0103 -0.4085
 3564TIP3   OH232182   0.473   0.132  15.365 -0.1706 -0.0090 -0.0125
 3564TIP3    H132183   0.409   0.104  15.430 -0.1993 -1.2858 -0.5561
 3564TIP3    H232184   0.421   0.146  15.285  0.1680 -0.6835 -0.3571
 3565TIP3   OH232185   1.018   1.192  16.174  0.3777  0.0150  0.1262
 3565TIP3    H132186   0.972   1.273  16.149 -1.7791 -1.1525  0.1028
 3565TIP3    H232187   1.018   1.193  16.269 -0.1927 -0.2416  0.1300
 3566TIP3   OH232188   2.325   1.529  11.696  0.7788 -0.0326  0.1672
 3566TIP3    H132189   2.280   1.444  11.695 -0.2126  0.4478  1.2853
 3566TIP3    H232190   2.256   1.593  11.678  0.8829  0.7640  2.2857
 3567TIP3   OH232191   5.573   3.873   3.794  0.1170 -0.1082 -0.1685
 3567TIP3    H132192   5.644   3.865   3.858 -0.1232 -0.3860  0.0605
 3567TIP3    H232193   5.613   3.848   3.711  0.6217  0.9364 -0.2599
 3568TIP3   OH232194   3.485   5.594  16.144 -0.0172  0.3937 -0.4142
 3568TIP3    H132195   3.477   5.510  16.099 -0.7443 -0.5224  1.3313
 3568TIP3    H232196   3.579   5.605  16.159  0.0961 -0.0127 -0.8288
 3569TIP3   OH232197   5.520   5.178  12.621  0.7189 -0.1718  0.0132
 3569TIP3    H132198   5.545   5.137  12.538 -1.5654 -0.0258 -0.8293
 3569TIP3    H232199   5.470   5.110  12.667 -0.6853  0.7179 -0.1413
 3570TIP3   OH232200   4.431   1.686   0.931  0.4815  0.2718  0.1522
 3570TIP3    H132201   4.414   1.758   0.871 -1.8760  0.1497  0.5528
 3570TIP3    H232202   4.363   1.621   0.910  0.9534 -0.7093  1.4760
 3571TIP3   OH232203   3.636   1.593  11.070 -0.3413 -0.0339 -0.1524
 3571TIP3    H132204   3.607   1.673  11.026 -1.1387  0.7198  1.6177
 3571TIP3    H232205   3.557   1.541  11.081  0.0891 -0.8547 -0.8521
 3572TIP3   OH232206   3.121   2.237  12.477 -0.1431 -0.2991  0.6511
 3572TIP3    H132207   3.027   2.235  12.495 -0.3110  2.7053  0.6432
 3572TIP3    H232208   3.128   2.276  12.390  1.0818  2.2270  1.7637
 3573TIP3   OH232209   6.339   4.524  15.776 -0.2243 -0.0707 -0.3490
 3573TIP3    H132210   6.244   4.535  15.780 -0.2917 -0.5008 -0.7511
 3573TIP3    H232211   6.362   4.482  15.858 -0.4450 -0.4153 -0.4626
 3574TIP3   OH232212   1.159   3.605  13.630 -0.3265 -0.1873 -0.0389
 3574TIP3    H132213   1.125   3.649  13.708  1.9116  0.7483  0.4761
 3574TIP3    H232214   1.172   3.675  13.567 -3.2062 -1.0681 -1.7810
 3575TIP3   OH232215   5.614   2.689  12.788  0.0385 -0.5138  0.1625
 3575TIP3    H132216   5.666   2.758  12.828  2.2091 -2.1494  0.3923
 3575TIP3    H232217   5.675   2.645  12.728 -1.1817 -2.3454  0.1818
 3576TIP3   OH232218   5.187   4.010  15.513 -0.2725 -0.1663 -0.0713
 3576TIP3    H132219   5.160   4.094  15.477  0.6527 -0.1587 -0.7640
 3576TIP3    H232220   5.139   3.945  15.462  0.2340 -0.1146 -0.6208
 3577TIP3   OH232221   1.378   2.895   6.003  0.8750  0.4120  0.1660
 3577TIP3    H132222   1.383   2.848   6.086  1.4914 -1.9554 -1.1390
 3577TIP3    H232223   1.286   2.889   5.977  1.3804 -2.7194 -1.3345
 3578TIP3   OH232224   3.334   2.093   0.196 -0.0282 -0.7077 -0.5457
 3578TIP3    H132225   3.257   2.138   0.162  0.7591  1.9875  0.9539
 3578TIP3    H232226   3.303   2.004   0.212 -2.9774  0.3282  0.3234
 3579TIP3   OH232227   5.780   3.107   4.054 -0.5619 -0.0110 -0.3989
 3579TIP3    H132228   5.684   3.102   4.051 -0.5336 -0.2074 -2.9595
 3579TIP3    H232229   5.798   3.200   4.069 -1.1681  0.2009 -0.9280
 3580TIP3   OH232230   1.253   1.713   0.132 -0.0219  0.3526  0.4089
 3580TIP3    H132231   1.304   1.684   0.208  0.4608  0.3319  0.0878
 3580TIP3    H232232   1.165   1.679   0.147  0.5300 -1.3905  0.0059
 3581TIP3   OH232233   2.684   4.313   4.703 -0.0027 -0.5340 -0.5876
 3581TIP3    H132234   2.716   4.403   4.709 -0.2645 -0.3484 -1.7068
 3581TIP3    H232235   2.606   4.312   4.759 -1.4685  0.6531 -2.4888
 3582TIP3   OH232236   0.271   0.778   1.669 -0.2976 -0.0781 -0.0202
 3582TIP3    H132237   0.348   0.834   1.662  0.3555 -0.8889  0.5021
 3582TIP3    H232238   0.222   0.794   1.588  1.7914 -1.5475 -1.6941
 3583TIP3   OH232239   4.225   0.564  15.286  0.5648  0.1689  0.0682
 3583TIP3    H132240   4.175   0.534  15.210  0.6540 -0.5722  0.3047
 3583TIP3    H232241   4.311   0.587  15.250  1.2008 -1.8380  0.1910
 3584TIP3   OH232242   2.747   4.506   3.547 -0.2112  0.1605  0.3284
 3584TIP3    H132243   2.665   4.473   3.583  0.1564 -1.0792  0.0871
 3584TIP3    H232244   2.724   4.590   3.508 -1.4170 -0.2747  0.0517
 3585TIP3   OH232245   2.481   5.081  16.492  0.5034 -0.0314  0.3933
 3585TIP3    H132246   2.571   5.106  16.515 -0.0080  1.2343  1.1342
 3585TIP3    H232247   2.426   5.142  16.540 -0.8178 -1.6386  1.0177
 3586TIP3   OH232248   5.041   1.768  12.602 -0.0038  0.0849 -0.2845
 3586TIP3    H132249   5.067   1.714  12.527 -0.9857 -1.2299  0.2650
 3586TIP3    H232250   5.094   1.735  12.674  0.6701  1.0925 -0.3090
 3587TIP3   OH232251   3.387   3.990   5.379 -0.0242 -0.0187  0.4067
 3587TIP3    H132252   3.317   3.928   5.400 -2.3222  2.1213 -0.4584
 3587TIP3    H232253   3.430   4.007   5.462  1.5113 -3.5516  0.5090
 3588TIP3   OH232254   0.675   2.299  14.749 -0.3998 -0.4180  0.1378
 3588TIP3    H132255   0.708   2.386  14.773 -0.0996 -0.7743  1.0717
 3588TIP3    H232256   0.736   2.269  14.681 -1.5938  0.8392 -1.5754
 3589TIP3   OH232257   5.515   5.201  16.011  0.0307  0.2788  0.2132
 3589TIP3    H132258   5.560   5.179  16.092  0.0952  0.0061  0.1055
 3589TIP3    H232259   5.527   5.295  16.001 -0.0958  0.3353  0.5876
 3590TIP3   OH232260   2.828   4.287  15.460 -0.0557  0.0739  0.1524
 3590TIP3    H132261   2.854   4.195  15.459 -0.9840 -0.2092 -1.6375
 3590TIP3    H232262   2.736   4.287  15.432 -0.0498  1.5576  0.0236
 3591TIP3   OH232263   6.783   2.957  13.774  0.3936  0.4458  0.1920
 3591TIP3    H132264   6.766   3.026  13.838 -0.9469  1.0021 -0.7219
 3591TIP3    H232265   6.865   2.983  13.733 -1.8790  3.7706 -2.8662
 3592TIP3   OH232266   4.589   3.765  14.484  0.0561 -0.2738  0.3143
 3592TIP3    H132267   4.521   3.815  14.530  0.5505 -0.5337  1.3740
 3592TIP3    H232268   4.551   3.677  14.475  0.1340 -0.3494  0.6753
 3593TIP3   OH232269   0.279   0.035  14.051  0.5352  0.0741 -0.1392
 3593TIP3    H132270   0.262   0.095  13.979  0.1418 -0.6346 -0.6426
 3593TIP3    H232271   0.245   0.081  14.129  0.0715  0.4280 -0.5436
 3594TIP3   OH232272   0.205   4.011  15.732 -0.0121  0.8048  0.1980
 3594TIP3    H132273   0.193   4.097  15.772 -2.0622  0.2919  0.7546
 3594TIP3    H232274   0.161   4.018  15.647  0.0041  0.3577  0.1520
 3595TIP3   OH232275   5.703   6.637  11.823  0.3861  0.3842  0.2129
 3595TIP3    H132276   5.612   6.634  11.853  0.2312  1.1436 -0.1483
 3595TIP3    H232277   5.755   6.626  11.902 -0.0225  0.5342  0.5063
 3596TIP3   OH232278   1.281   1.979   0.143  0.2685  0.0127  0.4453
 3596TIP3    H132279   1.289   1.885   0.125  0.0739 -0.1225  1.0327
 3596TIP3    H232280   1.187   1.995   0.145  0.3068  0.3519 -0.2852
 3597TIP3   OH232281   4.139   3.023  16.304  0.2114  0.2751 -0.0352
 3597TIP3    H132282   4.183   2.988  16.381 -2.7840 -1.3675  1.0979
 3597TIP3    H232283   4.131   3.117  16.321  2.5082  0.5219 -0.0032
 3598TIP3   OH232284   4.315   5.470   5.104  0.0999 -0.3531 -0.3615
 3598TIP3    H132285   4.329   5.546   5.161  2.3838 -1.1766  0.2663
 3598TIP3    H232286   4.339   5.395   5.158 -0.2670 -1.3822 -1.5799
 3599TIP3   OH232287   6.436   4.567   3.757  0.6842  0.4711  0.4809
 3599TIP3    H132288   6.468   4.610   3.678 -0.2861 -0.4073 -0.4289
 3599TIP3    H232289   6.468   4.477   3.750 -2.4111 -0.6719 -0.8687
 3600TIP3   OH232290   3.054   4.707  13.914  0.3450 -0.2664  0.0271
 3600TIP3    H132291   3.109   4.646  13.865 -0.9323 -1.0420 -0.4721
 3600TIP3    H232292   3.038   4.662  13.998 -0.1134 -0.3620 -0.1101
 3601TIP3   OH232293   0.118   4.987  11.584  0.3018 -0.2257 -0.9924
 3601TIP3    H132294   0.051   4.949  11.641 -0.0410  1.6010 -0.0934
 3601TIP3    H232295   0.200   4.947  11.614  0.0396  0.1927  0.3865
 3602TIP3   OH232296   6.248   1.096  14.942 -0.4340  0.0310 -0.3106
 3602TIP3    H132297   6.215   1.010  14.919  0.3558 -0.6022  0.8341
 3602TIP3    H232298   6.280   1.087  15.032  2.2066  0.7329 -1.0835
 3603TIP3   OH232299   1.807   4.362  12.046 -0.2631 -0.1816  0.0169
 3603TIP3    H132300   1.799   4.457  12.057  1.3250 -0.0371  0.1248
 3603TIP3    H232301   1.844   4.331  12.128 -0.6675 -0.8901 -0.0594
 3604TIP3   OH232302   5.450   1.955   0.043  0.0099  0.4659  0.3866
 3604TIP3    H132303   5.370   1.934  -0.006  0.3248  2.5839 -1.1980
 3604TIP3    H232304   5.473   1.874   0.088 -0.6438 -1.5060 -2.5342
 3605TIP3   OH232305   0.602   6.542   2.081  0.4538 -0.4371 -0.3689
 3605TIP3    H132306   0.673   6.588   2.126  0.3592 -1.2377  0.6324
 3605TIP3    H232307   0.550   6.504   2.151 -1.3207  0.6121 -1.0730
 3606TIP3   OH232308   5.867   2.310   1.927  0.1752  0.4399  0.0441
 3606TIP3    H132309   5.838   2.243   1.866  0.4568  0.5533 -0.2177
 3606TIP3    H232310   5.953   2.282   1.955 -0.9122 -0.9030  2.3069
 3607TIP3   OH232311   0.075   0.575  16.426  0.0960 -0.2923 -0.4621
 3607TIP3    H132312   0.111   0.510  16.366  2.0595  1.0604 -0.8398
 3607TIP3    H232313   0.128   0.566  16.506 -1.4925 -1.0487  0.5516
 3608TIP3   OH232314   3.205   4.221   2.187 -0.5667 -0.4783  0.1433
 3608TIP3    H132315   3.128   4.256   2.232 -0.2397 -0.3596  0.6182
 3608TIP3    H232316   3.203   4.127   2.206 -1.8420 -0.8864 -1.7216
 3609TIP3   OH232317   4.913   1.944  17.014 -0.0261 -0.4644 -0.1917
 3609TIP3    H132318   4.954   1.902  16.938  0.7402 -2.4654  1.2514
 3609TIP3    H232319   4.850   1.880  17.046 -0.0809  0.1924  1.0841
 3610TIP3   OH232320   2.657   6.064   3.387  0.0213 -0.2563 -0.5157
 3610TIP3    H132321   2.648   6.106   3.472 -1.9059  0.1918 -0.8915
 3610TIP3    H232322   2.567   6.048   3.358  0.6097 -3.2457 -1.1085
 3611TIP3   OH232323   2.732   1.825   1.426  0.6180  0.2593 -0.3410
 3611TIP3    H132324   2.665   1.763   1.454 -0.7748  1.9808  0.2964
 3611TIP3    H232325   2.793   1.830   1.500 -0.7019  1.5602  0.7104
 3612TIP3   OH232326   3.449   5.906   5.185 -0.6776  0.2251  0.0634
 3612TIP3    H132327   3.419   5.950   5.105 -0.5574  0.2897  0.0529
 3612TIP3    H232328   3.493   5.827   5.154  0.3759  0.8224 -0.0092
 3613TIP3   OH232329   0.090   2.054   1.324 -0.1016  0.2136  0.1852
 3613TIP3    H132330   0.046   2.077   1.406 -1.5524 -0.6549 -0.3056
 3613TIP3    H232331   0.107   2.138   1.282 -1.0364  0.6025  0.5493
 3614TIP3   OH232332   1.622   6.158   4.282  0.0179  0.3068 -0.0243
 3614TIP3    H132333   1.716   6.149   4.300  0.1458  0.2876 -0.6671
 3614TIP3    H232334   1.613   6.247   4.248 -0.2801  0.4843  0.5116
 3615TIP3   OH232335   5.327   3.705  12.561  0.3986  0.8383 -0.0767
 3615TIP3    H132336   5.411   3.669  12.590 -1.0222 -1.8608  1.0789
 3615TIP3    H232337   5.280   3.630  12.525 -2.1937  1.8211  0.9827
 3616TIP3   OH232338   3.761   4.300  14.743 -0.0058 -0.0014 -0.3804
 3616TIP3    H132339   3.699   4.297  14.670  0.4143 -0.7168 -0.7137
 3616TIP3    H232340   3.744   4.385  14.786 -0.6643  0.1547 -0.9405
 3617TIP3   OH232341   2.050   1.366   2.606  0.5326 -0.4822  0.4931
 3617TIP3    H132342   1.960   1.370   2.575  1.3801  0.8482 -1.9983
 3617TIP3    H232343   2.046   1.309   2.683 -2.3359 -0.8142  0.1934
 3618TIP3   OH232344   5.179   4.521  14.378  0.7113 -0.8158 -0.0704
 3618TIP3    H132345   5.227   4.549  14.300 -1.3343  2.6818 -0.2701
 3618TIP3    H232346   5.088   4.515  14.348  0.0512 -0.6228  1.7911
 3619TIP3   OH232347   3.480   5.090  15.429 -0.0512  0.3139 -0.7268
 3619TIP3    H132348   3.395   5.135  15.431  0.0226  0.4691  1.6577
 3619TIP3    H232349   3.544   5.161  15.425 -0.0111  0.3169 -0.1868
 3620TIP3   OH232350   2.388   5.340   6.230 -0.0010 -0.1106  1.0368
 3620TIP3    H132351   2.480   5.324   6.252  0.7223  0.6539 -1.1426
 3620TIP3    H232352   2.355   5.394   6.302  2.0652  1.9120  0.6029
 3621TIP3   OH232353   6.245   1.692   0.482 -0.0397 -0.1168  0.6677
 3621TIP3    H132354   6.272   1.601   0.469  0.3909  0.0664  0.2530
 3621TIP3    H232355   6.321   1.744   0.455 -0.6716  0.3959 -0.1696
 3622TIP3   OH232356   2.849   0.406   3.029  0.2388  0.3909 -0.7040
 3622TIP3    H132357   2.802   0.483   3.062 -0.2694  0.9244 -2.5966
 3622TIP3    H232358   2.834   0.339   3.097  0.2037  1.7494  0.6886
 3623TIP3   OH232359   0.785   1.430   4.854  0.4281 -0.2363 -0.0185
 3623TIP3    H132360   0.736   1.372   4.796  2.1036 -1.2102 -0.5192
 3623TIP3    H232361   0.850   1.472   4.797 -0.6017  2.0334  0.3682
 3624TIP3   OH232362   4.445   1.024  12.527  0.6163 -0.1650  1.1097
 3624TIP3    H132363   4.447   1.078  12.606 -1.3712  1.7247  0.0018
 3624TIP3    H232364   4.506   1.068  12.467 -0.5251  0.5677  0.4306
 3625TIP3   OH232365   0.166   0.841   4.746  0.9452 -0.7724 -0.5000
 3625TIP3    H132366   0.083   0.878   4.718  0.8717 -0.5418  0.0214
 3625TIP3    H232367   0.143   0.773   4.809  1.0720 -1.8017 -1.5293
 3626TIP3   OH232368   2.961   5.074  10.551  0.0857  0.4628 -0.0600
 3626TIP3    H132369   3.035   5.107  10.602  0.6602 -2.7447  1.3912
 3626TIP3    H232370   2.991   4.991  10.516 -1.1659  1.3961 -3.7753
 3627TIP3   OH232371   1.351   4.377   2.692  0.0962  0.9613  1.0128
 3627TIP3    H132372   1.337   4.468   2.717 -0.8632  1.0665  0.1267
 3627TIP3    H232373   1.368   4.380   2.598  1.2512  0.3353  1.1854
 3628TIP3   OH232374   6.287   2.556  13.481  0.0219 -0.0172  0.1281
 3628TIP3    H132375   6.288   2.608  13.562 -0.1251 -0.6416  0.5391
 3628TIP3    H232376   6.324   2.614  13.415 -0.4497  0.7244  0.5043
 3629TIP3   OH232377   5.156   4.650   0.540 -0.8805  0.0032  0.3953
 3629TIP3    H132378   5.140   4.564   0.580 -0.0312 -0.3894 -0.0710
 3629TIP3    H232379   5.140   4.635   0.447  2.3796 -0.5401 -0.1884
 3630TIP3   OH232380   4.743   0.218   3.290  0.7383  0.1040  0.4409
 3630TIP3    H132381   4.821   0.168   3.266 -0.2921 -2.9408  2.7654
 3630TIP3    H232382   4.691   0.221   3.209  1.2540 -1.8963 -0.0112
 3631TIP3   OH232383   5.272   1.920  11.241  0.6235 -0.5863  0.0762
 3631TIP3    H132384   5.229   1.837  11.220  1.3056 -0.6651 -1.1228
 3631TIP3    H232385   5.218   1.987  11.199  0.8770 -0.5606 -0.2127
 3632TIP3   OH232386   0.576   4.944   4.307 -0.4677  0.6890 -0.0660
 3632TIP3    H132387   0.481   4.957   4.310 -0.5622  0.2175 -0.7202
 3632TIP3    H232388   0.604   4.947   4.399 -1.1304  0.7442  0.1370
 3633TIP3   OH232389   3.937   1.155   3.503  0.1027 -0.7481  0.4594
 3633TIP3    H132390   3.890   1.238   3.515 -0.2866 -1.0990  1.5211
 3633TIP3    H232391   3.905   1.121   3.420  1.9222  1.2068 -1.1514
 3634TIP3   OH232392   5.733   1.947  13.805  0.4372 -0.4205  0.3270
 3634TIP3    H132393   5.739   2.035  13.843 -0.5514  0.8155 -2.1719
 3634TIP3    H232394   5.675   1.899  13.864 -1.0055  1.3739  0.4511
 3635TIP3   OH232395   3.853   2.027   5.439 -0.4765 -0.3543  0.0064
 3635TIP3    H132396   3.778   1.987   5.483 -0.5125 -0.5272 -0.2106
 3635TIP3    H232397   3.896   2.078   5.507 -1.1743  0.2972 -0.0339
 3636TIP3   OH232398   1.255   4.425   4.229 -0.3487 -0.4897 -0.0805
 3636TIP3    H132399   1.244   4.488   4.158 -0.4135 -0.5063 -0.0850
 3636TIP3    H232400   1.215   4.345   4.196 -0.9651 -0.3125  0.2304
 3637TIP3   OH232401   0.192   6.585  16.467  0.1150 -0.1872  0.1039
 3637TIP3    H132402   0.214   6.652  16.531 -0.2348  0.5739 -0.5521
 3637TIP3    H232403   0.236   6.506  16.499 -0.4320  0.0484  1.5204
 3638TIP3   OH232404   4.148   2.236  15.330 -0.3613 -0.1515  0.2406
 3638TIP3    H132405   4.206   2.182  15.277  0.0198 -0.4781  0.9723
 3638TIP3    H232406   4.075   2.258  15.272 -0.4619 -1.3473 -0.1045
 3639TIP3   OH232407   3.259   2.931  12.670  0.2966  0.5995 -0.0370
 3639TIP3    H132408   3.338   2.979  12.645 -0.4300  1.6800 -0.3520
 3639TIP3    H232409   3.195   2.955  12.603  0.2142 -1.7829 -0.9120
 3640TIP3   OH232410   1.781   5.961  14.029  0.2716 -0.1632  0.2159
 3640TIP3    H132411   1.802   5.969  14.122  2.2026 -1.1070 -0.0774
 3640TIP3    H232412   1.762   6.050  14.001 -0.9377  0.0541  1.6231
 3641TIP3   OH232413   0.429   3.425  13.880 -0.0307  0.4103 -0.3842
 3641TIP3    H132414   0.389   3.480  13.813 -1.5106 -1.1256 -0.8052
 3641TIP3    H232415   0.485   3.364  13.832 -0.7751 -0.4317 -0.1956
 3642TIP3   OH232416   0.271   4.276   4.365  0.4693 -0.3322 -0.2488
 3642TIP3    H132417   0.296   4.341   4.299  1.1834  0.9298  1.1981
 3642TIP3    H232418   0.175   4.280   4.368  0.5252  1.0136  0.1447
 3643TIP3   OH232419   5.434   6.741  11.616  0.1334  0.2834  0.7551
 3643TIP3    H132420   5.340   6.756  11.603  0.4268  1.6903  0.0036
 3643TIP3    H232421   5.472   6.753  11.529  0.9020 -1.3994  0.8241
 3644TIP3   OH232422   6.257   3.440  15.297 -0.3839 -0.4559 -0.0864
 3644TIP3    H132423   6.279   3.348  15.306 -1.2111 -0.6543  0.0403
 3644TIP3    H232424   6.166   3.440  15.265 -0.9088  0.3211  1.3191
 3645TIP3   OH232425   0.578   4.395   6.017 -0.6248  0.0909 -0.2095
 3645TIP3    H132426   0.649   4.349   5.972 -1.2627  1.0761 -2.3579
 3645TIP3    H232427   0.523   4.430   5.946 -2.5731  0.4225  1.3691
 3646TIP3   OH232428   6.442   3.565  16.624 -0.4640  0.2838  0.7625
 3646TIP3    H132429   6.367   3.583  16.681 -0.2223 -0.0268  1.1881
 3646TIP3    H232430   6.495   3.502  16.674 -0.4238 -0.2645  0.0493
 3647TIP3   OH232431   6.776   1.344  16.622  0.0225 -0.0055 -0.1861
 3647TIP3    H132432   6.814   1.320  16.706  0.0638 -0.6799 -0.3918
 3647TIP3    H232433   6.828   1.297  16.557 -0.5929 -0.2317 -0.5285
 3648TIP3   OH232434   5.612   0.651  14.774  0.5945  0.1561  0.3330
 3648TIP3    H132435   5.681   0.715  14.793  3.0650 -2.3975  0.6464
 3648TIP3    H232436   5.602   0.602  14.855  0.3160 -1.1980 -0.4871
 3649TIP3   OH232437   5.715   6.799   3.017 -0.6442 -0.5794 -0.0833
 3649TIP3    H132438   5.776   6.780   2.945 -0.5977  0.8893 -0.4513
 3649TIP3    H232439   5.738   6.735   3.085  0.6363 -0.7076 -0.6126
 3650TIP3   OH232440   4.625   0.593  16.744  0.3985  0.3652 -0.3446
 3650TIP3    H132441   4.558   0.623  16.805  1.6212 -2.2268  2.4972
 3650TIP3    H232442   4.576   0.553  16.672 -1.1664 -0.7394  1.2652
 3651TIP3   OH232443   1.559   5.872   3.098  0.6166 -0.5064 -0.5987
 3651TIP3    H132444   1.654   5.888   3.100  0.4668  0.6147  2.2310
 3651TIP3    H232445   1.520   5.959   3.098 -0.3958 -0.9487 -0.3562
 3652TIP3   OH232446   0.199   3.839   3.461 -0.7342 -0.9654 -0.7717
 3652TIP3    H132447   0.211   3.799   3.547 -2.9045  0.1088  0.0952
 3652TIP3    H232448   0.270   3.903   3.454 -1.3207 -0.0615  0.8783
 3653TIP3   OH232449   6.449   6.100   5.493 -0.8511  0.0786  1.1303
 3653TIP3    H132450   6.375   6.161   5.489 -1.0166 -0.1661  0.0454
 3653TIP3    H232451   6.473   6.087   5.401  0.3348 -0.0988  1.4561
 3654TIP3   OH232452   4.180   4.356   0.266  0.3977 -0.7429 -0.0639
 3654TIP3    H132453   4.131   4.401   0.334 -1.3917 -2.6219  0.0112
 3654TIP3    H232454   4.223   4.283   0.312  2.4710  0.2568 -0.3177
 3655TIP3   OH232455   2.830   5.257  12.620 -0.3177  0.4320  0.1366
 3655TIP3    H132456   2.821   5.338  12.671 -3.9428  0.1000  0.3075
 3655TIP3    H232457   2.880   5.198  12.676  0.9405  1.9645  0.7145
 3656TIP3   OH232458   6.341   0.213  12.033  0.4157 -0.3263  0.4618
 3656TIP3    H132459   6.416   0.168  12.073 -0.9602 -2.4466  0.8134
 3656TIP3    H232460   6.372   0.302  12.018  2.8512 -1.0048  1.0119
 3657TIP3   OH232461   0.490   5.645  11.435 -0.2531  0.1036  0.3350
 3657TIP3    H132462   0.499   5.666  11.528  1.5168 -0.1193  0.2407
 3657TIP3    H232463   0.446   5.560  11.435  0.1696 -0.1242  0.9781
 3658TIP3   OH232464   1.533   2.410  12.584  0.4370 -0.2091 -0.4137
 3658TIP3    H132465   1.454   2.367  12.551 -1.8656  2.7138  0.8944
 3658TIP3    H232466   1.538   2.385  12.676  1.7198 -1.1870 -0.7067
 3659TIP3   OH232467   4.092   6.793   2.041 -0.4492  0.1020 -0.3950
 3659TIP3    H132468   4.186   6.804   2.028 -0.5169 -0.6718 -1.8740
 3659TIP3    H232469   4.054   6.813   1.955 -1.6536  0.5507  0.2221
 3660TIP3   OH232470   6.765   6.645  13.021  0.1450 -0.2290 -0.1060
 3660TIP3    H132471   6.818   6.567  13.037 -0.3710 -0.1696  2.2276
 3660TIP3    H232472   6.829   6.714  13.003  1.0889  0.0438  3.4837
 3661TIP3   OH232473   0.094   2.534  11.359  0.2178  0.0375 -0.0032
 3661TIP3    H132474   0.065   2.623  11.337  0.9362  0.4686  0.7349
 3661TIP3    H232475   0.022   2.499  11.413  0.4576  0.6238  0.7190
 3662TIP3   OH232476   2.296   0.667   1.963  0.1110  0.1645  0.0330
 3662TIP3    H132477   2.206   0.684   1.935  0.0777 -2.0429 -1.5244
 3662TIP3    H232478   2.290   0.591   2.020  0.9450  0.3623  0.4077
 3663TIP3   OH232479   4.238   5.155  16.841 -0.9797  0.6371  0.0081
 3663TIP3    H132480   4.225   5.114  16.926  0.1197  0.0020 -0.1109
 3663TIP3    H232481   4.150   5.173  16.809 -1.4066  0.9202  1.2879
 3664TIP3   OH232482   0.576   1.204   5.912 -0.0145 -0.2751  0.6374
 3664TIP3    H132483   0.505   1.196   5.848 -0.3628  1.0024  0.8355
 3664TIP3    H232484   0.538   1.175   5.995 -0.1820  0.0052  0.6601
 3665TIP3   OH232485   2.827   0.366   3.712  0.7884  0.2201  0.3611
 3665TIP3    H132486   2.914   0.384   3.748  0.9805 -1.5339  0.8599
 3665TIP3    H232487   2.800   0.285   3.754 -1.9156  1.6604  1.6250
 3666TIP3   OH232488   5.021   6.505  16.827 -0.5290 -0.5288  0.4165
 3666TIP3    H132489   5.026   6.443  16.755 -0.0320 -0.7920  0.6752
 3666TIP3    H232490   5.092   6.481  16.885  0.0210  0.6231  0.2606
 3667TIP3   OH232491   6.691   5.088   2.395  0.3365  0.3122  0.1335
 3667TIP3    H132492   6.734   5.059   2.476  2.0426  0.1999 -0.7700
 3667TIP3    H232493   6.673   5.181   2.408  0.2402  0.2038  0.7858
 3668TIP3   OH232494   0.423   0.782  13.354  0.6227  0.2892  0.3082
 3668TIP3    H132495   0.518   0.782  13.367  0.8373 -2.3562 -0.6268
 3668TIP3    H232496   0.409   0.838  13.278  1.7227 -1.0376 -0.9197
 3669TIP3   OH232497   4.817   2.280  10.970 -0.1551 -0.3584  0.1730
 3669TIP3    H132498   4.903   2.304  10.936  0.4036 -0.8130  1.2249
 3669TIP3    H232499   4.819   2.184  10.976  0.6778 -0.2693  3.6322
 3670TIP3   OH232500   0.588   0.683   4.192  0.1318  0.2197 -0.0001
 3670TIP3    H132501   0.587   0.588   4.208 -0.8533  0.1984 -0.0683
 3670TIP3    H232502   0.537   0.720   4.264  1.6345  0.8556  0.7694
 3671TIP3   OH232503   2.542   2.857  13.418  0.0954 -0.4360 -0.1163
 3671TIP3    H132504   2.570   2.929  13.363  0.4184 -0.9290 -0.6078
 3671TIP3    H232505   2.589   2.870  13.501  0.9611 -0.6543 -0.5610
 3672TIP3   OH232506   1.589   5.511  11.555  0.6485 -0.5996  0.0289
 3672TIP3    H132507   1.678   5.546  11.555  0.8822 -1.1783 -0.6476
 3672TIP3    H232508   1.586   5.453  11.479 -0.1654 -0.9458  0.3175
 3673TIP3   OH232509   2.619   1.515   6.570  0.1483 -0.0454  0.0530
 3673TIP3    H132510   2.699   1.558   6.538 -0.3897  1.1176  0.2043
 3673TIP3    H232511   2.612   1.541   6.662  0.9787 -2.3024  0.8189
 3674TIP3   OH232512   0.467   4.664  15.970  0.1433 -0.0127  0.2512
 3674TIP3    H132513   0.513   4.653  15.887  2.4064 -1.3118  1.5664
 3674TIP3    H232514   0.445   4.575  15.997 -1.3806  0.4527  0.6665
 3675TIP3   OH232515   0.665   3.760  13.760 -0.0028 -0.1039 -0.7102
 3675TIP3    H132516   0.667   3.826  13.690  2.1854  0.1648 -0.4668
 3675TIP3    H232517   0.595   3.789  13.817 -0.6913  0.6506 -1.8847
 3676TIP3   OH232518   5.906   3.951  11.205 -0.2239  0.8398  0.5035
 3676TIP3    H132519   5.931   3.987  11.291  0.5759  0.6721  0.3471
 3676TIP3    H232520   5.957   3.871  11.197  0.0593  1.0973 -0.3326
 3677TIP3   OH232521   6.462   6.759   4.922  0.0500  0.5071 -0.1836
 3677TIP3    H132522   6.514   6.780   5.000  3.6407  2.1083 -2.7320
 3677TIP3    H232523   6.433   6.844   4.890 -0.1328  0.0160 -1.3628
 3678TIP3   OH232524   6.562   0.910  13.438 -0.4464  0.0112 -0.0640
 3678TIP3    H132525   6.628   0.865  13.490 -0.8050  1.3830  1.6617
 3678TIP3    H232526   6.479   0.874  13.467 -0.6181  0.2794 -0.2183
 3679TIP3   OH232527   1.324   1.389   1.095  0.1911 -0.2766  0.1236
 3679TIP3    H132528   1.359   1.304   1.069 -1.6764 -0.4949 -1.9282
 3679TIP3    H232529   1.344   1.447   1.022 -1.9069  0.0510 -0.2501
 3680TIP3   OH232530   0.544   1.727  13.991  0.1154  0.0833  0.2244
 3680TIP3    H132531   0.487   1.651  14.005 -0.7465  0.8729  1.1238
 3680TIP3    H232532   0.591   1.736  14.073  0.7487  0.0962 -0.1372
 3681TIP3   OH232533   0.020   6.535  11.601  0.4575 -0.3604  0.2362
 3681TIP3    H132534   0.093   6.591  11.575 -0.5771  0.1654 -1.8235
 3681TIP3    H232535  -0.031   6.588  11.663  0.9830 -0.1233  0.4661
 3682TIP3   OH232536   5.433   4.793   0.448  0.1556 -0.3969  0.2358
 3682TIP3    H132537   5.371   4.853   0.405  1.0638  0.1280 -0.3788
 3682TIP3    H232538   5.378   4.739   0.505 -0.6521  1.3502  1.2237
 3683TIP3   OH232539   4.153   1.924   1.729  0.6225  0.4766 -0.1219
 3683TIP3    H132540   4.198   1.844   1.756  0.6709 -0.2321 -2.1144
 3683TIP3    H232541   4.061   1.908   1.751  0.0293 -1.6397 -3.3946
 3684TIP3   OH232542   0.180   4.454  13.769  0.4110  0.1553 -0.2182
 3684TIP3    H132543   0.116   4.453  13.841 -0.0959 -0.1587 -0.6697
 3684TIP3    H232544   0.180   4.545  13.740  0.6851  0.3044  0.2361
 3685TIP3   OH232545   4.730   2.323  14.937  0.4211  0.1901 -0.5185
 3685TIP3    H132546   4.730   2.395  14.874  2.4664  1.0562  0.4026
 3685TIP3    H232547   4.709   2.364  15.021 -0.1984 -0.6086 -0.2726
 3686TIP3   OH232548   4.417   5.045  13.382 -0.5437  0.2238 -0.7213
 3686TIP3    H132549   4.427   4.955  13.414  1.4665  0.2401 -1.2130
 3686TIP3    H232550   4.504   5.070  13.352 -1.2845  2.0032 -1.5205
 3687TIP3   OH232551   2.980   0.697  17.078  0.4191  0.1129 -0.1626
 3687TIP3    H132552   2.964   0.665  16.989 -1.5638  0.6319 -0.0461
 3687TIP3    H232553   3.055   0.647  17.108 -0.1075 -1.5247 -1.4197
 3688TIP3   OH232554   2.499   0.527   1.793 -0.5056 -0.0407  0.1203
 3688TIP3    H132555   2.434   0.586   1.831 -0.6065 -0.3344  0.4133
 3688TIP3    H232556   2.448   0.451   1.765 -0.5337  0.4687 -1.2690
 3689TIP3   OH232557   5.658   2.769   5.400 -0.0571 -0.3567  0.1623
 3689TIP3    H132558   5.655   2.827   5.477 -1.6964  1.2943 -1.0630
 3689TIP3    H232559   5.751   2.750   5.389  0.3028  0.1217  2.0062
 3690TIP3   OH232560   5.101   4.735  12.650  0.1795  0.6272 -0.9912
 3690TIP3    H132561   5.186   4.692  12.657  0.4735  1.2512 -0.6264
 3690TIP3    H232562   5.047   4.673  12.601  0.2687 -0.6215  0.4385
 3691TIP3   OH232563   2.861   0.538   3.403 -0.3626 -0.1690 -0.3735
 3691TIP3    H132564   2.946   0.495   3.413  0.2603  0.7162 -1.6003
 3691TIP3    H232565   2.833   0.557   3.493  0.9584 -0.0519  0.0352
 3692TIP3   OH232566   4.313   5.610   6.629  0.1775  0.3362 -0.0813
 3692TIP3    H132567   4.370   5.641   6.699  0.0852  1.5056 -0.5059
 3692TIP3    H232568   4.373   5.580   6.560  0.3063  1.2202 -0.3755
 3693TIP3   OH232569   1.009   6.037  10.710 -0.1314 -0.4901 -0.1357
 3693TIP3    H132570   0.942   6.009  10.648  1.1164 -2.3047 -0.7531
 3693TIP3    H232571   0.993   6.131  10.722 -2.9051 -0.9166 -0.0001
 3694TIP3   OH232572   1.858   6.836   1.536 -0.3822 -0.2232  0.1788
 3694TIP3    H132573   1.896   6.766   1.484  0.4552  0.2943  0.0728
 3694TIP3    H232574   1.908   6.836   1.618  0.4776  1.0302 -0.3100
 3695TIP3   OH232575   3.880   0.967   3.882  0.1738  0.2727 -0.2170
 3695TIP3    H132576   3.827   0.895   3.848 -0.8443  0.5088  0.8217
 3695TIP3    H232577   3.825   1.044   3.873  0.0672  0.4195  1.4485
 3696TIP3   OH232578   2.330   6.358   5.101 -0.3850 -0.1604 -0.1782
 3696TIP3    H132579   2.283   6.304   5.165  0.4790 -0.9888 -0.2427
 3696TIP3    H232580   2.416   6.373   5.140 -0.3023  0.4320 -0.5658
 3697TIP3   OH232581   4.862   5.508   5.587  0.0792 -0.3687 -1.2228
 3697TIP3    H132582   4.943   5.556   5.607 -0.3268 -0.5582  1.1290
 3697TIP3    H232583   4.792   5.565   5.617 -0.4266 -2.1401  1.2906
 3698TIP3   OH232584   2.817   1.003   3.405  0.2843 -0.3398  0.1754
 3698TIP3    H132585   2.873   0.928   3.425  0.3571 -0.0241  1.2340
 3698TIP3    H232586   2.746   0.997   3.469  0.1988  0.3883  0.1578
 3699TIP3   OH232587   5.497   6.768  13.518  0.3423  0.4484 -0.2910
 3699TIP3    H132588   5.485   6.829  13.445 -2.6258  0.9280  0.4585
 3699TIP3    H232589   5.552   6.816  13.580 -0.8780  1.9306 -0.2788
 3700TIP3   OH232590   3.772   2.209   0.664  0.3187  0.2349 -0.2232
 3700TIP3    H132591   3.680   2.188   0.680  0.2198  0.8706  0.0693
 3700TIP3    H232592   3.788   2.178   0.575 -0.0885 -0.1705 -0.1628
 3701TIP3   OH232593   6.026   1.075   5.425 -0.0286 -0.7317  0.1091
 3701TIP3    H132594   5.935   1.103   5.436 -0.1393 -1.2042  0.4222
 3701TIP3    H232595   6.028   1.032   5.339  0.5515  1.8252 -1.2512
 3702TIP3   OH232596   0.274   6.714  13.476 -0.2213  0.6590  0.6320
 3702TIP3    H132597   0.304   6.726  13.567  3.1222 -1.6881  0.0145
 3702TIP3    H232598   0.352   6.687  13.428 -2.3896 -0.8182 -2.4197
 3703TIP3   OH232599   3.046   1.015  11.469 -0.2218  0.0223  0.0474
 3703TIP3    H132600   3.059   1.086  11.533  0.3017  0.7137 -0.8099
 3703TIP3    H232601   3.128   1.011  11.421 -0.6297 -0.4546 -0.6277
 3704TIP3   OH232602   4.779   6.676  12.151  0.5661  0.0408  0.1310
 3704TIP3    H132603   4.774   6.587  12.186 -0.0525  0.8319  2.1728
 3704TIP3    H232604   4.800   6.731  12.226  1.1238  1.6263 -1.1239
 3705TIP3   OH232605   5.273   4.178   6.042 -0.2063 -0.2904 -0.6626
 3705TIP3    H132606   5.212   4.153   6.111  1.3363 -1.3224  0.4102
 3705TIP3    H232607   5.360   4.166   6.081  0.7037  1.5169 -1.9791
 3706TIP3   OH232608   3.358   6.007   4.082  0.3640 -0.0961 -0.0433
 3706TIP3    H132609   3.318   6.093   4.073 -0.3152 -0.1205  2.0185
 3706TIP3    H232610   3.309   5.951   4.021  1.0489  1.0021 -1.6534
 3707TIP3   OH232611   0.628   2.019  10.770  0.4961  0.3421 -0.0059
 3707TIP3    H132612   0.676   1.954  10.820 -0.2959 -1.0972 -1.0457
 3707TIP3    H232613   0.671   2.102  10.790  3.0687 -0.7842 -0.4965
 3708TIP3   OH232614   4.319   2.280  11.147  0.5173 -0.2353  0.1661
 3708TIP3    H132615   4.239   2.331  11.137  0.9294  0.2029 -1.1306
 3708TIP3    H232616   4.322   2.257  11.240  0.0398  1.6351  0.6731
 3709TIP3   OH232617   5.790   0.387   4.216  0.4548  0.7867  0.1938
 3709TIP3    H132618   5.736   0.460   4.185 -0.8699  0.0336  0.6346
 3709TIP3    H232619   5.735   0.344   4.282  1.2520 -0.5591  0.0007
 3710TIP3   OH232620   4.011   1.665  14.521 -0.1274 -0.2719 -0.1907
 3710TIP3    H132621   4.094   1.712  14.528  0.1078 -0.6718 -0.2881
 3710TIP3    H232622   3.987   1.643  14.611 -0.2679  0.0823 -0.1399
 3711TIP3   OH232623   3.887   4.820  15.791  0.7098 -0.0736  0.6617
 3711TIP3    H132624   3.866   4.910  15.767 -0.6685 -1.0493 -2.2823
 3711TIP3    H232625   3.812   4.769  15.760  1.6940 -2.3027  1.7552
 3712TIP3   OH232626   3.207   2.905  16.103 -0.5336 -0.2138 -0.4318
 3712TIP3    H132627   3.267   2.922  16.030 -2.1945  1.1436 -1.5717
 3712TIP3    H232628   3.219   2.812  16.122  1.7050 -0.0578 -0.7708
 3713TIP3   OH232629   0.539   0.873   2.654  0.2515 -0.2324 -0.4648
 3713TIP3    H132630   0.469   0.935   2.673 -0.3904 -0.9878 -0.3205
 3713TIP3    H232631   0.499   0.808   2.596  0.7806 -0.7575 -0.2575
 3714TIP3   OH232632   3.325   3.126   5.581  0.0804  0.4314  0.3910
 3714TIP3    H132633   3.296   3.214   5.606  0.9900  0.7589  0.3387
 3714TIP3    H232634   3.380   3.140   5.505 -0.3012 -0.2645 -0.0271
 3715TIP3   OH232635   0.422   2.389   5.696 -0.6969 -0.3841 -0.1041
 3715TIP3    H132636   0.401   2.301   5.665  2.0335 -0.7816 -1.0895
 3715TIP3    H232637   0.431   2.380   5.791 -0.5997 -1.1287 -0.1783
 3716TIP3   OH232638   0.027   3.178   3.732 -0.0179  0.0356 -0.3325
 3716TIP3    H132639   0.019   3.253   3.674 -1.7217 -1.1322 -1.7168
 3716TIP3    H232640   0.080   3.209   3.806  1.1769  1.9102 -1.9136
 3717TIP3   OH232641   2.574   1.125  12.766  0.3374  0.2933 -0.2330
 3717TIP3    H132642   2.622   1.203  12.738  0.0231  0.4040 -0.4705
 3717TIP3    H232643   2.604   1.056  12.706 -1.3895  0.8488 -1.8307
 3718TIP3   OH232644   4.734   6.071   6.008 -0.2863 -0.1301  0.5453
 3718TIP3    H132645   4.751   6.165   6.011  0.4337 -0.2718  0.9592
 3718TIP3    H232646   4.643   6.062   6.039  0.0418  0.3223  1.6745
 3719TIP3   OH232647   5.956   4.066  16.560 -0.1503  0.2298 -0.2988
 3719TIP3    H132648   5.970   4.122  16.636 -0.8057  0.6674 -0.4952
 3719TIP3    H232649   5.925   3.983  16.597 -0.0551  0.2960 -0.0672
 3720TIP3   OH232650   4.689   1.275  13.835  0.1379  0.1701 -0.6929
 3720TIP3    H132651   4.734   1.300  13.916 -1.0511  0.9826 -0.2626
 3720TIP3    H232652   4.691   1.354  13.782 -0.2002  0.0154 -0.9373
 3721TIP3   OH232653   4.589   3.972  16.044  0.7693  0.2045 -0.7777
 3721TIP3    H132654   4.595   3.962  15.949  1.0673 -0.4465 -0.6947
 3721TIP3    H232655   4.663   3.922  16.079 -0.9319 -1.9886 -0.0759
 3722TIP3   OH232656   6.511   3.622  15.112 -0.0840 -0.2079 -0.3565
 3722TIP3    H132657   6.537   3.698  15.164  1.1261 -0.0093 -1.1935
 3722TIP3    H232658   6.507   3.655  15.022 -2.3113 -0.4953 -0.4257
 3723TIP3   OH232659   6.378   6.114   5.815 -0.4298 -0.1443  0.1503
 3723TIP3    H132660   6.313   6.097   5.883  0.1708 -2.1516  0.2752
 3723TIP3    H232661   6.340   6.079   5.735 -1.3201  2.5906 -0.7557
 3724TIP3   OH232662   4.333   5.848  16.666  0.1554  0.3568 -0.0039
 3724TIP3    H132663   4.390   5.886  16.600  0.2943  1.6394  0.8116
 3724TIP3    H232664   4.264   5.805  16.616  0.4918  0.9213 -0.9875
 3725TIP3   OH232665   0.017   2.715   1.549  0.0384 -0.1311  0.1563
 3725TIP3    H132666  -0.070   2.753   1.559  0.6305  1.9308 -1.5789
 3725TIP3    H232667   0.002   2.631   1.505 -1.2018 -1.2885  2.5978
 3726TIP3   OH232668   1.095   4.131   4.526  0.1948 -0.3348  0.1628
 3726TIP3    H132669   1.067   4.110   4.437  0.8894 -0.0545 -0.1234
 3726TIP3    H232670   1.066   4.222   4.539  0.1313 -0.3616  0.2102
 3727TIP3   OH232671   1.739   0.358   4.594 -0.6972  0.4076  0.0796
 3727TIP3    H132672   1.806   0.411   4.550 -1.1393  0.0271 -1.0895
 3727TIP3    H232673   1.717   0.290   4.531 -1.1501 -0.3406  1.0235
 3728TIP3   OH232674   2.488   4.459  16.953  0.3495 -0.1167  0.3693
 3728TIP3    H132675   2.518   4.496  17.036 -0.7182  0.8664  0.3282
 3728TIP3    H232676   2.424   4.392  16.979  2.2709 -2.0412  0.4438
 3729TIP3   OH232677   4.936   6.167  12.099 -0.4747  0.7041  0.0299
 3729TIP3    H132678   4.935   6.136  12.009 -0.1747  2.2362 -0.5381
 3729TIP3    H232679   4.861   6.124  12.140 -1.2783  0.8123 -1.2584
 3730TIP3   OH232680   5.561   6.349   3.174 -0.1172 -0.4129  0.3773
 3730TIP3    H132681   5.581   6.343   3.267 -0.7330  0.6931  0.5935
 3730TIP3    H232682   5.516   6.433   3.164 -0.1743 -0.5730 -0.8956
 3731TIP3   OH232683   0.190   2.743  17.065  0.3581 -0.0424  0.6195
 3731TIP3    H132684   0.215   2.775  17.152 -1.3964  0.4803  0.9856
 3731TIP3    H232685   0.186   2.822  17.011  1.0343 -0.3158  0.1648
 3732TIP3   OH232686   5.637   5.411  15.246 -0.3619 -0.2372  0.3845
 3732TIP3    H132687   5.632   5.396  15.341 -1.7200 -2.1244  0.0690
 3732TIP3    H232688   5.546   5.409  15.217  0.0942 -0.5853 -1.0847
 3733TIP3   OH232689   1.340   5.087   2.051  0.5526 -0.5222 -0.2788
 3733TIP3    H132690   1.431   5.085   2.082  0.3322  0.8933  0.5053
 3733TIP3    H232691   1.308   4.998   2.067  1.4752 -0.7440  0.4352
 3734TIP3   OH232692   4.812   5.394   3.629 -0.2869  0.1852  0.3097
 3734TIP3    H132693   4.778   5.370   3.543 -0.8527  0.5468  0.4268
 3734TIP3    H232694   4.779   5.482   3.644  3.5557  2.1459 -1.1227
 3735TIP3   OH232695   4.896   1.475  12.324  0.4893  0.9821  0.7767
 3735TIP3    H132696   4.831   1.488  12.393  0.1863  1.0704  0.4764
 3735TIP3    H232697   4.924   1.384  12.335 -2.4753 -0.3579 -1.4187
 3736TIP3   OH232698   5.153   6.565  15.861 -0.3050 -0.4876  0.4063
 3736TIP3    H132699   5.204   6.560  15.780 -1.6665  0.0497 -0.5397
 3736TIP3    H232700   5.214   6.599  15.926  0.2495  1.3831 -0.9906
 3737TIP3   OH232701   4.638   2.073  12.667  0.1763 -0.6653  0.1993
 3737TIP3    H132702   4.708   2.009  12.673  1.3871  0.6445  0.4549
 3737TIP3    H232703   4.661   2.128  12.592 -2.0383 -1.8599 -1.5007
 3738TIP3   OH232704   5.028   3.876   1.506  0.2086 -1.1335 -0.3920
 3738TIP3    H132705   5.037   3.909   1.416 -0.4789 -1.4257 -0.5747
 3738TIP3    H232706   5.001   3.784   1.495  2.1540 -1.8308  0.0971
 3739TIP3   OH232707   2.320   2.147  16.052 -0.2230 -0.5421 -0.1042
 3739TIP3    H132708   2.381   2.073  16.053  0.1570 -0.2298 -0.1298
 3739TIP3    H232709   2.375   2.224  16.040 -0.7391 -0.3899 -1.7852
 3740TIP3   OH232710   0.661   5.728  12.072  0.5123 -0.4849  0.0205
 3740TIP3    H132711   0.586   5.739  12.014  0.1771  1.0569  0.6984
 3740TIP3    H232712   0.670   5.812  12.117  3.1801 -0.2841 -0.6689
 3741TIP3   OH232713   1.953   0.448   0.342 -0.1203 -0.4329  0.0013
 3741TIP3    H132714   1.861   0.432   0.364  0.0352 -0.7917  0.4102
 3741TIP3    H232715   1.981   0.367   0.298 -0.6882  0.6117 -2.4562
 3742TIP3   OH232716   3.969   1.586  15.415  0.1754  0.0616  0.0198
 3742TIP3    H132717   4.034   1.518  15.398 -0.1081 -0.8367  2.2811
 3742TIP3    H232718   4.017   1.654  15.461 -0.0032  0.4682 -0.3819
 3743TIP3   OH232719   1.256   4.874   2.899  0.2002  0.0526 -0.4369
 3743TIP3    H132720   1.341   4.906   2.928  0.9129 -2.0246 -0.0140
 3743TIP3    H232721   1.276   4.798   2.844 -1.3245  0.8900 -2.2653
 3744TIP3   OH232722   1.089   5.328   2.565  0.4946  0.6807 -0.1299
 3744TIP3    H132723   1.171   5.376   2.572  2.1749 -1.9874 -0.3468
 3744TIP3    H232724   1.064   5.310   2.656 -0.1179  1.7908 -0.0483
 3745TIP3   OH232725   5.801   2.731  12.346  1.1618  0.3434  0.1161
 3745TIP3    H132726   5.891   2.734  12.379  2.1070  0.1171 -2.1865
 3745TIP3    H232727   5.799   2.654  12.289 -0.2926  0.7277 -0.3960
 3746TIP3   OH232728   6.308   2.166  14.977 -0.4897 -0.0243 -0.1361
 3746TIP3    H132729   6.382   2.192  15.032 -0.4193  2.0855 -1.1438
 3746TIP3    H232730   6.340   2.174  14.888 -0.9948 -2.1793 -0.5497
 3747TIP3   OH232731   0.337   3.820   4.408  0.1975 -0.2115  0.2870
 3747TIP3    H132732   0.260   3.827   4.464  1.1925 -0.0325  1.7173
 3747TIP3    H232733   0.387   3.747   4.446  0.0212 -1.3481 -1.5580
 3748TIP3   OH232734   4.305   4.613  13.795 -0.1254 -0.2794  0.0236
 3748TIP3    H132735   4.368   4.650  13.858  1.4516  0.4083 -1.8552
 3748TIP3    H232736   4.220   4.626  13.836  0.7988  0.5821  1.7956
 3749TIP3   OH232737   4.565   1.712  15.378  0.5309 -0.0282 -0.3113
 3749TIP3    H132738   4.473   1.687  15.368  0.6594 -0.2692 -0.9389
 3749TIP3    H232739   4.609   1.631  15.404  0.6079  0.0343 -0.2468
 3750TIP3   OH232740   0.122   2.523   2.297 -0.1565  0.4025 -0.2722
 3750TIP3    H132741   0.052   2.511   2.233 -0.1411  0.6591 -0.3362
 3750TIP3    H232742   0.122   2.442   2.348 -0.8484  0.6231  0.0778
 3751TIP3   OH232743   4.976   4.991   5.201  0.0065  0.1702 -0.3923
 3751TIP3    H132744   4.955   4.973   5.109  1.2468 -0.8541 -0.4929
 3751TIP3    H232745   5.022   4.913   5.231 -1.9016 -0.2916  1.6333
 3752TIP3   OH232746   0.829   4.996   3.038  0.1285 -0.7071 -0.5626
 3752TIP3    H132747   0.848   4.985   3.131 -0.1705  0.4016 -0.3554
 3752TIP3    H232748   0.907   5.038   3.002 -0.4081  0.4191 -0.4569
 3753TIP3   OH232749   5.429   4.914   2.026  0.2320 -0.3299  0.2830
 3753TIP3    H132750   5.410   4.982   1.961 -2.3654  0.9942  2.2311
 3753TIP3    H232751   5.365   4.845   2.008 -0.6035  0.1097  1.4471
 3754TIP3   OH232752   5.342   0.950  13.358  0.3500  0.2447  0.7507
 3754TIP3    H132753   5.303   1.016  13.415  1.6191  0.8909  0.9062
 3754TIP3    H232754   5.369   0.880  13.417 -1.9428 -0.9881  0.4895
 3755TIP3   OH232755   2.132   0.199   1.945  0.3461 -0.0222 -0.5793
 3755TIP3    H132756   2.133   0.114   1.988  0.3367  1.0170  1.6332
 3755TIP3    H232757   2.046   0.205   1.904 -0.3672 -0.3759  0.8166
 3756TIP3   OH232758   2.185   0.487  12.578  0.5003 -0.1552 -0.2919
 3756TIP3    H132759   2.279   0.503  12.575  0.2788  1.1438 -1.1764
 3756TIP3    H232760   2.160   0.511  12.668  0.7596  1.1962 -0.5522
 3757TIP3   OH232761   0.599   1.325  13.244  0.1478 -0.0359  0.7787
 3757TIP3    H132762   0.643   1.241  13.231  0.1809  0.2157 -1.0168
 3757TIP3    H232763   0.647   1.367  13.315 -0.3032 -1.8017  2.2007
 3758TIP3   OH232764   0.482   3.429  14.272 -0.2030  0.3534 -0.0049
 3758TIP3    H132765   0.417   3.451  14.206 -0.4358  0.1567  0.1541
 3758TIP3    H232766   0.484   3.334  14.274  0.1514  0.3561 -0.0643
 3759TIP3   OH232767   1.453   5.820   5.982 -0.1861 -0.3176 -0.0973
 3759TIP3    H132768   1.498   5.903   5.998 -0.9103  0.0263  0.1891
 3759TIP3    H232769   1.523   5.755   5.982  0.2990  0.1898  0.4639
 3760TIP3   OH232770   0.234   0.447  11.659  0.4753 -0.4546  0.3320
 3760TIP3    H132771   0.277   0.396  11.727  3.0884  0.9120 -0.1589
 3760TIP3    H232772   0.277   0.421  11.578  0.9436  1.4806 -0.0957
 3761TIP3   OH232773   0.495   1.458   5.574 -0.2400  0.5081 -0.2736
 3761TIP3    H132774   0.575   1.501   5.605  1.1334 -1.3589 -0.9779
 3761TIP3    H232775   0.510   1.444   5.481 -1.4372  0.1787 -0.4376
 3762TIP3   OH232776   3.518   1.886   1.997  0.0047 -0.0229 -0.0592
 3762TIP3    H132777   3.503   1.881   1.902 -1.3171 -0.8474  0.1674
 3762TIP3    H232778   3.447   1.833   2.035  1.4689 -1.0709  1.3145
 3763TIP3   OH232779   5.213   4.886   2.978 -0.0932 -0.7643  0.3926
 3763TIP3    H132780   5.231   4.799   2.940  1.4991 -0.6809  0.8634
 3763TIP3    H232781   5.258   4.947   2.920  1.2924 -0.5296  1.6523
 3764TIP3   OH232782   0.705   6.660  16.557  0.3857 -0.5769  0.0889
 3764TIP3    H132783   0.795   6.636  16.580  0.2682  1.2872  3.2116
 3764TIP3    H232784   0.656   6.579  16.566  1.4638 -1.2257  0.3631
 3765TIP3   OH232785   3.650   1.986   2.874 -0.0701 -0.0039  0.2531
 3765TIP3    H132786   3.718   1.930   2.838 -0.6472  0.1992 -1.2730
 3765TIP3    H232787   3.683   2.015   2.958  2.2085  0.9296 -0.8825
 3766TIP3   OH232788   5.090   4.058   1.798  0.7434  0.7199 -0.2703
 3766TIP3    H132789   5.072   4.149   1.775 -3.0413  0.4386  0.9086
 3766TIP3    H232790   5.073   4.009   1.717 -1.2703  0.7556  0.0899
 3767TIP3   OH232791   0.865   6.814   3.803  0.2058  0.1429  0.2327
 3767TIP3    H132792   0.848   6.722   3.823  1.2275  0.2563  1.7753
 3767TIP3    H232793   0.779   6.856   3.809 -0.4550 -0.8409 -1.5303
 3768TIP3   OH232794   3.431   6.314   2.290 -0.5216  0.1678 -0.2307
 3768TIP3    H132795   3.458   6.359   2.370 -1.7626  1.5174 -0.5395
 3768TIP3    H232796   3.415   6.224   2.318  0.8491  0.1634  0.6511
 3769TIP3   OH232797   4.803   2.975  11.472  0.2686  0.2777  0.0640
 3769TIP3    H132798   4.818   2.956  11.564 -0.6640  1.2190  0.4324
 3769TIP3    H232799   4.721   2.931  11.452  1.1526 -1.0891 -0.7161
 3770TIP3   OH232800   5.500   0.092  11.920 -0.3722  0.1777 -0.2169
 3770TIP3    H132801   5.513   0.173  11.870  0.1616  0.8356  0.9325
 3770TIP3    H232802   5.587   0.068  11.951 -0.4802 -1.0343 -0.8087
 3771TIP3   OH232803   6.750   0.627   1.450  0.0736  0.4131  0.4080
 3771TIP3    H132804   6.789   0.699   1.498  1.9264 -0.0214 -0.3276
 3771TIP3    H232805   6.809   0.613   1.375 -1.8343  0.0639 -1.1263
 3772TIP3   OH232806   2.012   4.261  13.870  0.6974  0.1872 -0.1446
 3772TIP3    H132807   1.972   4.183  13.908  0.4630  0.3886  0.0287
 3772TIP3    H232808   1.940   4.325  13.866 -0.2856 -0.9036 -4.2036
 3773TIP3   OH232809   1.335   2.441   5.812 -0.1163  0.0132 -0.0375
 3773TIP3    H132810   1.250   2.451   5.855 -1.0828  1.4856 -2.0945
 3773TIP3    H232811   1.349   2.524   5.767  2.6766 -0.0105  0.6043
 3774TIP3   OH232812   4.617   3.824   2.395  0.4012  0.2406 -0.4498
 3774TIP3    H132813   4.696   3.785   2.430  0.3750 -0.1898 -0.8588
 3774TIP3    H232814   4.571   3.751   2.352 -0.3503  0.4234  0.0253
 3775TIP3   OH232815   2.886   2.416   6.135 -0.3095  0.3821 -0.1595
 3775TIP3    H132816   2.928   2.473   6.070 -0.4167 -0.2226 -0.7636
 3775TIP3    H232817   2.823   2.473   6.179  0.1188  0.9233 -0.2319
 3776TIP3   OH232818   0.447   1.473  11.189  0.5924 -0.1310 -0.5508
 3776TIP3    H132819   0.485   1.547  11.141 -0.0566 -0.3324 -1.3902
 3776TIP3    H232820   0.523   1.420  11.215  0.9284 -0.2680 -1.7726
 3777TIP3   OH232821   0.140   1.267   3.715  0.4670 -0.0618 -0.1752
 3777TIP3    H132822   0.141   1.187   3.663  0.4737 -1.1014  1.3674
 3777TIP3    H232823   0.048   1.293   3.718  0.0530 -1.5433  1.5173
 3778TIP3   OH232824   0.147   5.989   4.441  0.4915 -0.2927  0.0201
 3778TIP3    H132825   0.229   6.029   4.411  0.8829 -1.9256 -1.2929
 3778TIP3    H232826   0.159   5.895   4.424 -0.7941 -0.8478  1.9196
 3779TIP3   OH232827   3.970   5.923   1.570 -0.1924 -0.1951 -0.3818
 3779TIP3    H132828   3.991   5.856   1.636 -0.3230 -0.5647 -0.7143
 3779TIP3    H232829   3.983   5.880   1.486 -0.7054  0.0626 -0.6029
 3780TIP3   OH232830   0.135   5.592  15.513 -0.0101  0.0132  0.5388
 3780TIP3    H132831   0.076   5.579  15.587  0.9749  0.3935  1.4075
 3780TIP3    H232832   0.210   5.639  15.549 -0.1252  1.4627 -0.9828
 3781TIP3   OH232833   1.293   1.173   3.577 -0.5609 -0.3148 -0.1415
 3781TIP3    H132834   1.306   1.221   3.659 -1.8776  0.1998 -0.1956
 3781TIP3    H232835   1.349   1.096   3.584 -2.2703 -1.4862  2.2600
 3782TIP3   OH232836   1.777   5.824  16.039 -0.0763  0.3868 -0.3086
 3782TIP3    H132837   1.712   5.767  16.079  0.3552  0.3344  0.3243
 3782TIP3    H232838   1.860   5.799  16.080  0.2157  1.0265 -0.4946
 3783TIP3   OH232839   1.253   4.491   0.673 -0.3501 -0.4203  0.6731
 3783TIP3    H132840   1.230   4.455   0.588  2.0959  2.2898 -1.3331
 3783TIP3    H232841   1.344   4.462   0.687 -0.7289 -0.8815  2.4706
 3784TIP3   OH232842   5.003   3.684   1.780  0.1726  1.2090  0.1863
 3784TIP3    H132843   5.018   3.648   1.692 -0.9209  1.5182 -0.1463
 3784TIP3    H232844   5.087   3.672   1.825  1.0468  1.8569 -1.1799
 3785TIP3   OH232845   0.840   0.294  14.283  0.4086 -0.5367  0.5502
 3785TIP3    H132846   0.761   0.249  14.254 -0.2125  0.0040  1.3898
 3785TIP3    H232847   0.889   0.310  14.202 -1.1748  0.7443 -0.1983
 3786TIP3   OH232848   0.683   6.532  17.071 -0.3986  0.2543  0.1940
 3786TIP3    H132849   0.712   6.548  17.161  0.2101  0.2374  0.0084
 3786TIP3    H232850   0.618   6.600  17.054  1.6728  2.2176 -0.3494
 3787TIP3   OH232851   0.108   1.916   1.740  0.2280 -0.2377 -0.0039
 3787TIP3    H132852   0.124   1.957   1.655  1.5101 -0.3757  0.1467
 3787TIP3    H232853   0.196   1.896   1.774 -0.1849  1.1279  2.0116
 3788TIP3   OH232854   1.512   2.925  11.856 -0.2024 -0.4876 -0.1110
 3788TIP3    H132855   1.486   3.013  11.828 -1.3718 -0.9294 -0.4784
 3788TIP3    H232856   1.446   2.900  11.920 -0.1310 -1.2685 -0.3315
 3789TIP3   OH232857   2.922   5.288  13.860 -0.3793 -0.4250  0.3991
 3789TIP3    H132858   3.005   5.266  13.902 -0.6283 -0.9194  0.6387
 3789TIP3    H232859   2.855   5.251  13.918 -0.7634 -0.1299  0.1506
 3790TIP3   OH232860   4.878   3.638  11.551 -0.4099 -0.9181  0.4818
 3790TIP3    H132861   4.914   3.549  11.542 -0.4760 -0.8328 -0.9742
 3790TIP3    H232862   4.795   3.625  11.597 -0.8576 -1.7488 -0.5078
 3791TIP3   OH232863   0.509   1.318   6.398 -0.6805 -0.3969  0.4221
 3791TIP3    H132864   0.604   1.331   6.400 -0.5990 -0.6535 -0.8411
 3791TIP3    H232865   0.498   1.233   6.354 -1.5489  0.4974 -1.1532
 3792TIP3   OH232866   5.256   5.457   5.337  0.6817 -0.1898  0.2879
 3792TIP3    H132867   5.248   5.450   5.433  0.3521 -0.0804  0.2701
 3792TIP3    H232868   5.340   5.500   5.323  0.0835  1.1266  0.5781
 3793TIP3   OH232869   5.126   1.016  15.791  0.9031  0.0752  0.0345
 3793TIP3    H132870   5.150   1.030  15.700  1.1565 -0.4814  0.0125
 3793TIP3    H232871   5.143   0.923  15.806 -1.8382 -0.5575 -0.1857
 3794TIP3   OH232872   1.969   0.562   3.450 -0.4512  0.7076  0.3052
 3794TIP3    H132873   1.967   0.627   3.520  1.1344  1.2825 -0.1597
 3794TIP3    H232874   2.054   0.520   3.458 -0.4557  0.4324 -0.9738
 3795TIP3   OH232875   5.496   2.666   4.776 -0.1809 -0.0677  0.3259
 3795TIP3    H132876   5.467   2.589   4.728  0.6288 -0.0488 -0.1999
 3795TIP3    H232877   5.590   2.655   4.786 -0.1589  0.5127  0.8693
 3796TIP3   OH232878   3.873   3.004  15.585  0.7910 -0.4233 -0.0390
 3796TIP3    H132879   3.845   2.940  15.650  0.7789  1.0980  1.5403
 3796TIP3    H232880   3.968   3.011  15.597  0.7317  0.1677  0.1436
 3797TIP3   OH232881   4.468   5.419   3.857 -0.0970  1.0933 -0.0501
 3797TIP3    H132882   4.454   5.327   3.837  2.2999  0.8253 -0.8070
 3797TIP3    H232883   4.554   5.422   3.900 -0.3011  2.9365  0.3322
 3798TIP3   OH232884   1.261   5.382  17.009  0.5808  0.1192  0.1923
 3798TIP3    H132885   1.357   5.385  17.016  0.4739  1.8776  1.4674
 3798TIP3    H232886   1.235   5.315  17.072  0.9196  0.4352  0.6783
 3799TIP3   OH232887   1.031   2.577   1.711 -0.3776  0.0364  0.2398
 3799TIP3    H132888   1.033   2.496   1.762  0.2374  0.1858  0.4609
 3799TIP3    H232889   1.119   2.584   1.673 -1.0435 -0.4620 -1.4655
 3800TIP3   OH232890   4.788   4.399   5.001  0.0264 -0.0740 -0.7255
 3800TIP3    H132891   4.872   4.405   4.955 -0.2765  0.0412 -1.2805
 3800TIP3    H232892   4.729   4.361   4.936 -0.6511  0.9988 -0.7575
 3801TIP3   OH232893   3.115   2.345   0.106 -0.0880 -1.2491  0.3825
 3801TIP3    H132894   3.099   2.337   0.012 -0.7442 -0.6623  0.4340
 3801TIP3    H232895   3.200   2.390   0.112 -0.9723  0.5767  0.0206
 3802TIP3   OH232896   2.610   2.023   4.063  0.6954  0.1341 -0.1977
 3802TIP3    H132897   2.664   2.062   3.994  0.3004 -3.1725 -2.6085
 3802TIP3    H232898   2.653   1.940   4.082 -1.2696 -0.7094  0.8289
 3803TIP3   OH232899   0.281   1.580  12.193  0.4160 -0.8722 -0.4750
 3803TIP3    H132900   0.212   1.514  12.198  0.2854 -0.7281 -0.3681
 3803TIP3    H232901   0.362   1.530  12.199  0.3140 -0.9053  1.0737
 3804TIP3   OH232902   2.428   6.276   3.637 -0.1063 -0.6693  0.3614
 3804TIP3    H132903   2.404   6.308   3.550  0.9620 -0.6216  0.0747
 3804TIP3    H232904   2.377   6.329   3.697 -1.3826 -1.1581 -0.2494
 3805TIP3   OH232905   0.332   4.965  12.660 -1.0059 -0.2072  0.1729
 3805TIP3    H132906   0.383   5.046  12.664 -1.1432 -0.1542  1.6851
 3805TIP3    H232907   0.317   4.942  12.752 -0.5774 -2.2063 -0.2041
 3806TIP3   OH232908   0.497   4.286   3.888 -0.2052  0.1869  0.2422
 3806TIP3    H132909   0.438   4.234   3.943 -0.6761  0.2170 -0.2316
 3806TIP3    H232910   0.585   4.257   3.914 -0.4217 -2.8004 -1.8025
 3807TIP3   OH232911   2.303   1.209  14.637  0.8975  0.4950 -0.2048
 3807TIP3    H132912   2.370   1.217  14.705  0.8189 -2.3669  0.3676
 3807TIP3    H232913   2.243   1.282  14.652  2.2874  1.4205  1.1282
 3808TIP3   OH232914   6.666   4.239   3.514 -0.1503 -0.2160  0.7342
 3808TIP3    H132915   6.666   4.150   3.477  0.9964 -0.6854  1.8042
 3808TIP3    H232916   6.754   4.251   3.548 -0.2446  1.4070  0.4936
 3809TIP3   OH232917   0.638   3.149  11.387 -0.4710  0.2233  0.2697
 3809TIP3    H132918   0.642   3.066  11.340  0.4871  0.3142  0.1535
 3809TIP3    H232919   0.730   3.174  11.398 -0.6550  0.2053  2.2040
 3810TIP3   OH232920   2.600   1.297   2.143  0.2182 -0.3965 -0.5514
 3810TIP3    H132921   2.643   1.242   2.208  0.4104  1.9191  1.3938
 3810TIP3    H232922   2.670   1.351   2.107 -0.6349  2.2103  1.4134
 3811TIP3   OH232923   0.409   2.268  12.496  0.2795 -0.4335  0.1426
 3811TIP3    H132924   0.400   2.243  12.404  0.1089  2.2216 -0.6373
 3811TIP3    H232925   0.351   2.207  12.542 -1.1943 -0.5915 -1.7478
 3812TIP3   OH232926   1.224   4.193  15.455  0.2918 -1.2317 -0.0345
 3812TIP3    H132927   1.259   4.128  15.515  0.5399  0.3033  1.5614
 3812TIP3    H232928   1.298   4.218  15.399  0.7504 -0.7917  0.7611
 3813TIP3   OH232929   1.342   6.345   3.506  0.1701 -0.1502  0.5383
 3813TIP3    H132930   1.301   6.395   3.576 -1.5798  3.1800 -2.4938
 3813TIP3    H232931   1.436   6.362   3.514 -0.2089  1.9389  0.8740
 3814TIP3   OH232932   5.443   2.588  13.266  0.0372 -0.0698  0.0922
 3814TIP3    H132933   5.524   2.553  13.229 -0.1951 -1.3733  0.7578
 3814TIP3    H232934   5.375   2.557  13.207 -0.0808  0.1089  0.1341
 3815TIP3   OH232935   0.029   4.835   1.671  0.0145 -0.7073  0.1271
 3815TIP3    H132936   0.100   4.861   1.613 -0.2619 -3.6350 -1.7088
 3815TIP3    H232937  -0.020   4.916   1.687  2.6963  1.0590  0.0757
 3816TIP3   OH232938   1.162   6.537  12.437 -0.0462  0.3870 -0.2132
 3816TIP3    H132939   1.119   6.590  12.370 -1.1512 -1.4733 -1.0669
 3816TIP3    H232940   1.091   6.490  12.480  0.7125  0.9754  1.8188
 3817TIP3   OH232941   2.464   5.089  13.645  0.5067 -0.1173 -0.4070
 3817TIP3    H132942   2.498   5.000  13.661 -0.8744 -0.4721  0.7478
 3817TIP3    H232943   2.450   5.125  13.733  0.0529  0.8559 -0.8677
 3818TIP3   OH232944   6.164   1.831  12.714 -0.2809  0.9408 -0.3583
 3818TIP3    H132945   6.177   1.794  12.627 -1.8425  1.5870 -0.9028
 3818TIP3    H232946   6.100   1.773  12.755  0.7940  0.3705  0.5608
 3819TIP3   OH232947   2.574   1.125   4.930 -0.1605 -0.3045  0.2712
 3819TIP3    H132948   2.627   1.045   4.923  1.8733  0.9067  1.1063
 3819TIP3    H232949   2.559   1.136   5.024 -1.0819 -0.0643  0.1112
 3820TIP3   OH232950   4.965   5.341  15.282 -0.1751 -1.0088 -0.2147
 3820TIP3    H132951   4.935   5.261  15.323  0.2078 -1.1815 -0.2628
 3820TIP3    H232952   4.986   5.315  15.192  1.8070 -1.3068  0.2918
 3821TIP3   OH232953   0.671   2.960  14.069 -0.5112  0.1908  0.4798
 3821TIP3    H132954   0.604   3.024  14.050  1.4706  2.3562  0.3680
 3821TIP3    H232955   0.713   2.991  14.149  0.9419 -0.5490  0.0512
 3822TIP3   OH232956   4.399   2.165  12.015  0.2900 -0.4736 -0.4607
 3822TIP3    H132957   4.420   2.078  11.982  0.8615 -0.5229  0.0175
 3822TIP3    H232958   4.400   2.156  12.110 -2.6987 -0.6668 -0.3494
 3823TIP3   OH232959   4.317   0.427   4.678 -0.8859 -0.1791  0.1450
 3823TIP3    H132960   4.377   0.415   4.752 -0.3729 -2.8427 -0.5865
 3823TIP3    H232961   4.234   0.389   4.708 -0.7158 -1.1352 -0.5600
 3824TIP3   OH232962   6.477   4.010  14.492 -0.1110 -0.2597 -0.0958
 3824TIP3    H132963   6.516   3.942  14.546  1.9745  0.9812  0.0585
 3824TIP3    H232964   6.523   4.004  14.408 -1.6436 -0.6107 -0.9524
 3825TIP3   OH232965   1.118   0.080   0.362 -0.0635 -0.2823  0.0274
 3825TIP3    H132966   1.057   0.127   0.419  0.2177 -0.2056  0.2683
 3825TIP3    H232967   1.202   0.085   0.408  0.5857  1.3653 -1.2558
 3826TIP3   OH232968   4.750   6.093   2.083 -0.0201 -0.3812  0.3365
 3826TIP3    H132969   4.806   6.133   2.016  1.1333 -0.7103  1.0613
 3826TIP3    H232970   4.808   6.031   2.127 -1.5929 -2.4424 -0.3775
 3827TIP3   OH232971   3.455   3.047   4.430  0.7711 -0.2507 -0.9029
 3827TIP3    H132972   3.426   3.014   4.515  2.5795 -0.0771 -0.1781
 3827TIP3    H232973   3.531   2.993   4.408 -0.1455 -0.8476 -2.8378
 3828TIP3   OH232974   2.712   0.218  14.961 -0.5164  0.2022 -0.0545
 3828TIP3    H132975   2.721   0.162  15.038 -0.3255 -0.3471 -0.4667
 3828TIP3    H232976   2.641   0.279  14.983 -0.0904  0.4239  0.7725
 3829TIP3   OH232977   5.400   0.919  16.428 -0.1713  0.2060 -0.2549
 3829TIP3    H132978   5.443   0.957  16.505 -2.9515  2.4877  0.3242
 3829TIP3    H232979   5.425   0.827  16.430  2.8751  0.9398  1.1739
 3830TIP3   OH232980   3.282   3.253  13.128  0.2195  0.3121  0.2094
 3830TIP3    H132981   3.193   3.277  13.156 -0.9423 -2.9845 -0.1230
 3830TIP3    H232982   3.276   3.248  13.033  1.9138  3.6383 -0.2012
 3831TIP3   OH232983   6.784   6.052   0.769  0.7474 -0.3469 -0.3199
 3831TIP3    H132984   6.754   6.141   0.752 -1.4317 -1.4215 -3.0125
 3831TIP3    H232985   6.710   6.010   0.815  0.7414 -1.3483 -1.1997
 3832TIP3   OH232986   1.522   2.488  10.304 -0.2673  0.2664 -0.0939
 3832TIP3    H132987   1.475   2.413  10.266 -1.1696 -0.4872  2.2839
 3832TIP3    H232988   1.608   2.453  10.327 -0.7347 -0.1541  1.1409
 3833TIP3   OH232989   5.050   1.760   3.586 -0.2813  0.3448 -0.5254
 3833TIP3    H132990   5.106   1.717   3.651 -0.4572 -1.1985 -1.3481
 3833TIP3    H232991   4.992   1.815   3.637 -0.4829 -0.9108  0.6584
 3834TIP3   OH232992   0.428   3.243   1.221  0.4708 -0.2971 -0.1856
 3834TIP3    H132993   0.343   3.256   1.179 -0.4040 -0.9744  1.2777
 3834TIP3    H232994   0.491   3.239   1.149 -1.2518 -4.1219 -1.7585
 3835TIP3   OH232995   4.679   5.489  14.151  0.2104  0.4604  0.2535
 3835TIP3    H132996   4.619   5.547  14.196  0.5426  0.2796  0.9393
 3835TIP3    H232997   4.624   5.440  14.090 -0.4547 -0.1486  1.3091
 3836TIP3   OH232998   4.265   4.931  17.048 -0.4711 -0.9403 -0.4378
 3836TIP3    H132999   4.236   4.848  17.009 -1.2030 -0.4743 -0.9089
 3836TIP3    H233000   4.359   4.935  17.029 -0.7795 -0.7693 -2.1180
 3837TIP3   OH233001   6.523   0.900   6.590  0.0534 -0.0146 -0.4173
 3837TIP3    H133002   6.594   0.957   6.561  0.9128 -0.9272 -0.1573
 3837TIP3    H233003   6.451   0.919   6.530 -0.5964  3.1424  1.1578
 3838TIP3   OH233004   5.623   0.421   1.939 -0.1475  0.0200  0.4440
 3838TIP3    H133005   5.577   0.419   1.855  0.6117 -0.4911  0.0242
 3838TIP3    H233006   5.596   0.503   1.979 -0.7136  0.1545 -0.1949
 3839TIP3   OH233007   1.977   0.776   2.118 -0.7883  0.0123  0.0378
 3839TIP3    H133008   2.008   0.716   2.050  2.2778  1.5687 -0.1150
 3839TIP3    H233009   1.935   0.719   2.183 -2.0779 -1.7242 -2.2034
 3840TIP3   OH233010   5.606   2.928  15.365 -0.0054 -0.0257  0.1975
 3840TIP3    H133011   5.623   3.016  15.332  2.6682 -0.7622 -0.6202
 3840TIP3    H233012   5.608   2.937  15.460  2.0624  0.5318  0.1313
 3841TIP3   OH233013   0.185   0.645   2.133  0.4288 -0.0928  0.6075
 3841TIP3    H133014   0.259   0.625   2.076  0.2151  0.7905  0.0012
 3841TIP3    H233015   0.184   0.574   2.197  1.3161 -0.5333  0.1469
 3842TIP3   OH233016   2.537   5.618  15.082 -0.3674  0.1484 -0.2106
 3842TIP3    H133017   2.623   5.645  15.049 -0.4138  1.3182  0.5930
 3842TIP3    H233018   2.556   5.544  15.139  0.2772  1.1392  0.9146
 3843TIP3   OH233019   4.222   5.754  16.429 -0.1735  0.0169 -0.1091
 3843TIP3    H133020   4.304   5.797  16.407  0.8812 -2.4946 -1.5143
 3843TIP3    H233021   4.154   5.820  16.412  1.4341  1.7055 -0.2052
 3844TIP3   OH233022   5.082   0.228   5.393 -0.7718  0.2193  0.3113
 3844TIP3    H133023   5.140   0.284   5.341  0.9612 -0.1166  1.8032
 3844TIP3    H233024   5.137   0.196   5.465 -2.7535 -0.2873  1.6859
 3845TIP3   OH233025   4.130   1.744  11.678 -0.1276 -0.1774  0.4276
 3845TIP3    H133026   4.126   1.729  11.773 -2.8278  1.0805  0.6316
 3845TIP3    H233027   4.196   1.812  11.668 -0.2027  0.0824  1.4966
 3846TIP3   OH233028   5.605   6.438   2.765  0.3336 -0.1850  0.4098
 3846TIP3    H133029   5.518   6.456   2.799 -0.4123  0.4243 -1.6768
 3846TIP3    H233030   5.659   6.510   2.799 -0.5771  0.8982 -0.3316
 3847TIP3   OH233031   3.816   5.619   4.232 -0.1296 -0.1472 -0.5618
 3847TIP3    H133032   3.889   5.569   4.197 -0.5489  0.8826 -3.1019
 3847TIP3    H233033   3.850   5.657   4.313  2.0662  0.0563 -1.5186
 3848TIP3   OH233034   0.790   1.467  15.944  0.3229  0.0469 -0.2988
 3848TIP3    H133035   0.708   1.425  15.970  0.5530 -0.6647 -0.7147
 3848TIP3    H233036   0.804   1.439  15.854 -0.1171  1.9677 -1.0120
 3849TIP3   OH233037   6.773   3.520   3.332  0.5422  0.2801 -0.3443
 3849TIP3    H133038   6.710   3.591   3.339 -0.6487 -0.3925 -2.8327
 3849TIP3    H233039   6.829   3.545   3.258  1.1944 -0.5699 -0.1534
 3850TIP3   OH233040   3.535   5.862   4.469 -0.1985  0.1332 -0.1238
 3850TIP3    H133041   3.555   5.841   4.378  3.5533  0.7293  0.4087
 3850TIP3    H233042   3.561   5.785   4.518  0.7059  0.9310  0.6787
 3851TIP3   OH233043   5.131   1.980   4.792 -0.3023  0.4141 -0.0688
 3851TIP3    H133044   5.195   2.022   4.850  1.6840 -1.7402 -0.5610
 3851TIP3    H233045   5.081   1.922   4.850 -1.4305  1.6061  0.1989
 3852TIP3   OH233046   1.287   3.541  11.929 -0.1028  0.7890  0.7259
 3852TIP3    H133047   1.279   3.630  11.963 -0.6901  0.9439  0.2005
 3852TIP3    H233048   1.200   3.503  11.942  0.2909  0.1065  1.4441
 3853TIP3   OH233049   6.677   1.532  13.608  0.1076 -0.5629 -0.1349
 3853TIP3    H133050   6.741   1.470  13.573  1.6969  0.8052  0.1742
 3853TIP3    H233051   6.638   1.572  13.530 -1.3835 -2.3180 -0.3461
 3854TIP3   OH233052   5.952   3.568   1.686 -0.3024  0.4454  0.0711
 3854TIP3    H133053   6.006   3.597   1.759 -1.3365  0.2806  0.9142
 3854TIP3    H233054   6.007   3.584   1.609  0.7019  0.8643  0.8449
 3855TIP3   OH233055   4.897   2.455  11.368  0.5220  0.5037  0.2519
 3855TIP3    H133056   4.918   2.498  11.285  0.4286  0.7512  0.3573
 3855TIP3    H233057   4.979   2.412  11.394  0.5534  0.4332  0.0383
 3856TIP3   OH233058   0.035   5.352   2.308 -0.0740 -0.2203  0.2164
 3856TIP3    H133059  -0.053   5.339   2.344 -0.2597 -1.0084 -0.4754
 3856TIP3    H233060   0.031   5.438   2.266 -0.7470 -0.5414 -0.4152
 3857TIP3   OH233061   2.054   3.270  12.852  0.1419  0.2029  0.1323
 3857TIP3    H133062   1.959   3.271  12.850  0.1607  0.9202 -1.4074
 3857TIP3    H233063   2.077   3.179  12.870 -0.8080  0.3755  2.6453
 3858TIP3   OH233064   3.720   6.149  15.628  0.4655  0.4566  0.0431
 3858TIP3    H133065   3.799   6.165  15.576  1.0176  0.0531  0.7341
 3858TIP3    H233066   3.693   6.060  15.604  1.6640 -0.3741  1.6067
 3859TIP3   OH233067   1.104   0.081   1.212 -0.0490 -0.0194  0.8906
 3859TIP3    H133068   1.158   0.134   1.270  1.0696 -2.2414  2.0482
 3859TIP3    H233069   1.109  -0.007   1.250  0.1979 -1.4780 -2.2582
 3860TIP3   OH233070   6.040   4.450  14.408  0.7973 -0.3035 -0.1193
 3860TIP3    H133071   6.016   4.388  14.338 -0.0967 -1.3740  1.0909
 3860TIP3    H233072   6.032   4.400  14.488  3.9731  0.2463  0.6705
 3861TIP3   OH233073   6.736   3.784  11.545 -0.0590 -0.1491 -0.7906
 3861TIP3    H133074   6.694   3.848  11.603  0.8058 -0.0719 -0.2333
 3861TIP3    H233075   6.671   3.768  11.477 -0.8881  0.1729 -0.1008
 3862TIP3   OH233076   0.427   0.450   3.723  0.8190  0.0846 -0.1719
 3862TIP3    H133077   0.366   0.438   3.796  1.3809 -2.8532 -0.0778
 3862TIP3    H233078   0.372   0.445   3.645  0.7462 -1.4575 -0.0494
 3863TIP3   OH233079   0.491   5.519   2.642  0.8030  0.0708 -0.4258
 3863TIP3    H133080   0.503   5.558   2.555  1.0710  0.0183 -0.4139
 3863TIP3    H233081   0.443   5.438   2.624 -0.7741  0.9450 -0.3316
 3864TIP3   OH233082   1.458   4.467  14.117 -0.2508  0.0272  0.4529
 3864TIP3    H133083   1.408   4.543  14.089 -2.1439 -1.3500 -0.1045
 3864TIP3    H233084   1.401   4.392  14.100  1.7941 -1.6128  0.2927
 3865TIP3   OH233085   0.653   2.116  10.486  0.3718  0.1462  0.0722
 3865TIP3    H133086   0.655   2.075  10.573 -2.8808 -1.5294 -0.5027
 3865TIP3    H233087   0.595   2.191  10.496 -0.0369 -0.0707 -0.6495
 3866TIP3   OH233088   0.251   3.407   2.397 -0.1213  0.1172 -0.0896
 3866TIP3    H133089   0.343   3.419   2.375  0.2064  0.0329  1.1739
 3866TIP3    H233090   0.212   3.493   2.386  0.8077  0.9411  2.4498
 3867TIP3   OH233091   2.240   3.684   4.272  0.0715 -0.5083  0.1479
 3867TIP3    H133092   2.149   3.674   4.299 -0.1029  1.6718  0.5302
 3867TIP3    H233093   2.236   3.689   4.176 -0.3964  0.9656  0.2274
 3868TIP3   OH233094   2.328   1.195   3.206 -0.0242 -0.2886 -0.4078
 3868TIP3    H133095   2.270   1.131   3.165  1.2063 -1.9633  0.3322
 3868TIP3    H233096   2.415   1.175   3.170  0.0608  2.6392 -2.0709
 3869TIP3   OH233097   3.127   2.473   5.936 -0.3286 -0.0831 -0.2878
 3869TIP3    H133098   3.061   2.405   5.923  1.0178 -1.2410 -1.5199
 3869TIP3    H233099   3.182   2.468   5.857  1.5530  0.4172  0.9152
 3870TIP3   OH233100   0.997   3.640   6.481 -0.3977 -0.9214  0.1750
 3870TIP3    H133101   1.039   3.625   6.566  0.4693 -3.8864 -0.6412
 3870TIP3    H233102   0.911   3.600   6.490 -0.2472 -1.3836 -0.3433
 3871TIP3   OH233103   1.756   0.141  13.410 -0.2773  0.2991  0.0997
 3871TIP3    H133104   1.705   0.155  13.331 -0.2164 -0.5119 -0.0877
 3871TIP3    H233105   1.832   0.090  13.382  1.2062  2.3366  0.1795
 3872TIP3   OH233106   5.791   4.831  12.319  0.3213 -0.1401  0.1013
 3872TIP3    H133107   5.719   4.778  12.352 -0.5961  0.7870 -0.3449
 3872TIP3    H233108   5.781   4.915  12.363  1.2887 -0.0778  0.2226
 3873TIP3   OH233109   4.463   0.042   2.756 -0.0596 -0.8840  0.6445
 3873TIP3    H133110   4.471   0.038   2.660 -2.4687 -3.9078  0.3966
 3873TIP3    H233111   4.419   0.125   2.773  2.3807  0.7873 -0.5627
 3874TIP3   OH233112   4.670   1.279  14.567  0.3903  0.3933 -0.2720
 3874TIP3    H133113   4.637   1.324  14.489  0.9350  0.0412 -0.7164
 3874TIP3    H233114   4.630   1.192  14.564  0.7094  0.2482 -0.3693
 3875TIP3   OH233115   3.806   0.793  13.305 -0.3837  0.4511 -0.1140
 3875TIP3    H133116   3.851   0.728  13.359  0.4339  0.8090 -0.3474
 3875TIP3    H233117   3.818   0.876  13.353  0.7291  0.8533 -1.0282
 3876TIP3   OH233118   6.421   5.872   4.655  0.0426  0.3488 -0.7168
 3876TIP3    H133119   6.342   5.925   4.640 -0.3789  0.0255  0.2960
 3876TIP3    H233120   6.421   5.809   4.583 -0.6529  0.3206 -0.7001
 3877TIP3   OH233121   5.101   3.405  13.137  0.4055  0.2212  0.3700
 3877TIP3    H133122   5.179   3.353  13.118 -0.6994 -0.5477 -2.5888
 3877TIP3    H233123   5.045   3.346  13.187  0.6208 -0.2101  0.1165
 3878TIP3   OH233124   5.465   0.602   2.517  0.0427  0.0732 -0.1134
 3878TIP3    H133125   5.545   0.651   2.538  1.0634 -0.6671 -2.0206
 3878TIP3    H233126   5.479   0.516   2.557 -0.7380  0.5542  1.2714
 3879TIP3   OH233127   6.281   6.792  14.797 -0.4894 -0.1339 -0.3051
 3879TIP3    H133128   6.330   6.851  14.856 -0.3834 -0.0896 -0.4362
 3879TIP3    H233129   6.201   6.840  14.776 -0.1206  0.2352 -0.9094
 3880TIP3   OH233130   2.573   5.292  12.564  0.3261 -0.7221 -0.0708
 3880TIP3    H133131   2.650   5.236  12.572  1.3975  0.7326  0.1942
 3880TIP3    H233132   2.538   5.296  12.653  1.5400  0.7527  0.3773
 3881TIP3   OH233133   4.436   2.982  14.036  0.3108 -0.4021  0.2506
 3881TIP3    H133134   4.528   2.986  14.011  0.2277  1.4094  0.1048
 3881TIP3    H233135   4.393   3.043  13.976 -0.8340 -0.5074  0.9460
 3882TIP3   OH233136   4.725   0.021   0.753 -0.0186 -0.0791  0.2835
 3882TIP3    H133137   4.676   0.087   0.705 -1.4937 -0.2077  1.5240
 3882TIP3    H233138   4.680  -0.061   0.734 -2.1544  0.1380  3.5441
 3883TIP3   OH233139   0.648   3.741   3.504 -0.6818  0.3921  0.1019
 3883TIP3    H133140   0.608   3.767   3.421 -0.3608  0.2497 -0.1000
 3883TIP3    H233141   0.734   3.707   3.479  0.0952  1.8779  0.6566
 3884TIP3   OH233142   6.658   2.960   4.264  0.0782  0.3601 -0.2268
 3884TIP3    H133143   6.586   3.022   4.262 -1.0099 -0.8591 -2.1501
 3884TIP3    H233144   6.736   3.013   4.280 -0.8409  2.1792 -1.4765
 3885TIP3   OH233145   3.977   2.392  15.190 -0.7884  0.3065 -0.0861
 3885TIP3    H133146   3.918   2.459  15.156 -0.1804  0.0840 -1.6937
 3885TIP3    H233147   4.064   2.424  15.170 -0.3756  0.2295  1.4942
 3886TIP3   OH233148   1.437   6.427  11.624 -0.4552  0.0980 -0.1850
 3886TIP3    H133149   1.490   6.390  11.695  0.8694 -0.4405 -1.4001
 3886TIP3    H233150   1.449   6.366  11.551  0.6361  2.1057 -1.8001
 3887TIP3   OH233151   0.374   2.328  13.768  0.0967  0.1877  0.2148
 3887TIP3    H133152   0.363   2.334  13.673  0.4843  0.8118  0.2008
 3887TIP3    H233153   0.287   2.346  13.803  0.1294  0.8243 -0.0091
 3888TIP3   OH233154   1.653   2.771   2.416 -0.3353  0.0225  0.1238
 3888TIP3    H133155   1.694   2.719   2.347  0.2637  0.0038  0.4835
 3888TIP3    H233156   1.568   2.730   2.430 -0.2847 -0.2330 -0.3075
 3889TIP3   OH233157   1.375   3.793   0.359  0.1564  0.0353  0.3954
 3889TIP3    H133158   1.312   3.851   0.315  1.7807  0.6758 -1.2203
 3889TIP3    H233159   1.379   3.716   0.301 -0.1568 -0.6328  1.2406
 3890TIP3   OH233160   4.530   2.351  11.862  0.6364 -0.2877 -0.1158
 3890TIP3    H133161   4.587   2.388  11.929 -0.7581  1.0130  0.4140
 3890TIP3    H233162   4.480   2.284  11.908  0.1865  0.1146 -0.0025
 3891TIP3   OH233163   5.694   5.195  11.854 -0.1738  0.0978 -0.3777
 3891TIP3    H133164   5.789   5.210  11.854  0.0009 -0.6545  1.7427
 3891TIP3    H233165   5.684   5.104  11.828 -0.2529  0.0174 -0.0784
 3892TIP3   OH233166   1.008   1.744  14.233  0.1982 -0.6250 -0.5564
 3892TIP3    H133167   1.049   1.695  14.162  4.5217 -0.1019  1.2615
 3892TIP3    H233168   1.049   1.831  14.229 -1.2736  0.2200  1.1328
 3893TIP3   OH233169   2.385   6.162   3.134 -0.0038  0.1476  0.0345
 3893TIP3    H133170   2.370   6.216   3.213 -1.8485 -0.1144 -0.0857
 3893TIP3    H233171   2.300   6.159   3.091  0.9853  0.3564 -2.0534
 3894TIP3   OH233172   5.554   4.232  11.107 -0.1035 -0.1575 -0.3511
 3894TIP3    H133173   5.645   4.209  11.090  0.5750  2.3036 -0.4910
 3894TIP3    H233174   5.559   4.319  11.147 -2.2487 -1.1323  2.4100
 3895TIP3   OH233175   1.582   6.254  17.078 -0.1118 -0.4222  0.6916
 3895TIP3    H133176   1.523   6.327  17.097 -1.2780 -1.1904  0.1299
 3895TIP3    H233177   1.554   6.221  16.992  1.2612 -0.6984  0.3238
 3896TIP3   OH233178   2.923   2.758   4.923  0.0246  0.0933  1.1389
 3896TIP3    H133179   2.930   2.663   4.916 -1.2419 -0.1302  2.3728
 3896TIP3    H233180   2.860   2.772   4.994 -2.0227  1.8089 -0.8619
 3897TIP3   OH233181   3.748   2.497  14.608  0.5610  0.0384  0.0493
 3897TIP3    H133182   3.763   2.415  14.562  1.3955  0.2038  0.0086
 3897TIP3    H233183   3.769   2.565  14.544 -1.6902  0.3343 -0.4445
 3898TIP3   OH233184   4.421   2.249  14.768 -0.6134 -0.1545  0.2969
 3898TIP3    H133185   4.433   2.217  14.858 -0.4032 -1.6324 -0.2150
 3898TIP3    H233186   4.482   2.196  14.716  0.4266  1.7480 -0.5386
 3899TIP3   OH233187   4.386   6.593   1.072  0.0016 -0.3080  0.1563
 3899TIP3    H133188   4.310   6.567   1.126  0.7858 -0.0544  1.4329
 3899TIP3    H233189   4.385   6.532   0.999 -1.4703 -0.2820  0.1122
 3900TIP3   OH233190   1.183   3.272  15.777 -0.2711 -0.2846 -0.1654
 3900TIP3    H133191   1.158   3.315  15.695  0.3172 -1.5217 -1.0335
 3900TIP3    H233192   1.224   3.191  15.749 -1.3135 -1.4059  1.4203
 3901TIP3   OH233193   3.462   0.206  11.284  0.0133 -0.3589  0.2973
 3901TIP3    H133194   3.554   0.226  11.303  0.0608 -0.0420 -0.2298
 3901TIP3    H233195   3.415   0.233  11.362 -0.0735  2.9743 -0.7455
 3902TIP3   OH233196   2.755   6.245  12.959  0.1288 -0.0956  0.5622
 3902TIP3    H133197   2.745   6.340  12.960 -0.5365 -0.1372 -0.6558
 3902TIP3    H233198   2.846   6.231  12.934  0.5415  0.2112  1.8092
 3903TIP3   OH233199   3.942   6.321   3.018 -0.2765 -0.1450 -0.1058
 3903TIP3    H133200   3.918   6.413   3.030  0.9913  0.2048 -0.1508
 3903TIP3    H233201   3.883   6.291   2.948  1.9460  1.7994 -3.1043
 3904TIP3   OH233202   1.324   1.842   2.320  0.0839  0.2683  0.1979
 3904TIP3    H133203   1.375   1.803   2.391  0.3484  1.1276  0.5010
 3904TIP3    H233204   1.356   1.932   2.315  0.7676 -0.0500 -1.6795
 3905TIP3   OH233205   1.823   1.456   3.969  0.2194  0.2549  0.3065
 3905TIP3    H133206   1.903   1.436   3.920 -0.6234 -1.6575 -0.3686
 3905TIP3    H233207   1.833   1.410   4.052 -0.1400  0.0552  0.2422
 3906TIP3   OH233208   1.897   4.870   5.298 -0.3094  0.0305  0.0133
 3906TIP3    H133209   1.866   4.960   5.311 -0.7639 -0.1059 -0.0858
 3906TIP3    H233210   1.910   4.836   5.386 -2.3000 -0.5239  0.1527
 3907TIP3   OH233211   1.487   0.440   2.598  0.3429 -0.2635  0.1144
 3907TIP3    H133212   1.458   0.445   2.507  2.6175 -0.2762 -0.6743
 3907TIP3    H233213   1.506   0.531   2.622 -1.1168 -0.1492  0.9061
 3908TIP3   OH233214   4.627   1.370   5.305  0.3732  0.3013  0.5994
 3908TIP3    H133215   4.548   1.402   5.261  0.7646  2.1063  1.1393
 3908TIP3    H233216   4.600   1.359   5.396 -0.5395 -3.7821  0.0161
 3909TIP3   OH233217   5.146   6.348  11.240  0.1468  0.6591 -0.2486
 3909TIP3    H133218   5.059   6.309  11.228  0.0841  0.9589 -0.8226
 3909TIP3    H233219   5.179   6.360  11.151 -0.4047  3.1841 -0.1912
 3910TIP3   OH233220   4.841   5.614   5.941  0.0446 -0.1689  0.0743
 3910TIP3    H133221   4.883   5.580   6.020  0.5748 -1.0237 -0.5643
 3910TIP3    H233222   4.801   5.537   5.900  1.2319 -0.0445 -1.3822
 3911TIP3   OH233223   3.830   4.733  13.432 -0.0321 -0.0068 -0.0808
 3911TIP3    H133224   3.868   4.668  13.373  1.0471 -0.3580  0.9675
 3911TIP3    H233225   3.772   4.785  13.376 -0.0315 -1.1342 -1.1726
 3912TIP3   OH233226   1.103   4.240   4.072  0.2913  0.0760 -0.1215
 3912TIP3    H133227   1.055   4.286   4.003  2.4267  1.0070 -1.0893
 3912TIP3    H233228   1.136   4.161   4.030 -2.7943 -2.2539  1.3595
 3913TIP3   OH233229   2.711   4.224   3.382  0.0505  0.3077 -0.2332
 3913TIP3    H133230   2.687   4.317   3.376 -1.1368 -0.0264 -0.8860
 3913TIP3    H233231   2.796   4.219   3.338  0.5480  1.2253  0.5897
 3914TIP3   OH233232   4.902   3.377   0.552 -0.2456  0.0157  0.3710
 3914TIP3    H133233   4.866   3.466   0.548  0.7045  0.4885  1.7132
 3914TIP3    H233234   4.826   3.321   0.563 -0.9242  0.5666 -1.1320
 3915TIP3   OH233235   4.950   3.366   2.771 -0.0919 -0.0304 -0.0044
 3915TIP3    H133236   4.896   3.299   2.730  0.3809  0.4833 -1.5315
 3915TIP3    H233237   5.033   3.363   2.723  0.9375 -0.2063  1.7183
 3916TIP3   OH233238   0.947   3.653   2.679  0.3869 -0.4489  0.3480
 3916TIP3    H133239   0.998   3.597   2.621  0.9246 -0.7830  1.1193
 3916TIP3    H233240   1.011   3.685   2.743 -0.1508  0.0582  0.6379
 3917TIP3   OH233241   1.382   6.182   1.201 -0.0174  0.1071 -0.1307
 3917TIP3    H133242   1.383   6.156   1.108  0.8320 -0.7855  0.1165
 3917TIP3    H233243   1.434   6.116   1.245 -0.7673  0.2815  1.0657
 3918TIP3   OH233244   1.846   5.512   5.198 -0.2473  0.1913  1.0456
 3918TIP3    H133245   1.787   5.544   5.130  0.0706 -1.0089  0.1671
 3918TIP3    H233246   1.790   5.494   5.273 -1.4170 -2.7536 -0.3718
 3919TIP3   OH233247   2.727   2.584   3.972  0.0130  0.0536 -0.2463
 3919TIP3    H133248   2.736   2.577   4.067  0.3212  1.7619 -0.1183
 3919TIP3    H233249   2.804   2.634   3.944  0.1063 -0.7283 -1.4534
 3920TIP3   OH233250   6.513   3.662  12.273  0.3302  0.1744  0.2023
 3920TIP3    H133251   6.484   3.730  12.333 -0.4590 -2.8418  3.6103
 3920TIP3    H233252   6.433   3.615  12.250  1.1662 -1.7454  0.9609
 3921TIP3   OH233253   0.280   4.598   2.180 -0.1345 -0.2145 -0.5701
 3921TIP3    H133254   0.328   4.563   2.105  1.8452  0.5694  0.2554
 3921TIP3    H233255   0.254   4.686   2.153 -1.2538 -0.6890 -1.0674
 3922TIP3   OH233256   5.095   1.929  12.106  0.1816 -0.2910 -0.5990
 3922TIP3    H133257   5.117   1.915  12.198 -0.3332 -0.5198 -0.5075
 3922TIP3    H233258   5.037   2.004  12.106  0.2964 -0.2014 -0.7553
 3923TIP3   OH233259   4.686   0.127   2.228 -0.0583 -0.7597  0.3510
 3923TIP3    H133260   4.628   0.134   2.152  0.7057 -1.6927 -0.3505
 3923TIP3    H233261   4.655   0.194   2.289 -0.0971  0.6799 -1.1844
 3924TIP3   OH233262   6.150   3.170   2.808  0.0414 -0.2070  0.3440
 3924TIP3    H133263   6.220   3.179   2.872 -0.9919 -3.8002  2.2598
 3924TIP3    H233264   6.183   3.107   2.744 -0.3993  0.3028 -0.4037
 3925TIP3   OH233265   3.105   5.776   1.506  0.1641  0.2585 -0.0890
 3925TIP3    H133266   3.051   5.763   1.428  0.3655 -0.8400 -0.0518
 3925TIP3    H233267   3.188   5.733   1.487  0.8750  1.4923  0.0614
 3926TIP3   OH233268   5.138   3.230   0.649 -0.1350 -0.4703  0.0976
 3926TIP3    H133269   5.148   3.271   0.735  0.2322 -0.1205 -0.1137
 3926TIP3    H233270   5.049   3.254   0.622 -0.6558 -1.4875  0.8550
 3927TIP3   OH233271   3.265   1.693  14.231 -0.7948 -0.1298  0.4773
 3927TIP3    H133272   3.360   1.687  14.227 -0.8579 -0.8141 -3.3444
 3927TIP3    H233273   3.244   1.778  14.191 -1.8412 -0.2314  0.7557
 3928TIP3   OH233274   6.085   2.323   2.267  0.1415 -0.0348 -0.2792
 3928TIP3    H133275   6.019   2.374   2.220  0.5232 -0.9054 -1.8535
 3928TIP3    H233276   6.036   2.249   2.304  0.1062 -0.3153 -0.8711
 3929TIP3   OH233277   5.911   4.798  13.861  0.0544  0.0138 -0.4636
 3929TIP3    H133278   5.935   4.718  13.906 -1.4959 -1.0459 -1.4279
 3929TIP3    H233279   5.987   4.819  13.806  1.0810  0.1197  0.9412
 3930TIP3   OH233280   3.097   5.607   0.260 -0.4732 -0.0559 -0.4453
 3930TIP3    H133281   3.157   5.680   0.273 -3.3585  2.1897  1.5524
 3930TIP3    H233282   3.065   5.618   0.170 -0.9376  1.2369 -0.1442
 3931TIP3   OH233283   6.271   4.570  12.727  0.1982  0.1514  0.3183
 3931TIP3    H133284   6.285   4.572  12.633 -1.3407  3.1510  0.0455
 3931TIP3    H233285   6.311   4.651  12.759 -0.3696 -0.2135  2.0661
 3932TIP3   OH233286   0.056   0.459  14.441 -0.6040 -0.0346  0.0471
 3932TIP3    H133287  -0.010   0.474  14.374  1.0603 -0.0971 -1.7010
 3932TIP3    H233288   0.062   0.543  14.487 -0.8994  0.4269 -0.7319
 3933TIP3   OH233289   1.057   3.776  15.085 -0.1239  0.1746 -0.2013
 3933TIP3    H133290   1.092   3.829  15.157  0.1014  0.1805 -0.3111
 3933TIP3    H233291   1.112   3.800  15.010  1.5743 -1.9610  0.2745
 3934TIP3   OH233292   6.077   2.341  13.517  0.3874  0.0697  0.6153
 3934TIP3    H133293   6.122   2.424  13.512 -2.1525  1.6299  1.5017
 3934TIP3    H233294   6.122   2.293  13.587  0.9464  1.3439  1.1581
 3935TIP3   OH233295   1.410   2.400   1.421  0.4431  1.4114 -0.2963
 3935TIP3    H133296   1.449   2.488   1.425  0.9320  1.1788  0.3008
 3935TIP3    H233297   1.463   2.348   1.482 -0.2942  0.8787 -0.1010
 3936TIP3   OH233298   5.222   5.151   2.402  0.2545 -0.3620  0.4803
 3936TIP3    H133299   5.201   5.190   2.487  1.0390 -0.1600  0.5910
 3936TIP3    H233300   5.149   5.091   2.384 -1.4004  1.7249 -0.0862
 3937TIP3   OH233301   1.091   2.105   5.857 -0.8127  0.2358  0.1243
 3937TIP3    H133302   1.102   2.014   5.885 -4.1026 -1.1639 -2.4854
 3937TIP3    H233303   1.168   2.124   5.804 -0.2899 -1.1968  0.3316
 3938TIP3   OH233304   5.522   5.637   5.258 -0.0705  0.0427  0.2719
 3938TIP3    H133305   5.596   5.696   5.271 -1.2650  2.0109 -1.1711
 3938TIP3    H233306   5.459   5.663   5.325 -0.8702  0.9399 -0.7863
 3939TIP3   OH233307   5.559   6.453  15.312 -0.0770  0.0492  0.4141
 3939TIP3    H133308   5.593   6.529  15.360  1.4239 -1.6844  2.2655
 3939TIP3    H233309   5.473   6.437  15.352  0.7586 -0.8030  1.9829
 3940TIP3   OH233310   4.807   1.532   2.103  0.3698  0.5308 -0.5881
 3940TIP3    H133311   4.874   1.573   2.048 -1.3481  2.2509 -1.5055
 3940TIP3    H233312   4.726   1.579   2.082 -0.8501 -0.4326  1.6133
 3941TIP3   OH233313   6.381   3.017  16.764 -0.3408  0.2937 -0.1470
 3941TIP3    H133314   6.398   2.953  16.694 -1.1416 -0.1238  0.0239
 3941TIP3    H233315   6.399   3.102  16.724  0.6697 -0.0302 -0.4046
 3942TIP3   OH233316   1.937   5.568  15.498 -0.4897  0.1450 -0.0763
 3942TIP3    H133317   2.031   5.574  15.511 -0.7026  0.7084  1.4948
 3942TIP3    H233318   1.918   5.474  15.499 -0.0694  0.0636  0.7011
 3943TIP3   OH233319   2.509   3.227   5.303 -0.2012  0.5689  0.2837
 3943TIP3    H133320   2.491   3.318   5.278 -1.4417  0.5180  0.9249
 3943TIP3    H233321   2.593   3.207   5.261 -0.3984  1.6828 -0.6894
 3944TIP3   OH233322   0.965   3.282  15.942  0.0470 -0.2593  0.0416
 3944TIP3    H133323   1.031   3.237  15.889  1.5955  1.1990  0.6447
 3944TIP3    H233324   0.994   3.373  15.943 -0.5081 -0.0461  2.5323
 3945TIP3   OH233325   4.129   1.376   1.496  0.1365 -0.8575 -0.1789
 3945TIP3    H133326   4.045   1.403   1.532  0.5970 -1.3341  1.3258
 3945TIP3    H233327   4.150   1.443   1.431 -0.3264  0.5639  1.0713
 3946TIP3   OH233328   2.859   5.105   2.452  0.1158  0.2269  0.2972
 3946TIP3    H133329   2.931   5.047   2.428 -0.8354 -0.3236 -1.4020
 3946TIP3    H233330   2.902   5.188   2.474  1.2805 -0.0026 -0.9493
 3947TIP3   OH233331   0.468   3.459   4.805 -0.2884 -0.1557  0.2625
 3947TIP3    H133332   0.538   3.469   4.741  1.7974 -0.7873  2.3314
 3947TIP3    H233333   0.432   3.547   4.815 -0.2737  0.0636 -1.2883
 3948TIP3   OH233334   0.478   6.107   5.488  0.4391  0.3704  0.4098
 3948TIP3    H133335   0.518   6.041   5.431 -0.1660  0.3767 -0.0308
 3948TIP3    H233336   0.393   6.125   5.448  0.3016  0.8974  0.9246
 3949TIP3   OH233337   5.706   4.243   5.568 -0.3237  0.2357 -0.7412
 3949TIP3    H133338   5.728   4.155   5.600 -1.6788  0.0464 -0.2588
 3949TIP3    H233339   5.685   4.292   5.648 -1.2642  0.4904 -1.1326
 3950TIP3   OH233340   1.723   0.563   5.529 -0.0880 -0.1002  0.1876
 3950TIP3    H133341   1.683   0.557   5.443  1.4227  0.2919 -0.5742
 3950TIP3    H233342   1.659   0.611   5.582 -2.3350 -2.7700  0.1588
 3951TIP3   OH233343   4.908   1.138  11.099  0.6550 -0.2830  0.0248
 3951TIP3    H133344   4.923   1.204  11.031 -0.4308  2.2166  2.0365
 3951TIP3    H233345   4.816   1.113  11.088  0.6099 -0.2270  0.2737
 3952TIP3   OH233346   4.847   4.632  15.550  0.5244  0.5765  0.2710
 3952TIP3    H133347   4.798   4.681  15.484  1.2004  0.7403 -0.1101
 3952TIP3    H233348   4.791   4.636  15.628  0.0214  0.9273 -0.0960
 3953TIP3   OH233349   4.313   3.816   1.044 -0.8567  0.4430  0.0914
 3953TIP3    H133350   4.347   3.905   1.047 -0.8161  0.4109  2.1691
 3953TIP3    H233351   4.223   3.824   1.074 -1.1861 -0.0892 -0.7380
 3954TIP3   OH233352   5.903   3.846  12.780 -0.2416  0.1964 -0.0051
 3954TIP3    H133353   5.891   3.941  12.770 -0.2861  0.1528 -0.3432
 3954TIP3    H233354   5.980   3.839  12.838  0.4447  0.4318 -0.8666
 3955TIP3   OH233355   1.325   6.261  12.692 -0.2853  0.1342  0.5592
 3955TIP3    H133356   1.283   6.343  12.718 -1.0141 -0.2506  0.6139
 3955TIP3    H233357   1.280   6.236  12.611 -0.9543 -0.8655  1.2192
 3956TIP3   OH233358   5.477   4.706  14.744 -0.4355 -0.0852  0.0093
 3956TIP3    H133359   5.549   4.684  14.684 -0.3029 -1.4236  0.6123
 3956TIP3    H233360   5.400   4.705  14.688 -0.2173 -0.5596 -0.2985
 3957TIP3   OH233361   4.007   6.089   3.347 -0.9315 -0.3061  0.3084
 3957TIP3    H133362   3.991   5.996   3.367 -0.4195 -0.7320 -1.1280
 3957TIP3    H233363   3.932   6.135   3.385 -1.3681 -1.3504  0.7483
 3958TIP3   OH233364   6.311   4.825  17.039  0.0682 -0.1039 -0.5800
 3958TIP3    H133365   6.267   4.843  17.122  0.6941  0.4020 -0.3426
 3958TIP3    H233366   6.296   4.732  17.023  1.4514 -0.6649  1.0361
 3959TIP3   OH233367   3.419   3.132   1.350 -0.0544  0.3972 -0.3322
 3959TIP3    H133368   3.391   3.051   1.392 -3.1898  1.0072 -0.9473
 3959TIP3    H233369   3.463   3.104   1.270 -1.0355 -0.7397 -0.4963
 3960TIP3   OH233370   3.961   5.609   6.832 -0.0926 -0.0026  0.1277
 3960TIP3    H133371   3.964   5.549   6.758 -1.3958 -0.3111  0.3012
 3960TIP3    H233372   3.870   5.604   6.864  0.2390  0.7048  1.2568
 3961TIP3   OH233373   5.556   5.366  14.475  0.1451 -0.1657 -0.3001
 3961TIP3    H133374   5.598   5.305  14.535 -1.5488 -0.6860  0.4288
 3961TIP3    H233375   5.615   5.441  14.470  1.0555 -0.7913  0.7753
 3962TIP3   OH233376   1.092   2.135  12.333  0.4513  0.5271  0.0764
 3962TIP3    H133377   1.074   2.228  12.324  2.8808  1.1876  1.2575
 3962TIP3    H233378   1.157   2.116  12.264  2.3265  0.5027  1.7555
 3963TIP3   OH233379   3.223   1.317   3.034  0.0998 -0.2615 -0.6653
 3963TIP3    H133380   3.148   1.371   3.060  0.2292  0.4072 -1.6607
 3963TIP3    H233381   3.263   1.364   2.962  1.6886 -0.4634  0.0563
 3964TIP3   OH233382   6.524   4.294  16.659  0.1753 -0.2636  0.4475
 3964TIP3    H133383   6.435   4.258  16.669  0.3551 -1.5097 -1.6514
 3964TIP3    H233384   6.581   4.219  16.675  0.9098  0.6217  2.1632
 3965TIP3   OH233385   6.483   1.397   1.734  0.1963 -0.1911  0.3560
 3965TIP3    H133386   6.498   1.491   1.748 -0.2559  0.0533 -0.7168
 3965TIP3    H233387   6.431   1.369   1.810 -1.6471  0.9371 -0.4280
 3966TIP3   OH233388   3.175   2.459   0.964  0.3542  0.2814  0.0823
 3966TIP3    H133389   3.198   2.496   1.049 -1.2637  0.9223  0.2679
 3966TIP3    H233390   3.152   2.534   0.909 -1.1332 -0.2729 -0.1077
 3967TIP3   OH233391   5.160   4.788   0.024  0.2096  0.5993  0.4488
 3967TIP3    H133392   5.249   4.776  -0.011  0.2219  0.4848  0.5168
 3967TIP3    H233393   5.102   4.772  -0.050  0.2995  2.8649 -0.1775
 3968TIP3   OH233394   0.182   5.480  12.198  0.3258  0.0074 -0.1584
 3968TIP3    H133395   0.088   5.491  12.215  0.5799 -1.1390  2.4777
 3968TIP3    H233396   0.199   5.387  12.216  2.2595  0.5775  1.3078
 3969TIP3   OH233397   6.516   4.820  16.565  0.3386  0.1660 -0.0108
 3969TIP3    H133398   6.453   4.747  16.557  0.2602  0.2806 -0.4844
 3969TIP3    H233399   6.600   4.777  16.577  0.2577 -0.0005 -0.0300
 3970TIP3   OH233400   5.859   2.460  16.037 -0.3729 -0.3901  0.3426
 3970TIP3    H133401   5.929   2.490  16.095  0.5290 -0.4284 -0.6912
 3970TIP3    H233402   5.896   2.386  15.990 -1.7801 -1.6689  1.1598
 3971TIP3   OH233403   4.149   6.505  14.544  0.1456  0.0057 -0.1578
 3971TIP3    H133404   4.220   6.499  14.608  1.3313  1.2360 -1.2659
 3971TIP3    H233405   4.070   6.482  14.593  1.4582 -3.3295  0.6964
 3972TIP3   OH233406   0.997   3.366  11.035 -1.0603  0.8172  0.0445
 3972TIP3    H133407   0.928   3.308  11.002 -0.3391  0.2936 -0.5870
 3972TIP3    H233408   0.968   3.454  11.009 -0.9347  0.4967 -1.2792
 3973TIP3   OH233409   1.577   5.300  10.753 -0.0861  0.5066 -0.3771
 3973TIP3    H133410   1.589   5.388  10.716 -0.3728  0.6495 -0.1238
 3973TIP3    H233411   1.640   5.296  10.825 -1.0083  0.9879  0.4707
 3974TIP3   OH233412   5.847   4.662  14.323  0.0372 -0.1930  0.2674
 3974TIP3    H133413   5.891   4.584  14.358  0.0989 -0.0405  0.5305
 3974TIP3    H233414   5.794   4.629  14.251  3.1294  0.0065 -2.3646
 3975TIP3   OH233415   6.419   2.449  13.229 -0.0091 -0.1811  0.4389
 3975TIP3    H133416   6.417   2.359  13.197  1.7095 -0.6428  1.5194
 3975TIP3    H233417   6.371   2.446  13.312  0.8473 -0.3363  0.9454
 3976TIP3   OH233418   2.205   3.951  11.768 -0.0223  0.3391  0.7644
 3976TIP3    H133419   2.169   3.964  11.856 -0.8596 -0.0263  0.4872
 3976TIP3    H233420   2.128   3.946  11.711  0.5141  0.6330  0.0005
 3977TIP3   OH233421   6.419   4.973   6.091 -0.2264  0.6021  0.3758
 3977TIP3    H133422   6.475   4.926   6.029 -0.2572 -0.4809  1.1327
 3977TIP3    H233423   6.385   4.904   6.149 -0.3525  1.5545  1.4676
 3978TIP3   OH233424   0.759   3.424  15.029  0.4081  0.3021  0.4808
 3978TIP3    H133425   0.701   3.500  15.017  1.3782  0.8953 -0.6379
 3978TIP3    H233426   0.721   3.356  14.973 -0.2940  0.0329  1.2569
 3979TIP3   OH233427   0.940   1.566  12.971  0.0957 -0.1194 -0.0038
 3979TIP3    H133428   1.006   1.522  12.918  2.2987 -1.1717  3.3028
 3979TIP3    H233429   0.860   1.514  12.958  0.0549  0.6123 -3.3519
 3980TIP3   OH233430   5.665   6.616  12.585 -0.3485  0.5327 -0.1594
 3980TIP3    H133431   5.587   6.670  12.592 -0.3191  0.6130 -0.4491
 3980TIP3    H233432   5.648   6.540  12.642 -0.5068  0.7024  0.0180
 3981TIP3   OH233433   0.091   2.066   2.027  0.4285  0.8741  0.2031
 3981TIP3    H133434   0.075   2.065   1.933  1.5847 -2.1493 -0.0808
 3981TIP3    H233435   0.180   2.100   2.036  0.5753  0.5151  0.1264
 3982TIP3   OH233436   1.141   6.248  12.457 -0.0495  0.3950 -0.4117
 3982TIP3    H133437   1.207   6.182  12.438 -0.4834 -0.1457 -0.0560
 3982TIP3    H233438   1.148   6.311  12.384 -0.4515 -0.6816 -1.4197
 3983TIP3   OH233439   4.972   0.143   5.796  0.0977 -0.1038  0.3434
 3983TIP3    H133440   5.037   0.118   5.731  0.6016 -0.3964  0.9407
 3983TIP3    H233441   4.955   0.062   5.845 -0.3459  0.0864  0.5182
 3984TIP3   OH233442   4.288   3.331  14.238 -0.2249  0.0434  0.2227
 3984TIP3    H133443   4.222   3.294  14.180  0.1985  0.9068 -0.8505
 3984TIP3    H233444   4.296   3.268  14.309 -0.8004 -1.0175 -0.6287
 3985TIP3   OH233445   1.236   3.905  12.368 -0.0975  0.1213  0.3590
 3985TIP3    H133446   1.199   3.829  12.412  1.1047 -1.3691 -1.0809
 3985TIP3    H233447   1.219   3.978  12.428 -0.5757 -1.3962  2.1618
 3986TIP3   OH233448   4.032   5.976  12.225  0.1063 -0.6244 -0.3115
 3986TIP3    H133449   3.940   5.994  12.247  0.2979 -0.8685  0.7120
 3986TIP3    H233450   4.079   5.990  12.306  0.8394 -1.5827 -0.5594
 3987TIP3   OH233451   0.027   5.727  13.211 -0.7292  0.1056  0.3686
 3987TIP3    H133452  -0.058   5.692  13.184 -1.1226  2.1557 -1.3137
 3987TIP3    H233453   0.005   5.805  13.262  0.1282  0.6415 -0.0621
 3988TIP3   OH233454   6.077   6.442  10.885  0.0045  0.5878  0.6889
 3988TIP3    H133455   6.033   6.513  10.839  0.4668  0.1357 -0.5021
 3988TIP3    H233456   6.048   6.362  10.840  0.9397  0.1842  0.7621
 3989TIP3   OH233457   0.885   2.264   3.725 -0.0854  0.3690  0.1451
 3989TIP3    H133458   0.918   2.243   3.637 -0.9540 -0.4783  0.0096
 3989TIP3    H233459   0.821   2.196   3.743 -0.8681  1.2914  0.9029
 3990TIP3   OH233460   6.193   3.716   5.045 -0.2162  0.6016  0.4790
 3990TIP3    H133461   6.119   3.684   5.097 -1.2927 -0.5928 -1.6535
 3990TIP3    H233462   6.191   3.811   5.055 -2.7348  0.6918 -0.3846
 3991TIP3   OH233463   6.719   2.076  13.488 -0.0365  0.4254 -0.4810
 3991TIP3    H133464   6.748   1.991  13.455 -1.6468 -0.5989  0.5905
 3991TIP3    H233465   6.625   2.078  13.468 -0.4320  1.0583  1.3141
 3992TIP3   OH233466   1.334   4.010  16.065  0.2554 -0.3423 -0.7136
 3992TIP3    H133467   1.283   3.958  16.127  1.5272  1.1350  1.7175
 3992TIP3    H233468   1.423   3.976  16.073  0.5844  0.4013 -1.1185
 3993TIP3   OH233469   5.033   4.958  16.245  0.0024  0.1891  0.0449
 3993TIP3    H133470   4.961   4.942  16.306 -1.6629  3.7754 -0.7033
 3993TIP3    H233471   5.093   5.016  16.293  2.2276 -2.2429  0.4343
 3994TIP3   OH233472   1.700   2.129  13.445 -0.1284 -0.0772 -0.0319
 3994TIP3    H133473   1.723   2.199  13.384  1.3781 -0.1189  0.4591
 3994TIP3    H233474   1.747   2.151  13.526  0.1814 -1.5224  0.2056
 3995TIP3   OH233475   4.236   0.548  16.289 -0.5597 -0.4128  0.3591
 3995TIP3    H133476   4.215   0.524  16.199 -0.6967 -1.1968  0.5908
 3995TIP3    H233477   4.280   0.632  16.282 -1.9140  0.2660 -0.3144
 3996TIP3   OH233478   0.454   6.248   3.829 -0.6987 -0.3602  0.3757
 3996TIP3    H133479   0.381   6.193   3.857 -0.5130  0.0671  1.8021
 3996TIP3    H233480   0.413   6.325   3.790 -0.9659 -1.1395 -0.9440
 3997TIP3   OH233481   3.947   5.717  14.530 -0.9368 -0.1480  0.6447
 3997TIP3    H133482   3.867   5.743  14.576 -1.5873 -0.1537 -0.4295
 3997TIP3    H233483   3.955   5.780  14.459 -2.1421 -2.3264 -1.5901
 3998TIP3   OH233484   3.119   5.013   2.397  0.4047 -0.4466 -0.1989
 3998TIP3    H133485   3.138   5.080   2.331 -0.2492 -0.6341 -0.5827
 3998TIP3    H233486   3.145   5.053   2.480  1.9830 -0.4981 -0.6416
 3999TIP3   OH233487   6.508   1.212   2.765 -0.5100 -0.8254  0.0571
 3999TIP3    H133488   6.525   1.241   2.676  0.1857 -0.1077  0.4045
 3999TIP3    H233489   6.480   1.121   2.757 -0.5415 -0.7340 -0.8934
 4000TIP3   OH233490   0.074   5.342   1.856 -0.3549 -0.3367  0.4512
 4000TIP3    H133491   0.014   5.406   1.817 -0.7635 -1.7424 -1.3553
 4000TIP3    H233492   0.161   5.378   1.840 -0.6358  0.9713  1.7157
 4001TIP3   OH233493   4.129   1.573   5.535  0.2488 -0.1266 -0.4289
 4001TIP3    H133494   4.178   1.590   5.616  0.5979 -1.3101 -0.3780
 4001TIP3    H233495   4.171   1.495   5.498 -0.2166  0.1276 -1.5114
 4002TIP3   OH233496   1.754   5.229  14.846  0.0963  0.1657  0.6651
 4002TIP3    H133497   1.730   5.200  14.934  0.3430 -1.8824  0.1237
 4002TIP3    H233498   1.848   5.242  14.849  0.3730 -1.5214  0.3404
 4003TIP3   OH233499   3.464   1.249  11.348 -0.3307  0.1440 -0.4675
 4003TIP3    H133500   3.439   1.312  11.280  0.6915  1.0420 -0.0297
 4003TIP3    H233501   3.489   1.303  11.423  0.7644 -0.7762 -0.1496
 4004TIP3   OH233502   4.398   0.864   0.649  0.7936  0.3341  0.4752
 4004TIP3    H133503   4.485   0.890   0.619  1.2108  0.6525  1.9003
 4004TIP3    H233504   4.412   0.823   0.734 -0.4435  0.3977  0.7385
 4005TIP3   OH233505   3.205   0.527  15.834 -0.2448  0.3458  0.6167
 4005TIP3    H133506   3.172   0.530  15.744 -0.5121  0.9200  0.7307
 4005TIP3    H233507   3.296   0.499  15.825 -0.3789  0.0346  0.1971
 4006TIP3   OH233508   0.720   2.346   2.447 -0.1289  0.3926 -0.8079
 4006TIP3    H133509   0.670   2.272   2.482  0.2660  0.5045  0.0153
 4006TIP3    H233510   0.664   2.423   2.463  0.6926  0.6525  1.0146
 4007TIP3   OH233511   0.072   1.085  14.064  0.0918  0.5692  0.2043
 4007TIP3    H133512  -0.016   1.119  14.082  0.2486  1.2983 -0.4167
 4007TIP3    H233513   0.131   1.155  14.092  0.5275 -0.2349  1.3897
 4008TIP3   OH233514   5.159   1.340   5.544  0.0299 -0.0564  0.3847
 4008TIP3    H133515   5.126   1.251   5.526 -0.2805 -0.2284  1.7304
 4008TIP3    H233516   5.086   1.397   5.521 -0.3676 -0.2717  1.0861
 4009TIP3   OH233517   6.640   5.922   3.507  0.2382 -0.0609  0.1918
 4009TIP3    H133518   6.550   5.952   3.522 -0.4292 -0.4688 -2.4228
 4009TIP3    H233519   6.694   5.998   3.530 -0.6017 -0.2561  3.1177
 4010TIP3   OH233520   0.891   5.189   4.424 -0.1702 -0.4702 -0.4691
 4010TIP3    H133521   0.962   5.236   4.467 -1.3580  0.3738  0.6408
 4010TIP3    H233522   0.896   5.100   4.459 -0.3031 -0.1360  0.4114
 4011TIP3   OH233523   6.601   3.114  12.824  0.6502  0.1648 -0.0474
 4011TIP3    H133524   6.602   3.148  12.914  0.2393 -0.6977  0.2983
 4011TIP3    H233525   6.610   3.192  12.769  2.4111  0.5739  0.7524
 4012TIP3   OH233526   6.347   3.250   5.264 -0.0558  0.0964  0.1079
 4012TIP3    H133527   6.319   3.323   5.319 -0.0090 -0.1627  0.4773
 4012TIP3    H233528   6.354   3.288   5.176  0.8883  0.7678  0.4587
 4013TIP3   OH233529   5.706   1.557   1.699  0.1045 -1.0724  0.0284
 4013TIP3    H133530   5.642   1.575   1.631  0.7282 -0.2491 -0.3543
 4013TIP3    H233531   5.758   1.484   1.665 -0.8359 -1.9845  0.4949
 4014TIP3   OH233532   2.909   2.281   2.250  0.1386  0.1426  0.4981
 4014TIP3    H133533   2.868   2.199   2.275  0.5321 -0.1833  0.0896
 4014TIP3    H233534   2.862   2.348   2.300 -0.8890 -0.2121  0.0296
 4015TIP3   OH233535   6.375   2.986  11.543 -0.3415 -0.1518  0.0699
 4015TIP3    H133536   6.377   2.956  11.452 -1.2328 -0.1579  0.0384
 4015TIP3    H233537   6.283   3.010  11.558  0.0319  1.0407  0.5862
 4016TIP3   OH233538   0.867   3.685  12.717  0.0112  0.6353  0.5921
 4016TIP3    H133539   0.938   3.656  12.775  0.0972 -0.4981 -0.0380
 4016TIP3    H233540   0.801   3.616  12.725  0.2257  0.2141 -0.9942
 4017TIP3   OH233541   3.762   2.306  13.680 -0.1109  0.2743 -0.4109
 4017TIP3    H133542   3.825   2.376  13.695 -1.0473  0.7151  1.8523
 4017TIP3    H233543   3.803   2.250  13.615  2.7189  0.4190  1.1195
 4018TIP3   OH233544   2.052   2.970   2.043 -0.5645 -0.0871 -0.8016
 4018TIP3    H133545   1.958   2.951   2.036 -0.6129 -1.4399  2.0167
 4018TIP3    H233546   2.094   2.885   2.037  0.1798  0.1042  1.0563
 4019TIP3   OH233547   5.570   0.864   4.526 -0.2058  0.3306  0.0207
 4019TIP3    H133548   5.520   0.902   4.453 -2.8003  2.2215  2.5669
 4019TIP3    H233549   5.515   0.792   4.558  0.5225  0.0161  0.5907
 4020TIP3   OH233550   1.389   6.634   5.217 -0.3400  0.0875 -0.3164
 4020TIP3    H133551   1.422   6.657   5.130 -0.0087 -0.9031 -0.4659
 4020TIP3    H233552   1.295   6.650   5.212 -0.3871 -0.3519 -0.9908
 4021TIP3   OH233553   2.753   5.932  14.200 -0.5560 -0.4384  0.1510
 4021TIP3    H133554   2.818   5.866  14.223 -0.3279 -0.0938  0.5155
 4021TIP3    H233555   2.776   6.008  14.253 -1.4730 -0.4231  0.5447
 4022TIP3   OH233556   3.942   6.722  10.660 -0.7823 -0.5693  0.1880
 4022TIP3    H133557   3.866   6.668  10.637 -0.2554 -1.0859 -0.3758
 4022TIP3    H233558   3.910   6.812  10.654 -1.6399 -0.8012  1.0377
 4023TIP3   OH233559   1.880   1.893   2.989 -0.0214  0.9843 -0.6062
 4023TIP3    H133560   1.845   1.961   3.046 -1.6615  0.1713 -0.5691
 4023TIP3    H233561   1.908   1.824   3.049 -1.7916  0.1086 -0.7194
 4024TIP3   OH233562   4.959   6.344   0.829 -0.3095  0.1068  0.3013
 4024TIP3    H133563   4.971   6.251   0.846  0.3209 -0.1335 -1.2807
 4024TIP3    H233564   5.010   6.361   0.749  0.9490  2.1583  1.4434
 4025TIP3   OH233565   4.369   4.453   1.795  0.1835 -0.3385 -0.3196
 4025TIP3    H133566   4.277   4.437   1.816 -0.3311 -2.5782 -3.4870
 4025TIP3    H233567   4.373   4.546   1.774 -1.1748 -0.0697  0.5044
 4026TIP3   OH233568   1.629   0.818  12.062  0.6441 -0.1309 -0.4153
 4026TIP3    H133569   1.710   0.809  12.113  1.1337  0.6528 -1.0297
 4026TIP3    H233570   1.607   0.911  12.068 -1.0900 -0.5793  1.0267
 4027TIP3   OH233571   4.554   4.309   2.415 -0.4755 -0.0927  0.7195
 4027TIP3    H133572   4.470   4.338   2.452  0.6707  1.7001  2.0871
 4027TIP3    H233573   4.620   4.358   2.465  1.3181 -0.1155 -1.4797
 4028TIP3   OH233574   1.683   0.223  14.419  0.0410  0.1699 -0.3782
 4028TIP3    H133575   1.659   0.266  14.337 -1.7014  1.3010  0.6835
 4028TIP3    H233576   1.601   0.192  14.456  0.5032  1.4696  1.9238
 4029TIP3   OH233577   6.565   2.236   2.848 -0.3048 -0.7419  0.4560
 4029TIP3    H133578   6.654   2.245   2.882 -0.4888 -0.6675  0.9366
 4029TIP3    H233579   6.509   2.269   2.919 -0.5773  2.4695 -1.0953
 4030TIP3   OH233580   1.652   4.173  14.033  0.2460 -0.3878 -0.0691
 4030TIP3    H133581   1.612   4.127  14.107 -1.0339 -1.7835 -1.5579
 4030TIP3    H233582   1.743   4.186  14.060 -0.5612  0.7757  2.4645
 4031TIP3   OH233583   6.663   3.665   5.837 -0.3669 -0.5832  0.2543
 4031TIP3    H133584   6.743   3.612   5.834  0.8491  1.0436  1.7284
 4031TIP3    H233585   6.676   3.732   5.771 -0.3322 -0.0975  0.7471
 4032TIP3   OH233586   6.413   0.528   1.141 -0.0934  0.1145 -0.0032
 4032TIP3    H133587   6.495   0.534   1.092 -0.3430 -1.5375 -0.7182
 4032TIP3    H233588   6.360   0.600   1.108  1.5027  2.0584  1.4437
 4033TIP3   OH233589   3.140   4.273   5.957 -0.6969 -0.3190  0.1688
 4033TIP3    H133590   3.171   4.235   6.039 -0.3746 -1.7348 -0.5811
 4033TIP3    H233591   3.220   4.289   5.907 -0.9517 -0.3769 -0.2561
 4034TIP3   OH233592   1.025   2.301  16.686 -0.6874 -0.0653  0.3058
 4034TIP3    H133593   0.980   2.386  16.681  0.6601  0.6585  0.1256
 4034TIP3    H233594   1.065   2.300  16.773  1.7049  0.7762 -0.7150
 4035TIP3   OH233595   1.234   6.599   0.675  0.1943 -0.8782  0.0988
 4035TIP3    H133596   1.282   6.580   0.594 -2.0502  0.6685 -1.7478
 4035TIP3    H233597   1.293   6.653   0.726  1.3001 -0.9985 -0.9961
 4036TIP3   OH233598   1.040   1.923   0.475 -0.0830  0.2600 -0.0071
 4036TIP3    H133599   1.109   1.976   0.437 -0.9951  0.7227 -1.0413
 4036TIP3    H233600   1.070   1.906   0.565  1.1378  0.8438 -0.2872
 4037TIP3   OH233601   5.079   1.869   1.141  0.5470  0.0297  0.4630
 4037TIP3    H133602   5.042   1.907   1.221  0.9656 -1.6605  1.5185
 4037TIP3    H233603   5.036   1.916   1.069 -0.5731  0.9151  1.6736
 4038TIP3   OH233604   1.684   0.550   4.944  0.0736 -0.3595  0.3970
 4038TIP3    H133605   1.731   0.478   4.902 -0.7553 -0.4614 -0.3922
 4038TIP3    H233606   1.689   0.622   4.881  0.1011 -0.0295  0.7745
 4039TIP3   OH233607   1.187   0.307  13.108 -0.1577  0.1452  0.1340
 4039TIP3    H133608   1.237   0.380  13.072 -0.9322  0.3651 -0.5211
 4039TIP3    H233609   1.164   0.254  13.031  1.2699 -1.3759  0.6825
 4040TIP3   OH233610   6.461   2.012  14.623 -0.0511  0.3136  0.1927
 4040TIP3    H133611   6.402   1.943  14.654  0.2557 -0.7942 -1.5280
 4040TIP3    H233612   6.537   2.006  14.681 -1.3054  1.3531  2.0446
 4041TIP3   OH233613   0.732   3.646   6.121  0.7008 -0.0879  0.0993
 4041TIP3    H133614   0.657   3.700   6.146  1.5419  0.9987  0.3245
 4041TIP3    H233615   0.705   3.557   6.143 -0.3436  0.3435  0.6218
 4042TIP3   OH233616   1.729   3.424  13.730 -0.6538 -0.4528  0.0441
 4042TIP3    H133617   1.656   3.382  13.686  0.7650 -0.4600 -2.5276
 4042TIP3    H233618   1.713   3.518  13.718 -0.3056 -0.4535 -0.4751
 4043TIP3   OH233619   1.849   2.433  17.060 -0.1544  0.1464  0.6252
 4043TIP3    H133620   1.899   2.434  17.141  0.1366 -1.0854  0.4791
 4043TIP3    H233621   1.901   2.486  16.999 -0.1266  0.6605  1.0826
 4044TIP3   OH233622   4.081   6.176  15.443  0.0942  0.1781  0.1054
 4044TIP3    H133623   4.119   6.164  15.530 -3.0418  1.0291  1.7443
 4044TIP3    H233624   4.045   6.091  15.420  1.9356 -0.3697 -1.0111
 4045TIP3   OH233625   3.225   6.522   3.443  0.2088 -0.0929 -0.6435
 4045TIP3    H133626   3.291   6.563   3.499 -1.5781  2.6917 -0.3896
 4045TIP3    H233627   3.142   6.555   3.476 -1.0534  0.2182 -3.7717
 4046TIP3   OH233628   5.051   1.685  13.385  0.2631 -0.0817  0.2447
 4046TIP3    H133629   5.026   1.704  13.294  2.1354  1.3634 -0.0250
 4046TIP3    H233630   4.968   1.670  13.430 -0.8989  1.7928 -1.1522
 4047TIP3   OH233631   3.073   5.138   1.984  0.1009  0.0711  0.6298
 4047TIP3    H133632   3.075   5.225   1.945 -0.2016 -0.3309 -0.3051
 4047TIP3    H233633   3.025   5.150   2.067 -2.0057  0.4009 -0.5578
 4048TIP3   OH233634   5.766   4.958  14.359 -0.2533 -0.1386  0.2491
 4048TIP3    H133635   5.779   4.867  14.334  0.3888 -0.2304  0.8720
 4048TIP3    H233636   5.770   4.958  14.455 -0.7518  0.4694  0.2816
 4049TIP3   OH233637   4.114   0.236  12.789  0.8138 -0.8868  0.4096
 4049TIP3    H133638   4.090   0.144  12.777  0.0153 -0.7134  0.5690
 4049TIP3    H233639   4.056   0.283  12.729  1.0382 -0.4742  0.5153
 4050TIP3   OH233640   3.349   0.385  16.166 -0.0557 -0.0137  0.0868
 4050TIP3    H133641   3.302   0.445  16.223 -0.0779 -0.2679  0.3395
 4050TIP3    H233642   3.288   0.314  16.149 -0.6797  0.9013 -1.6956
 4051TIP3   OH233643   0.565   3.387   3.379  0.2599  0.3718  0.5036
 4051TIP3    H133644   0.509   3.457   3.344  1.7103  1.1705 -0.3133
 4051TIP3    H233645   0.567   3.321   3.309  2.9976  1.8787 -1.0063
 4052TIP3   OH233646   1.684   6.327   3.257 -0.3250 -0.2974  0.2154
 4052TIP3    H133647   1.769   6.310   3.298  0.8484  1.7965 -1.1842
 4052TIP3    H233648   1.668   6.420   3.273 -2.0632 -0.4966 -0.1410
 4053TIP3   OH233649   4.605   1.652  11.819 -0.4025 -0.8496 -0.1988
 4053TIP3    H133650   4.694   1.655  11.782 -0.2734  0.8677  0.1841
 4053TIP3    H233651   4.548   1.681  11.748 -0.4382 -0.0627  0.1465
 4054TIP3   OH233652   3.504   2.416   4.000 -0.7634 -0.1413  0.7532
 4054TIP3    H133653   3.422   2.395   4.045 -1.1557 -0.7317 -0.2032
 4054TIP3    H233654   3.476   2.464   3.921 -0.0438  1.6841  1.5547
 4055TIP3   OH233655   0.570   2.188   3.740 -0.0464 -0.2807  0.2903
 4055TIP3    H133656   0.506   2.128   3.778  2.3695 -2.1566  1.6688
 4055TIP3    H233657   0.587   2.152   3.653 -0.0489 -0.4276  0.3497
 4056TIP3   OH233658   1.513   6.545   4.646  0.4691 -0.0031  0.0852
 4056TIP3    H133659   1.533   6.571   4.556 -2.3323  0.5416 -0.4550
 4056TIP3    H233660   1.474   6.459   4.638 -0.3958  0.3237  0.7057
 4057TIP3   OH233661   4.286   6.813  17.011 -0.2901  0.8609 -0.5372
 4057TIP3    H133662   4.224   6.752  17.050  0.8080  0.4625  0.6754
 4057TIP3    H233663   4.291   6.787  16.919  0.1400 -0.8943 -0.0577
 4058TIP3   OH233664   6.762   5.288  15.560 -0.0118  0.2407 -0.1966
 4058TIP3    H133665   6.780   5.379  15.585  0.9207 -0.0012  0.0566
 4058TIP3    H233666   6.742   5.244  15.642 -2.2651  0.5755 -0.5003
 4059TIP3   OH233667   2.759   2.144   3.877  0.1962 -0.2981  0.3803
 4059TIP3    H133668   2.840   2.093   3.877  0.2168 -0.2656  0.2526
 4059TIP3    H233669   2.778   2.219   3.821  0.0400 -0.3479  0.2612
 4060TIP3   OH233670   6.298   2.658   0.373 -0.4516  0.6690 -0.7845
 4060TIP3    H133671   6.315   2.692   0.461 -4.1136 -1.9526  1.1871
 4060TIP3    H233672   6.232   2.716   0.337 -0.5792  0.4608 -0.8839
 4061TIP3   OH233673   5.409   1.569  12.421  0.2573 -0.0311 -0.3579
 4061TIP3    H133674   5.401   1.551  12.514  1.1330 -1.8073 -0.5967
 4061TIP3    H233675   5.461   1.496  12.386 -0.4414  0.3439 -2.3097
 4062TIP3   OH233676   1.242   1.653   5.327  0.2938  0.0716  0.1414
 4062TIP3    H133677   1.291   1.573   5.308  0.8931  0.0373  1.7043
 4062TIP3    H233678   1.166   1.624   5.377  0.5063  0.4679  0.7044
 4063TIP3   OH233679   5.328   2.641  12.017  0.4484 -0.2822  0.0004
 4063TIP3    H133680   5.366   2.687  11.942  1.4901 -1.2209 -0.0772
 4063TIP3    H233681   5.381   2.667  12.092 -1.0794  1.2737  0.6089
 4064TIP3   OH233682   5.253   0.042   2.743  0.5146 -0.3226 -0.3617
 4064TIP3    H133683   5.212   0.097   2.677 -0.1673 -0.4097 -0.0232
 4064TIP3    H233684   5.341   0.078   2.753  0.0719  0.7363 -0.1203
 4065TIP3   OH233685   6.059   3.066   1.320 -0.3349  0.1783 -0.3943
 4065TIP3    H133686   5.990   3.131   1.329 -0.1599  0.3477 -0.2739
 4065TIP3    H233687   6.016   2.992   1.277 -0.7852 -0.0292  0.3867
 4066TIP3   OH233688   4.045   2.707  11.289  0.4072 -0.3099  0.1617
 4066TIP3    H133689   4.140   2.701  11.289  0.4789  0.3351  2.0214
 4066TIP3    H233690   4.017   2.661  11.368 -0.8815 -0.9625 -0.6337
 4067TIP3   OH233691   1.174   1.248   2.170 -0.6146 -0.0204 -0.9145
 4067TIP3    H133692   1.215   1.334   2.161 -1.6030  0.4380 -1.0820
 4067TIP3    H233693   1.089   1.265   2.209 -0.4340 -1.0229 -0.0312
 4068TIP3   OH233694   2.004   4.419  10.651  0.4118  0.3682 -0.2124
 4068TIP3    H133695   1.962   4.388  10.571 -0.2444 -0.8130  0.5537
 4068TIP3    H233696   2.087   4.456  10.622  0.5421 -0.7548 -1.3588
 4069TIP3   OH233697   4.669   0.306  14.278 -0.3013 -0.7180 -0.0554
 4069TIP3    H133698   4.589   0.298  14.330 -0.2639  0.0708  0.1333
 4069TIP3    H233699   4.638   0.319  14.188 -0.3903  0.1712  0.1049
 4070TIP3   OH233700   5.428   2.241   4.128  0.0734  0.4715 -0.8220
 4070TIP3    H133701   5.399   2.197   4.048  1.0123 -0.6684 -0.5722
 4070TIP3    H233702   5.520   2.216   4.137  0.3382  1.6312 -0.0669
 4071TIP3   OH233703   6.408   0.961   6.002 -0.2978  0.5074  0.0094
 4071TIP3    H133704   6.479   0.927   5.948  0.0932  0.0425  0.7957
 4071TIP3    H233705   6.338   0.896   5.993 -0.5811  0.8834 -0.6345
 4072TIP3   OH233706   6.302   6.391  16.584  0.0430  0.1643  0.0438
 4072TIP3    H133707   6.380   6.396  16.529  1.3955 -0.7680  1.7816
 4072TIP3    H233708   6.300   6.301  16.617 -0.1592  0.8967  2.2232
 4073TIP3   OH233709   3.113   4.968  13.937  0.5748  0.3802 -0.2174
 4073TIP3    H133710   3.105   4.984  13.843  1.3396 -1.0286 -0.5519
 4073TIP3    H233711   3.096   4.874  13.946  2.1558  0.1664  0.8283
 4074TIP3   OH233712   1.576   5.934   1.280 -0.0433  0.0218  0.4104
 4074TIP3    H133713   1.503   5.878   1.306  0.1468  0.7931  2.7807
 4074TIP3    H233714   1.633   5.938   1.356  1.8760  0.4639 -0.9569
 4075TIP3   OH233715   4.799   3.271  12.467 -0.0362  0.2951  0.3988
 4075TIP3    H133716   4.849   3.197  12.502  0.7354  0.9108  0.6269
 4075TIP3    H233717   4.842   3.291  12.384 -0.3797  0.3575  0.2344
 4076TIP3   OH233718   1.817   3.836   5.801 -0.0291 -0.2845  0.2966
 4076TIP3    H133719   1.799   3.918   5.754 -1.4682 -0.0181  1.2622
 4076TIP3    H233720   1.764   3.770   5.756  0.7931 -0.6215 -0.2055
 4077TIP3   OH233721   5.413   5.507   2.247 -0.4125  0.2247 -0.2990
 4077TIP3    H133722   5.461   5.444   2.301 -1.2339 -1.0664 -1.0362
 4077TIP3    H233723   5.327   5.514   2.288 -1.2130 -1.1284 -1.6264
 4078TIP3   OH233724   4.548   5.663  14.358 -0.2995  0.0417 -0.3412
 4078TIP3    H133725   4.547   5.672  14.453 -0.2599  0.5056 -0.3817
 4078TIP3    H233726   4.477   5.602  14.339  1.5056 -2.4017  0.1970
 4079TIP3   OH233727   0.095   1.216   6.408  0.0426 -0.2145  0.3705
 4079TIP3    H133728   0.011   1.198   6.367  0.7637 -1.0868 -0.7940
 4079TIP3    H233729   0.100   1.312   6.410  0.7244 -0.0115 -3.3928
 4080TIP3   OH233730   2.575   5.895  12.963  0.5437  0.4145 -0.9534
 4080TIP3    H133731   2.581   5.991  12.965  1.1493  0.3693  0.2873
 4080TIP3    H233732   2.542   5.875  12.875 -0.7424  1.8109 -0.8394
 4081TIP3   OH233733   6.179   0.066   0.090 -1.0280 -0.5890 -0.2302
 4081TIP3    H133734   6.202  -0.027   0.097 -2.8432 -1.0384  0.2263
 4081TIP3    H233735   6.089   0.071   0.123 -0.3379  1.6499  1.5183
 4082TIP3   OH233736   6.379   0.650  12.072  0.6252  0.1950 -1.0294
 4082TIP3    H133737   6.433   0.572  12.063  0.9676  0.1425  0.9541
 4082TIP3    H233738   6.436   0.712  12.119 -0.6638  0.5207  0.1514
 4083TIP3   OH233739   2.110   5.622  14.334  0.6252  0.4138  0.4023
 4083TIP3    H133740   2.144   5.545  14.288 -2.3583  0.8088 -2.9078
 4083TIP3    H233741   2.050   5.585  14.399 -0.9441 -0.1569 -1.2957
 4084TIP3   OH233742   5.610   2.414   6.766 -0.2425  0.0333  0.6534
 4084TIP3    H133743   5.556   2.413   6.687  0.3404  1.4135  0.2080
 4084TIP3    H233744   5.549   2.395   6.837 -1.0049 -0.0439 -0.0098
 4085TIP3   OH233745   3.499   3.577  15.858 -0.6977 -0.7561  0.5413
 4085TIP3    H133746   3.456   3.662  15.862  1.9565  0.7195 -0.0635
 4085TIP3    H233747   3.441   3.523  15.804 -1.1596  1.5541 -1.4466
 4086TIP3   OH233748   5.161   1.845  11.801 -0.1459  0.3862  0.2782
 4086TIP3    H133749   5.170   1.921  11.743  0.5018  0.0910 -0.0185
 4086TIP3    H233750   5.120   1.880  11.880 -1.4206  0.7214 -0.5035
 4087TIP3   OH233751   4.238   2.769   0.584  0.2652 -0.7837 -0.5109
 4087TIP3    H133752   4.196   2.855   0.595  0.4541 -0.7014 -0.4373
 4087TIP3    H233753   4.290   2.757   0.663  0.9091 -0.5913 -0.8990
 4088TIP3   OH233754   2.032   3.814   4.624 -0.2329  0.5614  0.3006
 4088TIP3    H133755   2.013   3.875   4.695 -0.9887  1.8310 -0.9364
 4088TIP3    H233756   2.064   3.870   4.553 -1.9850 -0.3084 -1.2588
 4089TIP3   OH233757   4.791   5.956  13.802 -0.2035 -0.2045 -0.0595
 4089TIP3    H133758   4.755   5.883  13.852  0.6553 -1.3908 -1.1207
 4089TIP3    H233759   4.849   6.001  13.864 -2.3212  0.9210  1.2518
 4090TIP3   OH233760   1.020   2.721   5.377  0.4047 -0.5915 -0.4001
 4090TIP3    H133761   1.012   2.811   5.411 -0.6141 -0.6328 -0.5125
 4090TIP3    H233762   1.068   2.674   5.446 -1.5083 -0.6384  0.9889
 4091TIP3   OH233763   1.274   5.838  11.391  0.5857  0.1848  0.1718
 4091TIP3    H133764   1.259   5.745  11.372  0.8896  0.1214  0.2488
 4091TIP3    H233765   1.216   5.884  11.330  2.4059  0.0268 -1.7848
 4092TIP3   OH233766   2.478   0.114   6.105 -0.2109 -0.1260  0.0401
 4092TIP3    H133767   2.428   0.195   6.115  0.5742  0.3112  0.4391
 4092TIP3    H233768   2.411   0.046   6.093 -0.8564  0.6609 -0.9761
 4093TIP3   OH233769   1.841   6.013   3.319 -0.8058  0.5216 -0.0183
 4093TIP3    H133770   1.826   6.098   3.277  2.6451  1.3106  0.0350
 4093TIP3    H233771   1.878   5.959   3.250 -1.1187 -0.3203  0.4628
 4094TIP3   OH233772   4.059   5.560  14.732 -0.1249  1.0029 -0.5793
 4094TIP3    H133773   4.044   5.640  14.783  1.5207  1.6134 -0.9942
 4094TIP3    H233774   4.023   5.580  14.645 -1.4732  0.5429 -0.1641
 4095TIP3   OH233775   2.108   5.598   5.175  0.6614 -0.4567  0.1146
 4095TIP3    H133776   2.047   5.531   5.207  1.5377 -1.0405  0.5830
 4095TIP3    H233777   2.088   5.606   5.081  0.3353 -1.1304  0.1253
 4096TIP3   OH233778   6.250   0.251  14.130  0.3429  0.0087 -0.3273
 4096TIP3    H133779   6.267   0.174  14.185 -1.1612 -0.1577 -0.0628
 4096TIP3    H233780   6.155   0.263  14.135  0.4563  1.3289 -1.1189
 4097TIP3   OH233781   4.418   2.717   0.840  0.2422  0.0417  0.6653
 4097TIP3    H133782   4.425   2.638   0.894 -0.6267  0.0696  0.8358
 4097TIP3    H233783   4.372   2.780   0.896  1.7827  1.0059  0.8823
 4098TIP3   OH233784   6.733   1.578   4.126  0.0815  0.2999  0.0220
 4098TIP3    H133785   6.810   1.522   4.135 -0.0483  0.2210  0.6922
 4098TIP3    H233786   6.767   1.664   4.104  0.2240 -0.3618 -2.7465
 4099TIP3   OH233787   1.050   2.093  13.704 -0.2243  0.4754 -0.1719
 4099TIP3    H133788   1.047   2.174  13.653  1.7945  2.9474  3.1981
 4099TIP3    H233789   1.004   2.113  13.785 -1.9435 -2.7260 -0.2026
 4100TIP3   OH233790   4.790   6.812  14.150 -0.6414 -0.1126  0.8919
 4100TIP3    H133791   4.699   6.842  14.154 -1.6158 -2.7054  0.1147
 4100TIP3    H233792   4.804   6.789  14.059  1.1936  1.1542  0.7869
 4101TIP3   OH233793   0.530   3.315   5.555  0.3390  0.0350 -0.0047
 4101TIP3    H133794   0.565   3.387   5.608  1.9477  0.6030 -1.7477
 4101TIP3    H233795   0.534   3.239   5.612  0.0351  1.0240  1.3793
 4102TIP3   OH233796   6.496   2.322   4.137 -0.0930 -0.1369 -0.5073
 4102TIP3    H133797   6.561   2.302   4.070  1.8291  0.0167  1.2300
 4102TIP3    H233798   6.523   2.270   4.213 -1.6393  0.4337  0.4847
 4103TIP3   OH233799   6.782   3.575  16.494 -1.0745  0.1032  0.2327
 4103TIP3    H133800   6.690   3.603  16.493 -0.4217  2.5343 -1.0603
 4103TIP3    H233801   6.816   3.611  16.576 -1.0192  0.2653  0.1411
 4104TIP3   OH233802   5.364   0.235  10.692 -0.0416 -0.2346 -0.2323
 4104TIP3    H133803   5.295   0.287  10.733 -0.5220  0.2319 -1.5836
 4104TIP3    H233804   5.408   0.296  10.633  1.5660 -0.5145  0.6247
 4105TIP3   OH233805   0.595   0.888  11.293  0.2478 -0.1168  0.2801
 4105TIP3    H133806   0.646   0.931  11.225  2.4969 -1.0826  1.2483
 4105TIP3    H233807   0.616   0.795  11.285 -0.7144 -0.4549  1.2701
 4106TIP3   OH233808   4.725   5.113  12.839  0.5178 -0.5646  0.0655
 4106TIP3    H133809   4.741   5.049  12.769 -0.3579  1.2801 -1.9176
 4106TIP3    H233810   4.640   5.088  12.875  0.5593 -0.9843 -0.1207
 4107TIP3   OH233811   4.277   5.395   0.620 -0.2296  0.0160 -0.5182
 4107TIP3    H133812   4.187   5.428   0.624 -1.1454 -2.1483 -1.4407
 4107TIP3    H233813   4.329   5.471   0.595 -1.2604  2.0793  2.8571
 4108TIP3   OH233814   2.253   3.983   2.813  0.3508 -0.2912 -0.2706
 4108TIP3    H133815   2.338   3.955   2.850  1.5506  1.4596 -1.5475
 4108TIP3    H233816   2.226   4.056   2.868 -0.3857 -0.8725  0.1583
 4109TIP3   OH233817   5.575   2.264   4.783  0.3227 -0.3065  0.1155
 4109TIP3    H133818   5.660   2.277   4.740  0.2702  1.9145  0.5868
 4109TIP3    H233819   5.597   2.219   4.865  0.9679 -0.2873 -0.0398
 4110TIP3   OH233820   0.808   5.118  12.753  0.1638  0.3633  0.2533
 4110TIP3    H133821   0.755   5.099  12.830 -1.2915  0.8536 -0.5881
 4110TIP3    H233822   0.833   5.032  12.719  0.3781  0.1380  0.9695
 4111TIP3   OH233823   3.228   4.879  15.058  0.8430  0.2345 -0.4975
 4111TIP3    H133824   3.144   4.848  15.024  1.3845  0.4349 -2.0662
 4111TIP3    H233825   3.293   4.842  15.000  2.0442 -1.3704  1.7111
 4112TIP3   OH233826   5.861   2.843   3.999 -0.3672  0.2257  0.0422
 4112TIP3    H133827   5.815   2.918   3.964 -2.5407 -0.3901  1.3742
 4112TIP3    H233828   5.943   2.879   4.034 -0.4922  1.6136 -1.0170
 4113TIP3   OH233829   2.286   1.258  12.763  0.2613  0.4450 -0.0339
 4113TIP3    H133830   2.224   1.228  12.829  0.4209 -0.4855 -0.2923
 4113TIP3    H233831   2.346   1.184  12.751 -0.4294  0.1477 -2.0366
 4114TIP3   OH233832   3.728   4.978  15.154  0.0234  0.4591  0.0872
 4114TIP3    H133833   3.674   4.959  15.231 -1.3563 -0.5050 -1.0462
 4114TIP3    H233834   3.675   5.041  15.104 -1.4480 -2.4887 -2.3531
 4115TIP3   OH233835   0.504   5.037   6.246  0.2290 -0.2594 -0.0204
 4115TIP3    H133836   0.495   5.132   6.250 -0.0077 -0.2862  0.0388
 4115TIP3    H233837   0.545   5.013   6.329 -0.3380 -0.2857  0.2508
 4116TIP3   OH233838   3.001   6.351  15.380  0.0379 -0.3401 -0.0296
 4116TIP3    H133839   3.080   6.299  15.369  0.6385  0.6623 -0.5944
 4116TIP3    H233840   2.929   6.288  15.372  0.7728 -1.2332  0.3372
 4117TIP3   OH233841   3.842   1.351  13.345 -0.5704 -0.2715  0.1328
 4117TIP3    H133842   3.785   1.365  13.269  2.4120  0.9210 -2.1319
 4117TIP3    H233843   3.883   1.437  13.359  0.5577 -1.0272  1.7112
 4118TIP3   OH233844   6.450   0.739   1.329 -0.1058  0.3159  0.3421
 4118TIP3    H133845   6.527   0.714   1.278 -0.4832  0.8835 -0.5230
 4118TIP3    H233846   6.473   0.825   1.365 -0.8088  1.0936 -0.9872
 4119TIP3   OH233847   4.097   4.148  14.772  0.1240 -0.5468 -0.1688
 4119TIP3    H133848   4.007   4.169  14.751  0.9778  1.0049 -2.6553
 4119TIP3    H233849   4.096   4.054  14.790 -1.4714 -1.3987 -3.8204
 4120TIP3   OH233850   2.431   3.510  11.454 -0.1117 -0.1539  0.2158
 4120TIP3    H133851   2.521   3.540  11.443  0.8171 -2.1550  1.7041
 4120TIP3    H233852   2.397   3.560  11.528 -0.1757  0.4589 -0.2200
 4121TIP3   OH233853   4.103   4.350  12.828  0.0954  0.4696  0.1537
 4121TIP3    H133854   4.058   4.415  12.880  1.0394 -0.0583  1.6999
 4121TIP3    H233855   4.124   4.395  12.746 -2.1636  1.0547 -0.1734
 4122TIP3   OH233856   4.234   2.302   3.808 -0.7413  0.3170 -0.2499
 4122TIP3    H133857   4.264   2.303   3.717 -0.6715  1.6362 -0.2272
 4122TIP3    H233858   4.153   2.353   3.808 -0.5699  0.6025  0.4922
 4123TIP3   OH233859   4.056   4.753   1.465 -0.1066  0.0091  0.0125
 4123TIP3    H133860   4.037   4.811   1.539 -1.7858  0.5000 -0.7470
 4123TIP3    H233861   4.087   4.811   1.396 -1.0911 -0.0577 -0.5105
 4124TIP3   OH233862   0.722   5.621  16.891  0.3617 -0.0211  0.2235
 4124TIP3    H133863   0.657   5.687  16.916 -0.1717 -0.5428  0.2208
 4124TIP3    H233864   0.806   5.660  16.916  0.0329  0.5542  0.4502
 4125TIP3   OH233865   3.066   4.488   0.610 -0.0963 -0.0392 -0.1333
 4125TIP3    H133866   3.132   4.419   0.603 -0.5204 -0.4746  0.1040
 4125TIP3    H233867   3.084   4.530   0.694  1.7871  1.8537 -1.3912
 4126TIP3   OH233868   5.570   4.105  13.386 -0.7743 -0.2885  0.1386
 4126TIP3    H133869   5.592   4.185  13.337 -0.8807  0.1092  0.7234
 4126TIP3    H233870   5.649   4.087  13.437 -2.6858  3.3909  5.3342
 4127TIP3   OH233871   4.275   2.884  15.407  0.6993  0.0485 -0.2608
 4127TIP3    H133872   4.228   2.801  15.395  1.3291 -0.3047 -0.3092
 4127TIP3    H233873   4.366   2.863  15.389  0.9101  0.6853  0.0387
 4128TIP3   OH233874   6.273   6.713   2.078  0.8394 -0.9992 -0.9245
 4128TIP3    H133875   6.234   6.646   2.134 -0.0132  0.1696 -0.0627
 4128TIP3    H233876   6.355   6.736   2.122  0.2006 -0.1256 -0.1286
 4129TIP3   OH233877   4.364   1.845   0.498  0.4473 -0.0939  0.6787
 4129TIP3    H133878   4.332   1.775   0.442 -0.0071  0.7696 -0.1690
 4129TIP3    H233879   4.453   1.861   0.467  1.5473 -2.0573  2.6129
 4130TIP3   OH233880   6.236   5.063  13.527 -0.0865  0.1434  0.5651
 4130TIP3    H133881   6.175   5.134  13.545 -0.2698 -0.0154  0.5746
 4130TIP3    H233882   6.319   5.093  13.565 -0.0592  0.5246  0.2117
 4131TIP3   OH233883   1.609   4.164  16.263  0.1614  0.2312  0.1134
 4131TIP3    H133884   1.593   4.075  16.230  0.2981  0.9098 -1.8772
 4131TIP3    H233885   1.635   4.214  16.186 -2.6392  2.7183  0.6062
 4132TIP3   OH233886   5.181   2.672   0.060 -0.2220 -0.5502  0.0340
 4132TIP3    H133887   5.101   2.621   0.075  0.0317 -0.8898  0.2830
 4132TIP3    H233888   5.158   2.761   0.083 -0.4391 -0.7079  0.4390
 4133TIP3   OH233889   6.388   2.572  13.001 -0.1282 -0.3714 -0.2702
 4133TIP3    H133890   6.399   2.551  13.093  1.4610 -1.7037 -0.7277
 4133TIP3    H233891   6.305   2.532  12.977 -0.2693 -0.5135  0.4362
 4134TIP3   OH233892   5.146   0.686   3.052 -0.2392 -0.8236 -0.3223
 4134TIP3    H133893   5.089   0.703   3.126 -1.0719  2.1218 -1.4822
 4134TIP3    H233894   5.103   0.616   3.003 -0.6162 -1.5237  0.9676
 4135TIP3   OH233895   6.608   1.822   3.036 -0.1279  0.4334 -0.5267
 4135TIP3    H133896   6.625   1.825   2.942  0.9035  2.2969 -0.3300
 4135TIP3    H233897   6.512   1.819   3.043 -0.2161  0.4276 -1.6269
 4136TIP3   OH233898   2.542   3.004   0.414  0.1340 -0.3103 -0.0483
 4136TIP3    H133899   2.527   3.068   0.483 -0.5872  1.0881 -1.4468
 4136TIP3    H233900   2.632   2.974   0.429  0.2934  0.5970  0.9682
 4137TIP3   OH233901   5.332   0.549  16.915 -0.0997 -0.7101 -0.2828
 4137TIP3    H133902   5.373   0.572  16.831  0.2518  0.6306  0.2253
 4137TIP3    H233903   5.240   0.571  16.903  0.2313  1.1781  0.1997
 4138TIP3   OH233904   3.194   1.405   5.816 -0.4882 -0.2391  0.4221
 4138TIP3    H133905   3.106   1.430   5.843 -0.9226 -1.7453  0.4669
 4138TIP3    H233906   3.188   1.312   5.796  0.6697  0.0131 -1.3283
 4139TIP3   OH233907   2.598   0.762   1.384 -0.5288 -0.2733 -0.1840
 4139TIP3    H133908   2.517   0.712   1.379 -0.6288 -0.0531 -0.8323
 4139TIP3    H233909   2.573   0.845   1.426 -0.6260 -0.2255 -0.3384
 4140TIP3   OH233910   2.308   5.811  12.331  0.3326  0.5237  0.5059
 4140TIP3    H133911   2.289   5.848  12.417  1.9997 -0.3604  1.2965
 4140TIP3    H233912   2.287   5.881  12.270 -0.0244  1.4822  1.6799
 4141TIP3   OH233913   1.608   0.834   3.776 -0.0434 -0.0010 -0.2789
 4141TIP3    H133914   1.658   0.900   3.729  0.2128  0.1036  0.1329
 4141TIP3    H233915   1.661   0.754   3.770  1.7956  0.8111  2.7800
 4142TIP3   OH233916   6.596   5.274  13.357 -0.4317 -0.0566 -0.6201
 4142TIP3    H133917   6.662   5.226  13.308 -0.3475 -0.3049 -0.2686
 4142TIP3    H233918   6.566   5.213  13.424  0.1576  0.5810  0.2588
 4143TIP3   OH233919   4.603   1.149  10.772 -0.0764 -0.0408  0.2105
 4143TIP3    H133920   4.668   1.081  10.754 -0.3312 -0.3754  0.5600
 4143TIP3    H233921   4.529   1.127  10.716 -0.6204 -0.7215  1.1752
 4144TIP3   OH233922   1.182   5.548   0.701  0.6379  0.1148 -0.1062
 4144TIP3    H133923   1.223   5.477   0.750 -1.0310 -0.4438  0.5670
 4144TIP3    H233924   1.102   5.568   0.750 -0.6240  0.1798 -2.0661
 4145TIP3   OH233925   1.034   0.106   4.361  0.3120  0.1228  0.3377
 4145TIP3    H133926   1.026   0.136   4.271  1.3132  0.0550  0.2153
 4145TIP3    H233927   1.060   0.183   4.410  1.6062 -0.2315  0.2421
 4146TIP3   OH233928   1.844   5.170  11.226  0.1992 -0.3443 -0.0045
 4146TIP3    H133929   1.927   5.214  11.237 -0.8964  1.2932  2.3489
 4146TIP3    H233930   1.819   5.141  11.313  0.1059 -4.4548 -1.1716
 4147TIP3   OH233931   2.481   1.007  11.637  0.4930 -0.1946  0.3287
 4147TIP3    H133932   2.427   1.084  11.616 -1.0670 -1.4124 -0.3184
 4147TIP3    H233933   2.504   1.020  11.729 -0.3051  0.7364  0.4225
 4148TIP3   OH233934   5.260   0.719  16.169 -0.1407  0.3725  0.3415
 4148TIP3    H133935   5.300   0.805  16.158 -0.1580  0.1660 -1.6833
 4148TIP3    H233936   5.172   0.729  16.131 -0.0027 -0.6340 -0.2547
 4149TIP3   OH233937   0.053   3.825   0.829 -0.2890 -0.0805  0.2955
 4149TIP3    H133938   0.068   3.916   0.802 -0.8820  0.0145  0.2699
 4149TIP3    H233939  -0.040   3.810   0.810 -0.2778 -0.5795  0.6287
 4150TIP3   OH233940   5.253   0.023   4.605 -0.0407 -0.3670 -0.4267
 4150TIP3    H133941   5.278  -0.033   4.678 -0.0068 -0.6391 -0.6444
 4150TIP3    H233942   5.204   0.094   4.645  0.0247 -0.4853 -0.1334
 4151TIP3   OH233943   6.851   0.345  11.819 -0.2210 -0.6547 -0.1350
 4151TIP3    H133944   6.851   0.256  11.785 -0.7593 -0.7672  0.1490
 4151TIP3    H233945   6.934   0.382  11.789 -0.0077 -1.2390 -0.2801
 4152TIP3   OH233946   6.397   3.020  11.910 -0.2083  0.1742  0.3891
 4152TIP3    H133947   6.427   2.930  11.893 -0.5669 -0.2139  1.7284
 4152TIP3    H233948   6.478   3.071  11.915  0.0635 -0.2810  0.7214
 4153TIP3   OH233949   1.506   5.628  13.333 -0.1199  0.4755 -0.2457
 4153TIP3    H133950   1.557   5.708  13.333 -0.5564  0.7731 -1.2046
 4153TIP3    H233951   1.417   5.656  13.357 -0.2194  0.2414 -0.3369
 4154TIP3   OH233952   3.375   6.080   2.432 -0.1583 -0.4879 -0.3230
 4154TIP3    H133953   3.450   6.073   2.490  1.0890  1.1294 -1.6565
 4154TIP3    H233954   3.373   5.997   2.384  0.8500 -0.4977 -0.3610
 4155TIP3   OH233955   5.950   3.118  14.920 -0.0175 -0.2991 -0.2881
 4155TIP3    H133956   5.949   3.140  15.014 -0.7599  1.6542 -0.7029
 4155TIP3    H233957   5.989   3.031  14.917  0.1245 -0.3828  1.8313
 4156TIP3   OH233958   0.553   3.071   0.095  0.5048  0.0255  0.2804
 4156TIP3    H133959   0.482   3.093   0.154 -1.7029 -0.7828 -1.9183
 4156TIP3    H233960   0.588   2.988   0.128  1.0297  0.8396  1.8468
 4157TIP3   OH233961   0.927   0.988   5.580 -0.0564  0.2943 -0.6189
 4157TIP3    H133962   0.974   0.909   5.556  0.6473  0.3246  0.5951
 4157TIP3    H233963   0.929   1.042   5.500  0.1509 -0.5579 -1.2060
 4158TIP3   OH233964   1.971   2.924  16.334 -0.5342  0.0634 -0.0288
 4158TIP3    H133965   1.972   2.829  16.327  0.9240 -0.0740  1.5109
 4158TIP3    H233966   2.045   2.953  16.280  2.4188 -0.1429  3.4754
 4159TIP3   OH233967   5.393   2.587  11.633 -0.4137  0.0663 -0.1011
 4159TIP3    H133968   5.333   2.528  11.678  1.3862 -0.3523  1.9587
 4159TIP3    H233969   5.443   2.530  11.574  0.4153 -0.3095  0.9153
 4160TIP3   OH233970   4.392   0.273   5.202 -0.0869 -0.1279 -0.1484
 4160TIP3    H133971   4.458   0.219   5.245 -1.1188 -2.1959 -1.0019
 4160TIP3    H233972   4.316   0.268   5.260 -0.1303  0.5979 -0.1366
 4161TIP3   OH233973   6.591   3.713  11.992  0.1220  0.0486 -0.0055
 4161TIP3    H133974   6.560   3.676  12.075 -1.3544 -2.3031 -1.4598
 4161TIP3    H233975   6.524   3.777  11.968 -1.0850 -1.3782 -0.6901
 4162TIP3   OH233976   0.312   2.043   3.504 -0.0271  0.7038 -0.1077
 4162TIP3    H133977   0.306   1.957   3.546  0.1759  0.6449 -0.1959
 4162TIP3    H233978   0.233   2.089   3.532  0.0754  0.6442  0.2909
 4163TIP3   OH233979   3.840   0.851  16.704  0.2492  0.0863  0.3762
 4163TIP3    H133980   3.905   0.888  16.645  0.5863 -0.8111  0.1632
 4163TIP3    H233981   3.769   0.821  16.647 -0.2824  0.8982  0.5937
 4164TIP3   OH233982   6.754   0.842  15.532 -0.4397  0.0229 -0.6794
 4164TIP3    H133983   6.752   0.776  15.464 -1.1347 -0.5359 -0.1385
 4164TIP3    H233984   6.664   0.846  15.564  0.3695 -1.9415  2.2662
 4165TIP3   OH233985   6.761   0.710  12.679  0.0471  0.5328 -0.3185
 4165TIP3    H133986   6.733   0.800  12.663 -0.9288  0.1407 -0.8888
 4165TIP3    H233987   6.701   0.678  12.746  0.2988  0.2489 -0.2241
 4166TIP3   OH233988   4.159   0.223  10.909 -0.1880 -0.0567  0.2165
 4166TIP3    H133989   4.111   0.192  10.986  1.1852  0.2097  1.2302
 4166TIP3    H233990   4.180   0.143  10.860 -1.0627 -0.2300  0.1121
 4167TIP3   OH233991   5.436   2.518   5.025  0.5182 -0.1993  0.8533
 4167TIP3    H133992   5.484   2.582   4.972  2.1729 -2.3083 -0.3586
 4167TIP3    H233993   5.398   2.458   4.960  1.3698 -2.0215  1.9702
 4168TIP3   OH233994   2.991   2.053   5.177 -0.4227 -0.3930 -0.0391
 4168TIP3    H133995   2.985   2.148   5.169  1.0050 -0.4201 -3.0935
 4168TIP3    H233996   2.900   2.023   5.175 -0.8679  0.8816  0.4342
 4169TIP3   OH233997   4.196   0.309  14.107 -0.0073 -0.7016  0.0708
 4169TIP3    H133998   4.259   0.243  14.079  0.0600 -0.7720  0.3820
 4169TIP3    H233999   4.248   0.389  14.114 -0.1349 -0.5590 -0.5307
 4170TIP3   OH234000   5.053   5.023  14.087 -0.4629  0.4538 -0.1020
 4170TIP3    H134001   4.965   5.021  14.051 -0.4556  1.6829 -0.2532
 4170TIP3    H234002   5.040   5.052  14.178 -0.3348 -0.9338  0.3847
 4171TIP3   OH234003   6.064   0.540  13.511  0.1428 -0.1651 -0.3462
 4171TIP3    H134004   6.080   0.453  13.550  0.7401 -0.8633 -2.0503
 4171TIP3    H234005   6.035   0.594  13.584 -1.2390 -2.0601  0.5951
 4172TIP3   OH234006   0.174   2.871  15.734  0.0153 -0.4567  0.0537
 4172TIP3    H134007   0.178   2.809  15.807  2.2971 -1.6040 -0.9318
 4172TIP3    H234008   0.100   2.842  15.682 -1.0599 -0.1959  1.3763
 4173TIP3   OH234009   1.078   1.309  16.716 -0.1125 -0.4651 -0.0080
 4173TIP3    H134010   1.116   1.391  16.747 -0.3654 -0.1266 -0.5775
 4173TIP3    H234011   0.984   1.327  16.710 -0.0229 -0.3508 -1.4481
 4174TIP3   OH234012   4.019   0.744  15.346 -0.2406  0.2693  0.1292
 4174TIP3    H134013   4.020   0.777  15.256  1.2549  0.2842  0.1338
 4174TIP3    H234014   4.096   0.688  15.353 -0.6333 -0.1638  1.2481
 4175TIP3   OH234015   2.569   2.017  12.258 -0.0422 -1.1246  0.3187
 4175TIP3    H134016   2.661   2.033  12.278 -0.0223 -1.1922  0.2783
 4175TIP3    H234017   2.568   1.934  12.211 -0.2546 -1.8209  1.5155
 4176TIP3   OH234018   2.024   1.129   6.258  0.3157 -0.0237 -0.6229
 4176TIP3    H134019   2.071   1.211   6.272  1.4324 -1.0129  2.3371
 4176TIP3    H234020   1.931   1.153   6.264  0.5943  1.1623 -0.8371
 4177TIP3   OH234021   1.895   3.958   5.322 -0.7475  0.5339  0.3340
 4177TIP3    H134022   1.979   3.964   5.367 -0.3697  0.8491 -0.4019
 4177TIP3    H234023   1.847   4.036   5.350 -0.0580  1.3538 -0.7044
 4178TIP3   OH234024   0.917   0.891   2.471  0.0078  0.0593  0.3105
 4178TIP3    H134025   0.841   0.833   2.471  0.8541 -1.0964  1.2208
 4178TIP3    H234026   0.943   0.897   2.379  1.1267 -2.7133  0.3633
 4179TIP3   OH234027   4.386   3.646  13.643  0.2389  0.5367  0.5902
 4179TIP3    H134028   4.417   3.694  13.566 -1.2623 -0.5329 -0.7560
 4179TIP3    H234029   4.316   3.700  13.678  0.8399  0.9647  1.1369
 4180TIP3   OH234030   3.233   1.533  12.760  0.0602 -0.0101  0.3330
 4180TIP3    H134031   3.172   1.585  12.706 -0.7271 -1.2317  0.0038
 4180TIP3    H234032   3.303   1.508  12.700  0.5386  0.8011  0.5380
 4181TIP3   OH234033   0.007   3.998   2.252  0.1091  0.0315  0.0736
 4181TIP3    H134034  -0.024   4.084   2.224  2.0759  1.0965  0.9097
 4181TIP3    H234035   0.023   3.950   2.171 -1.0730  0.4069 -0.4056
 4182TIP3   OH234036   2.289   3.491   5.919 -0.1670 -0.1857  0.2618
 4182TIP3    H134037   2.273   3.539   5.838 -0.9400 -0.5029  0.2225
 4182TIP3    H234038   2.317   3.558   5.981  0.9696 -0.0225 -0.4116
 4183TIP3   OH234039   3.564   2.841   3.070  0.7991 -0.0042 -0.6737
 4183TIP3    H134040   3.503   2.770   3.055 -0.1485  0.3222  1.3283
 4183TIP3    H234041   3.642   2.817   3.020  0.9579 -3.0382  0.8353
 4184TIP3   OH234042   5.298   5.907   2.926  0.0491  0.3359 -0.0836
 4184TIP3    H134043   5.295   5.969   3.000 -0.7171  1.6508 -1.1709
 4184TIP3    H234044   5.233   5.841   2.948  0.0966  0.4980  0.5835
 4185TIP3   OH234045   3.077   1.221  12.662 -0.2567 -0.6793  0.2970
 4185TIP3    H134046   3.115   1.201  12.748 -0.5874 -1.6393  0.2358
 4185TIP3    H234047   3.011   1.152  12.649 -0.4430 -0.3443 -0.5812
 4186TIP3   OH234048   1.129   0.926  15.295  0.1489 -0.2061 -0.5675
 4186TIP3    H134049   1.083   0.903  15.214 -0.4411 -0.5290 -0.1492
 4186TIP3    H234050   1.101   1.015  15.314 -2.3308 -1.1920  1.0001
 4187TIP3   OH234051   0.284   6.426   1.169  0.2834  0.0045  0.8800
 4187TIP3    H134052   0.256   6.490   1.103  1.4951  0.9761  1.2589
 4187TIP3    H234053   0.273   6.341   1.126 -1.4823  0.4353  0.4087
 4188TIP3   OH234054   0.548   4.204  10.591  0.1785  0.2736  0.0653
 4188TIP3    H134055   0.491   4.244  10.657  2.3184  0.0483  2.2043
 4188TIP3    H234056   0.499   4.128  10.560 -0.7588  0.1439  1.7325
 4189TIP3   OH234057   0.146   2.072  16.072 -0.3744 -0.5630 -0.5501
 4189TIP3    H134058   0.109   2.116  16.149  0.4192 -0.6258 -0.1274
 4189TIP3    H234059   0.192   1.996  16.107 -0.9200 -1.2025 -1.1905
 4190TIP3   OH234060   4.144   1.324  15.516  0.2305  0.3022 -0.4484
 4190TIP3    H134061   4.229   1.296  15.549 -0.6042  0.2404  1.8696
 4190TIP3    H234062   4.109   1.247  15.470  1.3010  0.2605 -1.2233
 4191TIP3   OH234063   0.884   1.628  15.604  0.5211  0.0597  0.3779
 4191TIP3    H134064   0.960   1.684  15.595  0.0837  0.4919 -0.8085
 4191TIP3    H234065   0.814   1.686  15.634 -0.3487  0.5845 -2.3466
 4192TIP3   OH234066   5.477   3.809   5.140 -0.1809 -0.0050  0.3133
 4192TIP3    H134067   5.546   3.826   5.075 -0.6407 -0.7053 -0.3643
 4192TIP3    H234068   5.447   3.896   5.166 -1.4571  0.3278 -2.0001
 4193TIP3   OH234069   1.085   0.088  17.049  0.2097 -0.4793 -0.1611
 4193TIP3    H134070   1.076   0.127  16.963  1.7634 -2.0014 -1.0927
 4193TIP3    H234071   1.014   0.125  17.101 -0.1781  1.1949 -1.8096
 4194TIP3   OH234072   6.455   6.105   0.434 -0.8201  0.3749  0.5407
 4194TIP3    H134073   6.455   6.116   0.339  0.3794 -0.2395  0.4487
 4194TIP3    H234074   6.428   6.191   0.468  1.3634  1.4859 -0.3003
 4195TIP3   OH234075   2.839   5.025  10.791  0.3490  0.3544  0.2769
 4195TIP3    H134076   2.871   5.113  10.813  0.0811  0.6327 -0.4019
 4195TIP3    H234077   2.847   5.021  10.695  2.9562 -1.3736  0.4621
 4196TIP3   OH234078   6.598   3.162   0.615 -0.0487  0.3863 -0.4320
 4196TIP3    H134079   6.615   3.100   0.544  1.5412 -1.2359  1.2569
 4196TIP3    H234080   6.684   3.175   0.656 -1.2543 -0.8362  2.7927
 4197TIP3   OH234081   1.970   4.460   4.189 -0.2218 -0.2751 -0.0893
 4197TIP3    H134082   1.897   4.401   4.211 -0.8410  0.5931  0.2594
 4197TIP3    H234083   2.048   4.411   4.211 -0.6817 -1.4256 -0.9352
 4198TIP3   OH234084   2.625   5.292   5.335  0.4034 -0.2005 -0.1914
 4198TIP3    H134085   2.634   5.382   5.365 -0.0040 -0.3016  0.2418
 4198TIP3    H234086   2.561   5.295   5.264  0.9846 -0.0367 -0.7195
 4199TIP3   OH234087   5.909   5.742  16.869  0.0731 -0.1283 -0.2035
 4199TIP3    H134088   5.939   5.679  16.804 -1.9560 -0.2125 -1.1236
 4199TIP3    H234089   5.854   5.803  16.821 -2.2985 -0.7483  1.5111
 4200TIP3   OH234090   4.059   2.450   4.533  0.3098  0.0720 -0.2327
 4200TIP3    H134091   4.049   2.537   4.493  2.3104 -0.1292 -1.2842
 4200TIP3    H234092   4.154   2.438   4.540  0.0424 -1.4909  1.1359
 4201TIP3   OH234093   2.672   3.966  13.724 -0.0717  0.1534 -0.4209
 4201TIP3    H134094   2.720   3.948  13.805  2.4463  0.7089 -1.6896
 4201TIP3    H234095   2.701   3.898  13.663  0.0724  1.2388 -1.6163
 4202TIP3   OH234096   1.220   5.272  10.867 -0.8147 -0.1281  0.3766
 4202TIP3    H134097   1.162   5.198  10.849 -0.7986  0.1298 -0.8833
 4202TIP3    H234098   1.161   5.343  10.892 -0.7371 -0.9000  2.9719
 4203TIP3   OH234099   0.814   0.438   4.993 -0.8078  0.3507  0.0121
 4203TIP3    H134100   0.757   0.475   4.926 -0.2192  1.8049  0.2794
 4203TIP3    H234101   0.802   0.494   5.070 -0.7806 -0.7386  0.8478
 4204TIP3   OH234102   4.116   1.812  15.422  0.3179 -0.6215 -0.0972
 4204TIP3    H134103   4.177   1.873  15.464  0.2637 -0.3057 -0.4740
 4204TIP3    H234104   4.032   1.857  15.426  0.0287 -1.2155  0.7556
 4205TIP3   OH234105   6.233   6.284   2.431  0.1685  0.1536 -0.2427
 4205TIP3    H134106   6.150   6.243   2.457  0.3606  0.0216  0.1772
 4205TIP3    H234107   6.209   6.373   2.405 -0.3661 -0.4434 -1.9203
 4206TIP3   OH234108   4.153   4.058   4.021  0.3443  0.1825  0.0718
 4206TIP3    H134109   4.170   4.148   3.993  1.1613 -0.6281 -2.2757
 4206TIP3    H234110   4.114   4.017   3.944 -1.7801 -1.0368  1.6984
 4207TIP3   OH234111   0.132   2.685  12.057  0.3733 -0.5383  0.4040
 4207TIP3    H134112   0.049   2.692  12.104  0.7571 -1.0304  1.1617
 4207TIP3    H234113   0.108   2.697  11.965 -0.4190  0.1794  0.6869
 4208TIP3   OH234114   6.533   2.959  11.257  0.4510  0.4179 -0.5641
 4208TIP3    H134115   6.446   2.918  11.251  0.0239  1.1679  0.1282
 4208TIP3    H234116   6.564   2.964  11.167 -1.5555  2.8358 -1.2339
 4209TIP3   OH234117   5.425   5.325  12.199  0.2847  0.8174  0.2438
 4209TIP3    H134118   5.455   5.407  12.238 -0.4444  1.3391 -0.2728
 4209TIP3    H234119   5.331   5.338  12.185 -0.0342 -0.4692  1.0496
 4210TIP3   OH234120   6.789   2.887   5.630 -0.6222 -0.5930  0.1201
 4210TIP3    H134121   6.875   2.923   5.649 -0.4487 -0.4773 -0.8394
 4210TIP3    H234122   6.767   2.921   5.543 -1.0190 -1.7578 -0.2597
 4211TIP3   OH234123   0.381   4.544   4.555  0.0140  0.8843 -0.2759
 4211TIP3    H134124   0.332   4.553   4.473  0.2335 -1.6383 -0.7617
 4211TIP3    H234125   0.326   4.487   4.609  1.4558 -0.3347 -0.0473
 4212TIP3   OH234126   2.177   6.437   2.524 -0.2207 -0.7381  0.3849
 4212TIP3    H134127   2.244   6.492   2.566 -1.1052  1.0907 -0.4782
 4212TIP3    H234128   2.164   6.365   2.585  2.5502 -1.2023  0.5546
 4213TIP3   OH234129   1.231   1.426   4.515 -0.9990 -0.1571  0.8888
 4213TIP3    H134130   1.294   1.485   4.555 -0.3179 -0.2846  0.0421
 4213TIP3    H234131   1.235   1.446   4.421 -1.2062 -1.1069  0.6585
 4214TIP3   OH234132   5.683   2.011  16.979 -0.3544  0.4834 -0.4265
 4214TIP3    H134133   5.689   2.076  16.909  2.0020  2.1486  1.1563
 4214TIP3    H234134   5.625   2.052  17.044  0.4308  0.6432  0.1867
 4215TIP3   OH234135   1.762   6.390  16.561  0.0929 -0.2554 -0.1702
 4215TIP3    H134136   1.786   6.311  16.610  0.9631  0.6267  0.8798
 4215TIP3    H234137   1.685   6.364  16.510  0.2259 -1.7103  0.3050
 4216TIP3   OH234138   6.333   0.840   4.676 -0.2532  0.4113 -0.0605
 4216TIP3    H134139   6.369   0.842   4.587 -0.3355  1.0172 -0.0901
 4216TIP3    H234140   6.340   0.931   4.706 -0.3022  0.2265  0.5229
 4217TIP3   OH234141   3.534   3.150  14.268 -0.0018  0.1907 -0.4296
 4217TIP3    H134142   3.619   3.132  14.307 -0.0565  1.0784  0.1373
 4217TIP3    H234143   3.504   3.066  14.234  0.1433 -0.5856  1.2470
 4218TIP3   OH234144   0.914   5.318   5.200 -0.4671  0.0753 -0.1690
 4218TIP3    H134145   0.966   5.387   5.243 -1.5127  1.1745 -0.6254
 4218TIP3    H234146   0.951   5.313   5.112 -0.1568 -0.2139 -0.0263
 4219TIP3   OH234147   4.977   2.037   1.334 -0.2775  0.1799  0.0392
 4219TIP3    H134148   4.904   2.088   1.369 -0.4260 -1.2146  1.9341
 4219TIP3    H234149   5.044   2.042   1.402  0.9645  0.4911 -1.1666
 4220TIP3   OH234150   5.639   0.032   2.605  0.0636 -0.6551 -0.7632
 4220TIP3    H134151   5.713   0.039   2.545 -0.5377  0.6306 -1.3699
 4220TIP3    H234152   5.564   0.011   2.550 -0.2822 -0.6346 -0.3114
 4221TIP3   OH234153   3.583   1.068   5.271 -0.2644 -0.2766  0.2022
 4221TIP3    H134154   3.543   1.000   5.325  0.7424 -0.4980  0.6848
 4221TIP3    H234155   3.638   1.020   5.209 -0.1621  0.0578  0.0307
 4222TIP3   OH234156   0.503   4.060   5.022 -0.6395  0.4295 -0.2476
 4222TIP3    H134157   0.448   3.984   5.040 -0.7617  0.5382 -0.1644
 4222TIP3    H234158   0.471   4.092   4.937 -0.2851  0.1168 -0.5020
 4223TIP3   OH234159   5.380   5.253  13.665 -0.1427  0.5445  0.1210
 4223TIP3    H134160   5.426   5.178  13.629  0.5288  0.0898  1.8078
 4223TIP3    H234161   5.414   5.261  13.754 -2.2233  1.1404  0.9199
 4224TIP3   OH234162   4.711   4.721  15.295 -0.3369 -0.0613  0.4358
 4224TIP3    H134163   4.637   4.747  15.351 -0.5700  2.1608 -0.7862
 4224TIP3    H234164   4.673   4.663  15.230 -0.8040  0.1828  0.4853
 4225TIP3   OH234165   2.723   5.399   6.006 -0.0189  0.2097  0.1524
 4225TIP3    H134166   2.736   5.382   6.099  1.7834  2.3597  0.3930
 4225TIP3    H234167   2.692   5.490   6.002 -1.2683 -0.2414 -1.3184
 4226TIP3   OH234168   3.359   2.771  13.185 -0.2195 -0.3219  1.2209
 4226TIP3    H134169   3.299   2.758  13.258  1.4112 -2.4025  2.3184
 4226TIP3    H234170   3.403   2.687  13.175  1.0416  0.5022 -0.8808
 4227TIP3   OH234171   5.216   0.633  13.583 -0.1045  0.3502 -0.1836
 4227TIP3    H134172   5.293   0.685  13.559  0.6952 -0.5432  0.3213
 4227TIP3    H234173   5.212   0.639  13.678 -0.2391 -0.1715 -0.1516
 4228TIP3   OH234174   3.590   3.509   0.102 -0.0912 -0.1172 -1.1663
 4228TIP3    H134175   3.540   3.434   0.071  0.4346 -0.9879  0.0214
 4228TIP3    H234176   3.681   3.486   0.083  0.3312 -0.9699  1.4251
 4229TIP3   OH234177   6.294   1.487   4.465 -0.0178 -0.4153 -0.0659
 4229TIP3    H134178   6.205   1.511   4.439  0.4624  0.1892 -1.2395
 4229TIP3    H234179   6.303   1.518   4.555  0.1022  2.6393 -1.0329
 4230TIP3   OH234180   2.155   3.254  14.711 -0.1638  0.8575  0.0253
 4230TIP3    H134181   2.099   3.244  14.788 -0.3266 -0.0743 -0.1982
 4230TIP3    H234182   2.094   3.262  14.638 -0.0477 -0.5551 -0.2699
 4231TIP3   OH234183   5.501   2.935  16.983 -0.3979 -0.3588 -0.4188
 4231TIP3    H134184   5.500   2.843  17.008  1.8954 -0.0767  0.9979
 4231TIP3    H234185   5.412   2.966  16.999 -0.3231 -1.4353  2.8640
 4232TIP3   OH234186   5.129   3.848   2.949 -0.6600  0.2984  0.6225
 4232TIP3    H134187   5.173   3.921   2.907  0.4500 -0.7666 -0.1224
 4232TIP3    H234188   5.035   3.866   2.937 -0.4024  1.4292  0.1986
 4233TIP3   OH234189   1.622   4.667  13.869 -0.2384  0.1943 -0.2132
 4233TIP3    H134190   1.593   4.616  13.945 -1.7697  1.3587  0.0418
 4233TIP3    H234191   1.712   4.690  13.889 -0.5523  0.3071  1.1818
 4234TIP3   OH234192   2.633   2.054   0.191  1.2845  0.6307 -0.0058
 4234TIP3    H134193   2.639   1.961   0.173 -0.6438 -0.0249  2.2324
 4234TIP3    H234194   2.681   2.067   0.273  1.1145  1.5113 -0.0267
 4235TIP3   OH234195   1.351   2.273   1.982  0.0379 -0.4535  0.5767
 4235TIP3    H134196   1.323   2.364   1.987 -2.3055 -1.1653  4.1589
 4235TIP3    H234197   1.317   2.242   1.898 -1.0673  1.4028  0.2863
 4236TIP3   OH234198   6.187   3.125   4.463  0.0587  0.5170 -0.3363
 4236TIP3    H134199   6.250   3.056   4.485 -0.7019 -0.3792 -0.8967
 4236TIP3    H234200   6.102   3.083   4.469 -0.4157  1.3571 -0.8789
 4237TIP3   OH234201   6.642   0.575  11.485  0.3066  0.2134 -0.5100
 4237TIP3    H134202   6.616   0.567  11.577 -0.2723 -1.2571 -0.7667
 4237TIP3    H234203   6.672   0.665  11.476  1.2609  0.1282  1.3467
 4238TIP3   OH234204   2.115   2.800  15.285  0.0412  0.2024  0.0268
 4238TIP3    H134205   2.042   2.783  15.226  0.6141 -1.8879 -0.1552
 4238TIP3    H234206   2.190   2.815  15.228  0.4336 -1.0483  0.1806
 4239TIP3   OH234207   4.004   5.781  14.885 -0.2687 -0.5607 -0.0788
 4239TIP3    H134208   4.042   5.750  14.967 -0.1907  0.0999  0.1393
 4239TIP3    H234209   4.065   5.848  14.854 -1.2527  0.5575  0.3067
 4240TIP3   OH234210   1.688   3.476  16.349 -0.2128  0.1240  0.5216
 4240TIP3    H134211   1.699   3.419  16.425  0.5805  0.2409  0.4978
 4240TIP3    H234212   1.776   3.509  16.330 -0.1704 -0.8402 -1.1850
 4241TIP3   OH234213   6.817   3.050  12.104  0.3946  0.8402  0.8475
 4241TIP3    H134214   6.783   2.968  12.139  0.1723  0.9494  0.8902
 4241TIP3    H234215   6.882   3.024  12.039  0.1653  0.6267  0.6997
 4242TIP3   OH234216   4.391   1.697  13.346 -0.2787  0.3823 -0.7617
 4242TIP3    H134217   4.333   1.622  13.335  0.7934 -0.4619 -0.7494
 4242TIP3    H234218   4.356   1.743  13.422 -2.3835  1.2743 -2.1728
 4243TIP3   OH234219   5.637   5.938   1.796  0.4592  0.1708 -0.1871
 4243TIP3    H134220   5.624   6.021   1.751  1.0507  0.1038 -0.4872
 4243TIP3    H234221   5.626   5.959   1.889 -0.6096  0.3349 -0.3447
 4244TIP3   OH234222   3.345   4.957  16.063  0.5257  0.0005  0.1176
 4244TIP3    H134223   3.424   4.986  16.018  0.1889  1.3725  0.3790
 4244TIP3    H234224   3.330   5.023  16.130  0.0066 -1.0588  1.0822
 4245TIP3   OH234225   3.000   2.615  12.554 -0.1075 -0.1019 -0.0440
 4245TIP3    H134226   3.004   2.523  12.527 -1.8579 -0.2431  0.0653
 4245TIP3    H234227   3.091   2.638  12.575  1.0912 -0.6603 -3.7720
 4246TIP3   OH234228   4.999   2.530   3.336  0.3154  0.6039 -0.1579
 4246TIP3    H134229   5.059   2.601   3.312  2.9196 -1.5216 -0.3263
 4246TIP3    H234230   4.998   2.473   3.259  0.1728 -0.7407  0.8129
 4247TIP3   OH234231   1.478   3.975  11.225 -0.0571  0.1158  0.5184
 4247TIP3    H134232   1.390   3.937  11.224 -1.5543  3.2331  0.4273
 4247TIP3    H234233   1.498   3.984  11.319  0.5993 -1.3995  0.5458
 4248TIP3   OH234234   1.644   5.397   5.448 -0.0411  0.0131  0.0213
 4248TIP3    H134235   1.723   5.359   5.486 -0.2554 -1.8248 -1.2325
 4248TIP3    H234236   1.573   5.341   5.478 -0.3810 -0.6354 -1.8192
 4249TIP3   OH234237   0.531   0.708   2.359  0.0347  0.2942 -0.1626
 4249TIP3    H134238   0.460   0.644   2.359 -0.3255  0.5726 -2.4898
 4249TIP3    H234239   0.490   0.790   2.330  0.9328  0.9785  0.4177
 4250TIP3   OH234240   1.718   2.723  12.573  0.7624 -0.1994  0.1610
 4250TIP3    H134241   1.802   2.762  12.550  0.6133 -0.2564 -0.5146
 4250TIP3    H234242   1.654   2.773  12.523  0.4161 -0.3029  0.4949
 4251TIP3   OH234243   2.202   3.958  14.090 -0.6390 -0.0250  0.0652
 4251TIP3    H134244   2.273   3.928  14.147 -0.2397 -1.7831 -1.2826
 4251TIP3    H234245   2.166   4.034  14.136  0.0141 -1.0048  2.3642
 4252TIP3   OH234246   6.130   4.924   1.596  0.3533  0.2935 -0.2649
 4252TIP3    H134247   6.077   4.993   1.636  1.0408  0.4716  0.3552
 4252TIP3    H234248   6.067   4.857   1.570 -0.0877 -0.1048  1.6773
 4253TIP3   OH234249   4.935   5.069  13.043  0.2091  0.4979 -0.0722
 4253TIP3    H134250   4.911   4.986  13.084  0.7585  0.2777 -0.1926
 4253TIP3    H234251   4.861   5.090  12.986  1.0729 -1.1328 -1.9134
 4254TIP3   OH234252   1.708   5.382   0.681 -0.4447 -0.4492  0.3917
 4254TIP3    H134253   1.793   5.424   0.698 -0.9649  1.0373 -0.4435
 4254TIP3    H234254   1.702   5.313   0.747  1.6489 -0.9790  0.1257
 4255TIP3   OH234255   6.119   3.103  11.235  0.3897  0.3287 -0.1113
 4255TIP3    H134256   6.050   3.167  11.252 -0.1113  0.0885 -1.1545
 4255TIP3    H234257   6.199   3.155  11.229  0.0685  0.7929 -0.4164
 4256TIP3   OH234258   6.167   1.711   4.145  0.3299  0.0707  0.6121
 4256TIP3    H134259   6.164   1.647   4.215 -0.7035 -0.2874  0.2611
 4256TIP3    H234260   6.180   1.795   4.189  2.0620 -0.3886  1.0495
 4257TIP3   OH234261   6.707   2.402   1.148  0.3905  0.4032  0.2405
 4257TIP3    H134262   6.701   2.444   1.233  1.5056 -0.3779  0.7232
 4257TIP3    H234263   6.698   2.473   1.085  0.2428  1.0764  1.0084
 4258TIP3   OH234264   0.499   4.909   6.536 -0.2829 -0.0605  0.1700
 4258TIP3    H134265   0.545   4.827   6.553 -0.2208  0.2601  1.6818
 4258TIP3    H234266   0.407   4.888   6.555 -0.2635  0.2137  0.5777
 4259TIP3   OH234267   2.782   2.602  10.656 -0.5949 -0.1040  0.2965
 4259TIP3    H134268   2.781   2.650  10.573  0.7156 -0.9394 -0.2482
 4259TIP3    H234269   2.692   2.603  10.686 -0.9493  0.9321 -0.7269
 4260TIP3   OH234270   4.659   4.344   4.751 -0.1648 -0.4673 -0.1562
 4260TIP3    H134271   4.728   4.311   4.694  0.7086  0.1669  0.5020
 4260TIP3    H234272   4.584   4.287   4.734  1.0502 -2.2866  0.3643
 4261TIP3   OH234273   4.988   3.895   4.933  0.5852  0.2397  0.5447
 4261TIP3    H134274   5.022   3.985   4.932 -0.1360  0.5177  0.6341
 4261TIP3    H234275   5.041   3.850   4.999  1.8679  0.2271 -0.4485
 4262TIP3   OH234276   1.685   5.076   0.087  0.6133  0.2020  0.0063
 4262TIP3    H134277   1.675   5.118   0.172 -1.0672  0.2312 -0.1767
 4262TIP3    H234278   1.734   4.996   0.105 -0.9147 -0.4928  1.2384
 4263TIP3   OH234279   1.640   6.781   5.557  0.6012 -0.1198 -0.5264
 4263TIP3    H134280   1.711   6.839   5.585  1.3202 -2.2940  2.7404
 4263TIP3    H234281   1.683   6.700   5.531 -0.5808 -1.3856  1.2230
 4264TIP3   OH234282   2.508   3.065   5.529  0.5315  0.1650 -0.1439
 4264TIP3    H134283   2.585   3.028   5.484  0.9321  0.3231  0.3982
 4264TIP3    H234284   2.488   3.144   5.480  0.5297 -0.0354 -0.4711
 4265TIP3   OH234285   6.440   5.335   3.504 -0.0847  0.2113 -0.2746
 4265TIP3    H134286   6.387   5.393   3.560  0.6364 -1.2100  2.0131
 4265TIP3    H234287   6.423   5.248   3.538  1.3818 -0.5911 -1.5098
 4266TIP3   OH234288   4.209   5.136   4.138  0.4735 -0.0648 -0.9275
 4266TIP3    H134289   4.154   5.207   4.172 -1.9042 -1.8104 -0.8359
 4266TIP3    H234290   4.190   5.135   4.044  0.0834 -0.8726 -0.8495
 4267TIP3   OH234291   2.304   4.027   3.792  0.4845  0.4499 -0.1849
 4267TIP3    H134292   2.324   3.948   3.742  1.7747 -0.0833  1.0896
 4267TIP3    H234293   2.369   4.027   3.863 -0.2396  2.0326  0.5188
 4268TIP3   OH234294   6.670   1.122  16.151 -0.3233  0.3793  0.1466
 4268TIP3    H134295   6.579   1.102  16.173  0.0838 -2.2636 -0.2738
 4268TIP3    H234296   6.674   1.218  16.154 -3.4812  0.7158 -1.3126
 4269TIP3   OH234297   3.800   0.543  16.581  0.0845  0.5255  0.0548
 4269TIP3    H134298   3.737   0.553  16.510  0.0159  1.3093  0.2130
 4269TIP3    H234299   3.881   0.516  16.538  0.1244  1.2915 -0.3623
 4270TIP3   OH234300   3.314   1.127  15.599 -0.2789  0.2844  0.6435
 4270TIP3    H134301   3.226   1.092  15.609 -0.6738  1.1368  0.2812
 4270TIP3    H234302   3.347   1.088  15.518  0.7764 -2.2105  2.1409
 4271TIP3   OH234303   5.122   4.298  15.455  0.1211  0.2414  0.1747
 4271TIP3    H134304   5.216   4.315  15.453  0.0906  0.3571 -0.8643
 4271TIP3    H234305   5.087   4.363  15.516  0.7017  0.2151  0.5432
 4272TIP3   OH234306   1.609   4.984  10.641  0.6215  1.0478 -0.0973
 4272TIP3    H134307   1.561   4.962  10.561  2.2856  0.4293 -0.9834
 4272TIP3    H234308   1.543   5.022  10.699 -1.0817 -0.5224 -0.9180
 4273TIP3   OH234309   2.594   1.516  11.479  0.3865 -0.0813 -0.7336
 4273TIP3    H134310   2.514   1.552  11.440  0.8476  1.4290 -0.3760
 4273TIP3    H234311   2.574   1.424  11.495 -1.6678  0.4908  0.3331
 4274TIP3   OH234312   1.971   0.705   3.684  0.1738  0.0020 -0.2948
 4274TIP3    H134313   1.940   0.684   3.772  0.7864  0.2499 -0.0102
 4274TIP3    H234314   2.040   0.770   3.698  0.9878 -0.7102 -0.8757
 4275TIP3   OH234315   4.919   0.196   1.569  0.3594  0.0763 -0.2572
 4275TIP3    H134316   4.901   0.123   1.509  2.1203  0.3512 -1.1997
 4275TIP3    H234317   4.999   0.169   1.615  0.7865  1.2365 -0.3116
 4276TIP3   OH234318   6.091   2.783  16.819 -0.6490 -0.4262 -0.9548
 4276TIP3    H134319   6.077   2.868  16.861  1.3956  0.0444 -1.0822
 4276TIP3    H234320   6.114   2.804  16.729  1.6177 -0.9169 -0.5639
 4277TIP3   OH234321   5.249   6.565  11.367 -0.1646  0.0411  0.5154
 4277TIP3    H134322   5.179   6.555  11.432  0.8680  1.1892  1.8813
 4277TIP3    H234323   5.231   6.497  11.302 -2.3517  0.1018  0.9667
 4278TIP3   OH234324   4.992   2.686   4.186 -0.1185 -0.3954  0.1480
 4278TIP3    H134325   5.042   2.652   4.260  2.1273  1.0147 -0.6113
 4278TIP3    H234326   4.901   2.674   4.211  0.5506  0.0498  3.1648
 4279TIP3   OH234327   6.782   3.876  10.967 -0.7086 -0.1453  0.7623
 4279TIP3    H134328   6.865   3.836  10.993 -1.6782 -1.4918  1.9053
 4279TIP3    H234329   6.808   3.956  10.921  1.2040 -0.3170  1.4477
 4280TIP3   OH234330   0.106   3.114  15.071  0.8366 -0.0219 -0.0320
 4280TIP3    H134331   0.193   3.086  15.101  0.8478  1.1047  1.0700
 4280TIP3    H234332   0.088   3.193  15.122 -0.1302  0.6940 -1.4331
 4281TIP3   OH234333   5.769   4.760   5.076  0.2296 -0.5125  0.0401
 4281TIP3    H134334   5.721   4.839   5.051 -1.1561 -1.2555  0.1983
 4281TIP3    H234335   5.746   4.746   5.168  2.0388 -0.0380  0.5949
 4282TIP3   OH234336   5.096   4.355  12.309  1.1898 -0.4046  0.1865
 4282TIP3    H134337   5.153   4.430  12.326  0.3302  0.7140 -1.6086
 4282TIP3    H234338   5.157   4.284  12.285  1.8982  0.4613 -0.6490
 4283TIP3   OH234339   5.692   1.478   0.057 -0.1843  0.1232  0.3908
 4283TIP3    H134340   5.669   1.454   0.147  0.1447  2.2840  1.1130
 4283TIP3    H234341   5.708   1.572   0.061 -0.0705  0.2521 -1.9369
 4284TIP3   OH234342   6.496   4.768  15.282  0.0544  0.1463 -0.1504
 4284TIP3    H134343   6.488   4.769  15.187  0.3236  3.4179 -0.2694
 4284TIP3    H234344   6.563   4.834  15.301 -1.9926  1.7406  2.3503
 4285TIP3   OH234345   6.042   0.950   4.865  0.5122 -0.0810  0.1303
 4285TIP3    H134346   6.082   0.910   4.788  0.6666 -1.3605  0.8484
 4285TIP3    H234347   5.952   0.968   4.837  0.7228  0.0021 -0.5236
 4286TIP3   OH234348   6.733   2.089   4.660  0.3552 -0.2703 -0.6312
 4286TIP3    H134349   6.656   2.130   4.621  0.4713  0.3953 -0.1779
 4286TIP3    H234350   6.700   2.009   4.702  0.3126 -1.3352 -2.5558
 4287TIP3   OH234351   0.873   3.438  11.596  0.0984 -0.8397 -0.4246
 4287TIP3    H134352   0.944   3.432  11.532  2.1093 -0.6353  1.6502
 4287TIP3    H234353   0.897   3.512  11.652 -2.1498 -0.3276 -0.0517
 4288TIP3   OH234354   4.523   0.633   1.122  0.1651 -0.0011 -0.0056
 4288TIP3    H134355   4.542   0.692   1.195  0.1279  0.0271 -0.0187
 4288TIP3    H234356   4.444   0.670   1.081 -0.1997 -0.3883  0.3414
 4289TIP3   OH234357   2.652   6.644   6.615 -0.0530  1.4552 -0.2651
 4289TIP3    H134358   2.638   6.716   6.676 -1.1441  0.8604  0.2111
 4289TIP3    H234359   2.678   6.687   6.533 -0.7537  2.3978 -0.0143
 4290TIP3   OH234360   3.477   4.967   1.406 -0.2458 -0.0690 -0.5371
 4290TIP3    H134361   3.485   5.023   1.330  0.8612 -0.5676 -0.8105
 4290TIP3    H234362   3.525   4.887   1.383 -0.1306 -0.3476  0.5680
 4291TIP3   OH234363   2.848   2.935   1.841 -0.3407 -0.0856 -0.3992
 4291TIP3    H134364   2.772   2.949   1.898  0.0145 -1.4151  0.4283
 4291TIP3    H234365   2.880   3.024   1.824 -0.7777  0.3837  1.0358
 4292TIP3   OH234366   3.535   1.984   0.669  0.2151 -0.0668  0.7309
 4292TIP3    H134367   3.626   1.972   0.693  0.5068 -1.6254 -0.8889
 4292TIP3    H234368   3.514   1.907   0.615 -1.1625  1.6571 -1.3916
 4293TIP3   OH234369   0.525   0.626  16.458 -0.5543  0.4011 -0.2567
 4293TIP3    H134370   0.613   0.657  16.481 -1.5075  0.8264  3.4528
 4293TIP3    H234371   0.532   0.531  16.461 -0.5470  0.4241  1.9182
 4294TIP3   OH234372   2.548   0.431   0.990 -0.0773  0.1673  0.0024
 4294TIP3    H134373   2.479   0.496   0.978  0.1165  0.3997  0.1341
 4294TIP3    H234374   2.504   0.358   1.034 -0.2249  0.3458  0.1585
 4295TIP3   OH234375   0.577   3.058  16.545 -0.1014  0.3024 -0.1258
 4295TIP3    H134376   0.513   3.084  16.479 -0.8127 -0.6028  0.1679
 4295TIP3    H234377   0.646   3.013  16.496 -1.7120 -2.4044 -0.1316
 4296TIP3   OH234378   4.215   2.727  12.943  0.3968 -0.4010  0.1491
 4296TIP3    H134379   4.279   2.796  12.925  1.1582 -1.6665 -2.2811
 4296TIP3    H234380   4.255   2.675  13.013  1.0428  0.0556  0.1282
 4297TIP3   OH234381   6.044   0.113   0.462 -0.1349  0.3101 -0.0933
 4297TIP3    H134382   6.021   0.188   0.516  0.5890  0.1836  0.4117
 4297TIP3    H234383   6.104   0.062   0.517 -1.9015 -1.5147  0.2267
 4298TIP3   OH234384   0.107   3.433  12.750 -0.3271 -0.4292 -0.0118
 4298TIP3    H134385   0.041   3.451  12.682 -0.4613 -0.4988  0.1000
 4298TIP3    H234386   0.136   3.520  12.778 -2.0484 -0.2873  1.5842
 4299TIP3   OH234387   1.538   3.387   1.660  0.0498 -0.0880  0.0122
 4299TIP3    H134388   1.526   3.403   1.567  1.7431  3.0082  0.1791
 4299TIP3    H234389   1.594   3.309   1.664  0.6506  0.2255 -1.6126
 4300TIP3   OH234390   2.600   4.684   5.043 -0.8118 -0.1766  0.1419
 4300TIP3    H134391   2.624   4.754   4.982  2.2001 -2.0448 -1.0847
 4300TIP3    H234392   2.648   4.705   5.123 -0.9211 -0.1561  0.2008
 4301TIP3   OH234393   5.922   5.626  11.156  0.3236  0.5128  0.6149
 4301TIP3    H134394   5.827   5.625  11.164  0.3446  1.8664  1.3178
 4301TIP3    H234395   5.943   5.542  11.115 -1.1575  0.1671  0.4859
 4302TIP3   OH234396   4.198   5.959  14.807  0.1818 -0.4614  0.2645
 4302TIP3    H134397   4.168   6.049  14.794 -0.5905 -0.6436  0.7196
 4302TIP3    H234398   4.267   5.946  14.742  0.6557  0.6261  0.5346
 4303TIP3   OH234399   4.443   4.797  13.471  0.5140 -0.1564 -0.0297
 4303TIP3    H134400   4.352   4.769  13.464 -0.6144  2.3097  2.5254
 4303TIP3    H234401   4.494   4.717  13.463 -1.8656 -1.6566 -1.2479
 4304TIP3   OH234402   5.586   3.988  11.402  0.0727 -0.4929  0.1833
 4304TIP3    H134403   5.528   3.988  11.326 -1.1103  0.2531  1.0480
 4304TIP3    H234404   5.531   3.959  11.475  1.0605 -0.7486  0.8547
 4305TIP3   OH234405   6.239   0.620   1.461  0.3281  0.1034 -0.3866
 4305TIP3    H134406   6.216   0.554   1.395  1.5185 -0.6849 -0.0416
 4305TIP3    H234407   6.318   0.661   1.427  1.0250 -0.3936  0.5839
 4306TIP3   OH234408   0.870   0.165   4.983  0.8244 -0.2145  0.2022
 4306TIP3    H134409   0.867   0.258   5.006 -0.9360  0.4598 -2.3325
 4306TIP3    H234410   0.827   0.121   5.056 -3.0468  1.5978 -0.6977
 4307TIP3   OH234411   0.959   3.067   2.746 -0.1763 -0.2575 -0.2327
 4307TIP3    H134412   0.868   3.049   2.724 -0.4260 -0.1672  0.7025
 4307TIP3    H234413   0.998   2.980   2.756 -0.2824 -0.2982 -0.1640
 4308TIP3   OH234414   4.488   6.790  16.786  0.0064  0.0351 -0.0414
 4308TIP3    H134415   4.449   6.703  16.796  0.5637 -0.2874 -0.5931
 4308TIP3    H234416   4.582   6.774  16.786  0.1791  0.1235 -4.0423
 4309TIP3   OH234417   1.566   3.091  16.463  0.0300 -0.3185  0.2502
 4309TIP3    H134418   1.543   3.179  16.493 -0.2487  0.1031 -1.1250
 4309TIP3    H234419   1.482   3.046  16.455  0.1031 -0.4410  0.1619
 4310TIP3   OH234420   1.259   6.065   2.432  0.3321 -0.0598  0.3603
 4310TIP3    H134421   1.187   6.043   2.374 -0.2975  0.9860  0.7091
 4310TIP3    H234422   1.216   6.096   2.512  0.9749  4.1728 -0.6807
 4311TIP3   OH234423   1.264   1.300  15.648 -0.2056 -0.0025  0.3698
 4311TIP3    H134424   1.336   1.319  15.709  1.0583  0.0659 -1.0805
 4311TIP3    H234425   1.277   1.362  15.576 -0.8205 -0.9893 -0.6224
 4312TIP3   OH234426   0.423   0.158  10.817  0.3865 -0.6734 -0.4856
 4312TIP3    H134427   0.449   0.236  10.768 -0.8695  1.1078  1.5036
 4312TIP3    H234428   0.341   0.130  10.776  0.0630 -0.0283 -0.2886
 4313TIP3   OH234429   1.287   5.909   3.817 -0.2440 -0.3383  0.1214
 4313TIP3    H134430   1.286   5.823   3.859  0.6056  0.9026  2.8594
 4313TIP3    H234431   1.201   5.947   3.838 -1.0140 -0.8171 -1.9141
 4314TIP3   OH234432   6.619   6.617   3.153 -0.4426 -0.5716 -0.8186
 4314TIP3    H134433   6.566   6.594   3.230 -0.0579 -0.2334 -0.4490
 4314TIP3    H234434   6.574   6.574   3.080 -0.4100 -1.5009 -0.3158
 4315TIP3   OH234435   0.343   3.989   5.839 -0.7250  0.4906  0.2715
 4315TIP3    H134436   0.277   4.006   5.907 -1.1193  1.4671 -0.3341
 4315TIP3    H234437   0.293   3.971   5.760 -0.2877  1.3884 -0.2325
 4316TIP3   OH234438   3.477   2.665   3.555 -0.2929 -0.0520 -0.0949
 4316TIP3    H134439   3.561   2.707   3.533  0.0727 -0.7924 -0.1269
 4316TIP3    H234440   3.442   2.636   3.471 -1.2700  1.4898 -0.2586
 4317TIP3   OH234441   5.513   2.173  14.282 -0.4708 -0.5837 -0.1376
 4317TIP3    H134442   5.597   2.127  14.294  0.2223  1.0694  2.1711
 4317TIP3    H234443   5.473   2.130  14.207  2.2340 -1.7524 -1.0596
 4318TIP3   OH234444   5.874   3.662   4.912  0.2530 -0.7013 -0.2067
 4318TIP3    H134445   5.907   3.574   4.894  0.8165 -0.7463  0.9125
 4318TIP3    H234446   5.950   3.719   4.900  0.0050 -0.4228 -0.4735
 4319TIP3   OH234447   0.137   0.019  14.361  0.0112  0.7283 -0.7165
 4319TIP3    H134448   0.076   0.055  14.296  1.9571  1.4042 -2.2971
 4319TIP3    H234449   0.173  -0.059  14.318 -0.4139 -0.2136  0.5897
 4320TIP3   OH234450   1.519   2.506   2.535 -0.6357  0.0859  0.0915
 4320TIP3    H134451   1.552   2.460   2.457 -0.5615 -0.7614  0.6184
 4320TIP3    H234452   1.589   2.497   2.599  0.3286  2.7604 -0.4326
 4321TIP3   OH234453   2.758   5.570  15.780  0.3105 -0.6649 -0.1324
 4321TIP3    H134454   2.691   5.519  15.735  0.4119 -0.2348 -0.7840
 4321TIP3    H234455   2.805   5.615  15.710 -0.8975  1.7087  0.5019
 4322TIP3   OH234456   4.126   1.943  12.846  0.6576 -0.0520 -0.2217
 4322TIP3    H134457   4.064   2.014  12.863 -1.7313 -2.2866  0.9791
 4322TIP3    H234458   4.092   1.900  12.768  1.4341 -0.5825 -0.2795
 4323TIP3   OH234459   2.812   2.663   1.366 -0.6364  0.1537  0.1903
 4323TIP3    H134460   2.864   2.604   1.420 -0.8192 -0.7996 -0.6496
 4323TIP3    H234461   2.722   2.635   1.379 -0.8979  1.2742  0.9968
 4324TIP3   OH234462   1.075   1.961   2.319  0.1956  0.1215 -0.6214
 4324TIP3    H134463   1.135   1.889   2.337 -1.0724 -0.7426  0.3169
 4324TIP3    H234464   1.088   2.022   2.392  0.3425  0.2263 -0.7335
 4325TIP3   OH234465   0.635   6.086  15.881 -0.3546  0.6312 -0.3646
 4325TIP3    H134466   0.640   5.999  15.922  1.1412  0.2489 -1.2882
 4325TIP3    H234467   0.551   6.121  15.910 -0.3288 -0.5191  1.2199
 4326TIP3   OH234468   5.205   5.414  15.463 -0.0389  0.1292 -0.0054
 4326TIP3    H134469   5.133   5.386  15.408 -0.0139  0.4492 -0.2029
 4326TIP3    H234470   5.279   5.424  15.404  0.0603  0.2041  0.1299
 4327TIP3   OH234471   6.700   0.969  12.647 -0.6397 -0.0157 -0.1573
 4327TIP3    H134472   6.605   0.976  12.634 -0.5789  2.0617  0.1899
 4327TIP3    H234473   6.715   1.006  12.734  0.5629  0.3388 -0.4913
 4328TIP3   OH234474   5.342   6.814   1.476 -0.3965  0.0606 -0.1700
 4328TIP3    H134475   5.391   6.892   1.502 -2.2037  1.2166 -0.0753
 4328TIP3    H234476   5.402   6.742   1.494  0.1561  1.1160  3.0439
 4329TIP3   OH234477   2.983   3.270  12.698 -0.1082 -0.0938  0.0773
 4329TIP3    H134478   2.980   3.365  12.690 -3.7526 -0.1027 -0.1918
 4329TIP3    H234479   2.949   3.252  12.786 -1.0385 -1.1563 -0.4777
 4330TIP3   OH234480   1.737   0.584  11.347 -1.0137 -0.9859 -0.1619
 4330TIP3    H134481   1.660   0.638  11.368 -1.9782 -2.6066  0.6434
 4330TIP3    H234482   1.767   0.551  11.432  2.3710  1.8158 -0.0455
 4331TIP3   OH234483   3.322   6.620  14.355  0.6053  0.1060  0.1426
 4331TIP3    H134484   3.395   6.681  14.360  0.4835  0.3780 -1.0360
 4331TIP3    H234485   3.253   6.669  14.311 -0.4886  0.0211  1.6952
 4332TIP3   OH234486   4.243   2.357   0.181  0.2594 -0.2363 -0.8803
 4332TIP3    H134487   4.148   2.355   0.195  0.0416  0.1988 -2.1768
 4332TIP3    H234488   4.280   2.342   0.268 -0.9906 -1.3790 -0.5117
 4333TIP3   OH234489   6.128   2.052  15.315 -0.2140 -0.1705 -0.0057
 4333TIP3    H134490   6.070   2.128  15.313  0.7055  0.5612  0.6951
 4333TIP3    H234491   6.190   2.067  15.243  0.5587  0.2366  0.7272
 4334TIP3   OH234492   0.114   0.196  13.875 -0.0395  0.6119  0.6643
 4334TIP3    H134493   0.071   0.205  13.960 -1.9441 -1.2197 -0.0223
 4334TIP3    H234494   0.074   0.264  13.821 -0.9490 -0.0544  0.4755
 4335TIP3   OH234495   3.144   2.554   3.503 -0.4147 -0.2636  0.5387
 4335TIP3    H134496   3.120   2.474   3.548 -1.1287 -0.0188  0.6001
 4335TIP3    H234497   3.086   2.621   3.539  1.3239  0.6766  1.7655
 4336TIP3   OH234498   3.489   0.969   4.985 -0.1015  0.3144  0.1776
 4336TIP3    H134499   3.559   0.953   5.048  0.3302  0.8793 -0.1506
 4336TIP3    H234500   3.410   0.980   5.038 -0.7647 -4.0124  0.4647
 4337TIP3   OH234501   0.041   0.892  14.423  0.5831 -0.5188  0.2171
 4337TIP3    H134502   0.058   0.980  14.456 -0.7727 -0.1979  0.1006
 4337TIP3    H234503   0.082   0.834  14.486 -1.4539  0.0882  2.2100
 4338TIP3   OH234504   3.741   4.471   0.864  0.5095 -0.5338  0.0533
 4338TIP3    H134505   3.804   4.531   0.824  0.9947 -1.3518 -0.4466
 4338TIP3    H234506   3.793   4.396   0.892 -0.0886 -0.7428  0.6332
 4339TIP3   OH234507   6.585   4.013   1.252  0.2922  0.0791 -0.2201
 4339TIP3    H134508   6.512   4.008   1.190 -1.6269  1.1585  1.7891
 4339TIP3    H234509   6.563   3.949   1.319 -0.2561  2.2094  1.7448
 4340TIP3   OH234510   2.053   0.125   3.879 -0.4029 -0.5805  0.0178
 4340TIP3    H134511   1.983   0.089   3.933  0.7039 -0.9721  1.2678
 4340TIP3    H234512   2.015   0.201   3.837 -1.4975 -0.6221  0.8835
 4341TIP3   OH234513   0.304   1.668  11.863  0.2668  0.9311  0.1503
 4341TIP3    H134514   0.262   1.649  11.780  1.5057  1.0799 -0.5348
 4341TIP3    H234515   0.339   1.584  11.892  0.0461  0.9258  0.4059
 4342TIP3   OH234516   4.210   1.920  12.260 -0.5333 -0.4304  0.5465
 4342TIP3    H134517   4.132   1.915  12.204  0.2337 -1.9486 -0.4495
 4342TIP3    H234518   4.245   2.008  12.245 -0.9826 -0.4141 -0.4760
 4343TIP3   OH234519   0.969   1.961   3.474  0.4293  0.3094  0.4527
 4343TIP3    H134520   1.051   2.004   3.499 -0.3685  1.5495  1.0501
 4343TIP3    H234521   0.949   1.902   3.547  0.5238  0.3926  0.5451
 4344TIP3   OH234522   5.931   0.975   5.792 -0.0915 -0.1617  0.8656
 4344TIP3    H134523   5.963   0.886   5.807  1.8478  0.0790 -1.2196
 4344TIP3    H234524   5.988   1.030   5.846  1.7017  0.0687 -1.0891
 4345TIP3   OH234525   4.989   4.423  16.817 -0.0921  0.1865  0.3089
 4345TIP3    H134526   4.986   4.345  16.874  2.4944 -0.3655 -0.2193
 4345TIP3    H234527   5.000   4.388  16.729 -0.2524  1.1348 -0.0980
 4346TIP3   OH234528   3.164   2.930  11.242 -0.0616  0.5003  0.4413
 4346TIP3    H134529   3.155   3.018  11.279  0.7932  1.4543 -1.5144
 4346TIP3    H234530   3.122   2.935  11.156  0.1674 -0.9602  0.2140
 4347TIP3   OH234531   0.381   3.093  11.265  0.1725  0.9561 -0.0617
 4347TIP3    H134532   0.432   3.174  11.259  2.4284 -0.4220 -0.9953
 4347TIP3    H234533   0.447   3.024  11.280 -1.6291 -0.7373  0.4676
 4348TIP3   OH234534   2.259   1.022   2.406 -0.4029 -0.0386 -0.0013
 4348TIP3    H134535   2.204   1.018   2.328  0.2763 -0.7241 -0.4602
 4348TIP3    H234536   2.332   1.078   2.381  0.2910 -0.9972 -0.1794
 4349TIP3   OH234537   4.675   1.270  10.162 -0.0417 -0.6701 -0.7097
 4349TIP3    H134538   4.658   1.264  10.256 -1.2029 -0.5833 -0.9015
 4349TIP3    H234539   4.686   1.179  10.133  0.1075 -0.7095 -0.5246
 4350TIP3   OH234540   3.114   6.174  14.999 -0.2157  0.3250  0.3035
 4350TIP3    H134541   3.080   6.084  14.991 -0.7953  0.5630  0.0506
 4350TIP3    H234542   3.065   6.224  14.934  2.0808  0.2837 -1.6063
 4351TIP3   OH234543   2.256   3.298  11.398  0.1267 -0.6026  0.2318
 4351TIP3    H134544   2.274   3.273  11.307 -0.4444  1.8157 -0.6327
 4351TIP3    H234545   2.328   3.357  11.421 -0.2385 -0.4482  0.9992
 4352TIP3   OH234546   1.021   2.632  14.437 -0.1467  0.5884  0.0115
 4352TIP3    H134547   0.959   2.566  14.407 -0.0243  0.0443  0.9164
 4352TIP3    H234548   1.043   2.605  14.526 -0.2680  1.9799  0.4820
 4353TIP3   OH234549   4.882   2.290  12.576 -0.3876  0.1128  0.3911
 4353TIP3    H134550   4.922   2.342  12.645  1.5269 -0.3340 -0.3113
 4353TIP3    H234551   4.951   2.229  12.549 -1.9021 -1.4200 -0.1961
 4354TIP3   OH234552   0.906   5.029   5.505  0.1364  0.4483  0.0761
 4354TIP3    H134553   0.899   4.970   5.580  1.2234 -0.2718 -0.3667
 4354TIP3    H234554   0.878   5.114   5.539  2.9765  0.7454  2.0781
 4355TIP3   OH234555   6.564   1.817   3.330  0.7712 -0.5026 -0.2878
 4355TIP3    H134556   6.564   1.773   3.246  2.0887 -1.9930  0.4422
 4355TIP3    H234557   6.580   1.747   3.394 -1.6816  0.3095  1.3784
 4356TIP3   OH234558   4.735   6.088   2.492  0.2434 -0.1721  0.2753
 4356TIP3    H134559   4.690   6.157   2.540  0.7872  0.4542 -0.0978
 4356TIP3    H234560   4.824   6.122   2.479  0.3734 -0.7304 -0.3474
 4357TIP3   OH234561   6.128   6.584   3.729  0.4332 -0.9819 -0.3211
 4357TIP3    H134562   6.043   6.543   3.712  0.2420 -0.4478 -0.6813
 4357TIP3    H234563   6.124   6.609   3.821  0.2689 -1.1182 -0.2902
 4358TIP3   OH234564   6.604   3.906   2.606 -0.4713  0.4235 -0.5983
 4358TIP3    H134565   6.666   3.849   2.651 -1.7748  0.6264  1.5451
 4358TIP3    H234566   6.553   3.847   2.551  0.4025  0.0293 -1.0160
 4359TIP3   OH234567   0.736   1.984  14.878  0.1343 -0.5723 -0.4636
 4359TIP3    H134568   0.675   2.046  14.837  0.5786  1.6428  1.9828
 4359TIP3    H234569   0.823   2.017  14.855  0.3927  0.5408  1.8125
 4360TIP3   OH234570   1.858   3.650   3.425  0.6172 -0.1306 -0.3806
 4360TIP3    H134571   1.807   3.656   3.345  1.5973 -0.3683 -1.0322
 4360TIP3    H234572   1.936   3.601   3.401  0.5186 -0.9913  0.9330
 4361TIP3   OH234573   4.506   3.969  16.545  0.4353  0.1668  0.5672
 4361TIP3    H134574   4.537   3.881  16.526 -0.5298 -0.0611 -0.0478
 4361TIP3    H234575   4.501   4.012  16.460  2.6788  1.4662  1.0221
 4362TIP3   OH234576   1.377   2.252  13.781 -0.3626  0.4849  0.3276
 4362TIP3    H134577   1.377   2.169  13.734  0.3743  0.6924 -0.0495
 4362TIP3    H234578   1.293   2.253  13.828 -0.7071 -0.1231 -0.2643
 4363TIP3   OH234579   0.087   5.522   3.165 -0.2405  0.2429 -0.4242
 4363TIP3    H134580   0.176   5.501   3.194 -0.3599 -1.7002 -1.2872
 4363TIP3    H234581   0.033   5.510   3.243 -0.2588 -2.6981 -0.7858
 4364TIP3   OH234582   4.440   2.769  12.242  0.7055  0.0497  0.5538
 4364TIP3    H134583   4.442   2.723  12.158  1.8188  0.3677  0.3872
 4364TIP3    H234584   4.370   2.834  12.233  1.8969  1.2237 -0.7804
 4365TIP3   OH234585   3.012   1.338   1.516 -0.3793  0.1267  0.2682
 4365TIP3    H134586   2.931   1.381   1.488  0.3717  0.9374 -0.7579
 4365TIP3    H234587   2.991   1.245   1.514 -2.4925  0.3421  3.9353
 4366TIP3   OH234588   0.583   4.626  11.707 -0.0741 -0.0027  0.2479
 4366TIP3    H134589   0.531   4.706  11.720 -0.3977 -0.5434  2.5387
 4366TIP3    H234590   0.533   4.577  11.642 -0.9221  0.7656  0.2872
 4367TIP3   OH234591   5.754   0.885   4.757 -0.0193  0.4469  0.1050
 4367TIP3    H134592   5.829   0.829   4.737 -1.5711 -1.5418 -0.4446
 4367TIP3    H234593   5.697   0.878   4.680 -2.3784 -0.9273  1.8737
 4368TIP3   OH234594   4.567   3.242  11.874  0.1957 -0.4991 -0.5469
 4368TIP3    H134595   4.515   3.171  11.913  0.3777 -0.9777 -1.1462
 4368TIP3    H234596   4.618   3.198  11.806  2.2462 -0.2670  0.7584
 4369TIP3   OH234597   2.841   2.319  12.460  0.1064  0.3080  0.3912
 4369TIP3    H134598   2.821   2.238  12.507 -3.1439  2.0323  2.3425
 4369TIP3    H234599   2.784   2.317  12.383 -0.3900  0.9632  0.7361
 4370TIP3   OH234600   3.994   5.927  16.478  0.6419 -0.3634  0.3193
 4370TIP3    H134601   3.968   5.997  16.538 -1.2497  1.0393 -1.9959
 4370TIP3    H234602   3.912   5.892  16.444  1.6333 -1.1188 -1.4361
 4371TIP3   OH234603   2.445   2.236  14.381 -0.3267 -0.4198 -0.5286
 4371TIP3    H134604   2.524   2.290  14.376  0.6656 -1.8283 -0.7915
 4371TIP3    H234605   2.387   2.271  14.313  0.2015  0.4408 -0.5417
 4372TIP3   OH234606   1.572   2.840   4.704  0.2345  0.0819 -0.2446
 4372TIP3    H134607   1.595   2.922   4.661 -0.5000  1.3944  1.7378
 4372TIP3    H234608   1.651   2.786   4.696  0.5054  0.6871 -2.1514
 4373TIP3   OH234609   0.084   2.087   0.246 -0.6895 -0.2280  0.2447
 4373TIP3    H134610   0.146   2.054   0.311  0.2542  0.0528 -0.4878
 4373TIP3    H234611   0.122   2.171   0.218 -0.2199 -1.0921 -1.8288
 4374TIP3   OH234612   6.156   5.451   4.879  0.0489  0.1832  0.4537
 4374TIP3    H134613   6.173   5.381   4.816 -2.9554  0.8503 -1.2575
 4374TIP3    H234614   6.146   5.405   4.963 -1.6424 -1.4797 -0.5864
 4375TIP3   OH234615   4.518   0.323  11.647 -0.0663 -0.1098 -1.0329
 4375TIP3    H134616   4.614   0.325  11.654 -0.0341  0.6208 -1.5974
 4375TIP3    H234617   4.496   0.400  11.595 -0.9264 -0.5729 -1.3711
 4376TIP3   OH234618   0.663   5.916  11.388 -0.3260 -0.4721 -0.6596
 4376TIP3    H134619   0.619   5.957  11.313  1.1181  1.6223 -0.4375
 4376TIP3    H234620   0.627   5.960  11.465  1.5398  0.7708 -0.4342
 4377TIP3   OH234621   0.836   0.215   6.138  0.0281  0.3617  0.0952
 4377TIP3    H134622   0.788   0.131   6.139 -0.5181  0.6669  0.0075
 4377TIP3    H234623   0.768   0.281   6.123  0.4235  0.8439  0.4034
 4378TIP3   OH234624   2.112   0.173   0.241  0.0671  0.4385 -0.3833
 4378TIP3    H134625   2.103   0.223   0.160  1.1708  0.1089 -0.7203
 4378TIP3    H234626   2.111   0.081   0.213 -1.7760  0.2317  0.2125
 4379TIP3   OH234627   4.437   2.643   5.127 -0.6052 -0.7536 -0.1724
 4379TIP3    H134628   4.466   2.577   5.191 -1.7305 -0.5621  0.5487
 4379TIP3    H234629   4.505   2.641   5.060  1.8469  0.6104  2.0803
 4380TIP3   OH234630   2.819   0.811  11.086 -0.3516 -0.0676 -0.0245
 4380TIP3    H134631   2.847   0.830  10.996 -0.8355  0.0365 -0.1548
 4380TIP3    H234632   2.737   0.859  11.097 -1.1808 -1.4034 -0.0953
 4381TIP3   OH234633   2.082   6.065  14.540  0.0372 -0.5190  0.5363
 4381TIP3    H134634   2.067   6.145  14.490 -0.6518  0.0064  1.5529
 4381TIP3    H234635   2.085   6.093  14.631 -1.9468 -1.8354  1.0726
 4382TIP3   OH234636   4.190   4.080   5.089  0.8932  0.2230 -0.2922
 4382TIP3    H134637   4.202   4.056   5.180 -0.6695  0.1262 -0.0820
 4382TIP3    H234638   4.172   3.997   5.044 -1.8778  0.5594 -0.0192
 4383TIP3   OH234639   0.983   3.788  12.473  0.0490 -0.0487  0.5592
 4383TIP3    H134640   0.951   3.760  12.559 -2.2668 -1.9786 -0.7910
 4383TIP3    H234641   0.952   3.878  12.464 -2.2204 -0.7541  0.6809
 4384TIP3   OH234642   5.808   3.702  10.863 -0.1047  0.6573  0.2234
 4384TIP3    H134643   5.814   3.630  10.925 -2.5275  0.4154  0.2564
 4384TIP3    H234644   5.794   3.659  10.778 -0.6771  1.0487  0.1139
 4385TIP3   OH234645   6.271   2.599  11.344 -0.6370  0.4411 -0.0702
 4385TIP3    H134646   6.243   2.625  11.432 -0.0350  0.0792  0.2337
 4385TIP3    H234647   6.192   2.567  11.302 -1.2915  2.1492 -0.2393
 4386TIP3   OH234648   6.274   4.745  11.210 -0.6707  0.2350 -0.4416
 4386TIP3    H134649   6.245   4.799  11.284  0.6529  1.4048 -0.7181
 4386TIP3    H234650   6.213   4.766  11.139  0.6239  2.5675 -0.9850
 4387TIP3   OH234651   0.237   1.768   4.360  0.4375 -0.2241  0.4160
 4387TIP3    H134652   0.225   1.677   4.333  0.1690 -0.6743  1.9914
 4387TIP3    H234653   0.328   1.774   4.388  0.1161 -0.3546  1.5261
 4388TIP3   OH234654   1.584   4.655   4.200 -0.2467  0.4983 -0.5520
 4388TIP3    H134655   1.659   4.682   4.149 -0.7476 -0.2796 -1.7329
 4388TIP3    H234656   1.596   4.561   4.215  0.0005  0.7378  0.9747
 4389TIP3   OH234657   5.340   5.366   4.796 -0.1331  0.0084  0.1901
 4389TIP3    H134658   5.400   5.291   4.798  0.9251  0.8328  1.4280
 4389TIP3    H234659   5.263   5.337   4.846  0.8642  0.1614  1.9109
 4390TIP3   OH234660   5.993   0.143  15.619 -0.3926 -0.3460 -0.2773
 4390TIP3    H134661   6.024   0.052  15.618  2.3642  0.4200  2.4022
 4390TIP3    H234662   6.031   0.181  15.540 -0.0130 -1.0712 -0.4554
 4391TIP3   OH234663   0.767   5.110   5.220  0.2326 -0.1210 -0.0568
 4391TIP3    H134664   0.787   5.082   5.309 -0.7832 -2.7548 -0.5621
 4391TIP3    H234665   0.831   5.178   5.201  0.6608  0.3134  2.5489
 4392TIP3   OH234666   5.304   3.029  10.879  0.9446  0.3174 -0.5772
 4392TIP3    H134667   5.268   2.963  10.938  1.2587 -0.6442 -1.4276
 4392TIP3    H234668   5.232   3.090  10.864 -0.4840 -1.6703 -2.3968
 4393TIP3   OH234669   2.281   0.790  12.792  0.2924 -0.1152  0.2436
 4393TIP3    H134670   2.341   0.773  12.719 -1.4139 -0.3644 -1.1969
 4393TIP3    H234671   2.264   0.704  12.830  0.9320 -0.0293  0.7234
 4394TIP3   OH234672   6.105   1.429  15.907  0.1189 -0.3944  0.1330
 4394TIP3    H134673   6.099   1.348  15.856  1.0116 -1.3268  1.4321
 4394TIP3    H234674   6.041   1.419  15.977  1.2296 -0.6606  1.1519
 4395TIP3   OH234675   6.236   2.218   0.137 -0.5450  0.0383  0.1909
 4395TIP3    H134676   6.257   2.275   0.063 -1.4526 -0.1215 -0.2159
 4395TIP3    H234677   6.319   2.202   0.181 -0.1976  1.2013 -0.0304
 4396TIP3   OH234678   5.570   1.850  16.574  0.4376  0.3252  0.4153
 4396TIP3    H134679   5.550   1.801  16.654  2.0114 -0.9681  0.0747
 4396TIP3    H234680   5.489   1.849  16.524 -0.6279  1.2912  2.0364
 4397TIP3   OH234681   3.835   0.762  11.932 -0.1855  0.0618 -0.5484
 4397TIP3    H134682   3.791   0.805  11.859  0.2194 -0.2848 -0.9996
 4397TIP3    H234683   3.926   0.755  11.904 -0.3795 -1.8043 -0.8119
 4398TIP3   OH234684   1.086   5.619   0.456  0.1112  0.2833  0.0490
 4398TIP3    H134685   1.113   5.541   0.408 -3.1582 -2.1848  1.7912
 4398TIP3    H234686   1.136   5.616   0.537 -1.6096 -1.4904  1.1384
 4399TIP3   OH234687   2.400   2.177   6.564 -0.7603 -0.0634 -0.2803
 4399TIP3    H134688   2.346   2.211   6.635 -1.0111 -1.1632  0.0728
 4399TIP3    H234689   2.337   2.141   6.501 -0.5415  0.9193 -1.0842
 4400TIP3   OH234690   0.286   4.505  13.116  0.3831 -0.2695 -0.8248
 4400TIP3    H134691   0.359   4.556  13.152 -1.1708  1.3115  0.2390
 4400TIP3    H234692   0.216   4.516  13.180 -1.0136 -1.1776 -2.1508
 4401TIP3   OH234693   4.500   2.338  15.553 -0.6179 -0.5236  0.0780
 4401TIP3    H134694   4.421   2.387  15.531 -1.9330 -2.1075  0.9719
 4401TIP3    H234695   4.533   2.381  15.632 -0.9999 -0.2712  0.1042
 4402TIP3   OH234696   2.697   5.544  16.857  0.3172  0.1461  0.1238
 4402TIP3    H134697   2.685   5.479  16.787 -0.4098 -1.3318  1.5456
 4402TIP3    H234698   2.707   5.627  16.811  0.0309 -0.7905 -1.7343
 4403TIP3   OH234699   0.729   0.313  11.357 -0.4235  0.6257  0.3396
 4403TIP3    H134700   0.665   0.247  11.331 -0.3155  0.5581  0.2416
 4403TIP3    H234701   0.810   0.285  11.314 -0.3748  0.8145  0.3088
 4404TIP3   OH234702   5.571   4.384  13.949 -0.1394  0.1369  0.2292
 4404TIP3    H134703   5.542   4.307  13.900 -2.0664  0.9690 -0.0060
 4404TIP3    H234704   5.667   4.378  13.948 -0.0111  0.2321 -3.8803
 4405TIP3   OH234705   3.518   6.691   2.904  0.0707  0.3305  0.3717
 4405TIP3    H134706   3.609   6.720   2.904  0.1396  0.2181  1.7254
 4405TIP3    H234707   3.491   6.696   2.813  1.3350  0.6651 -0.0130
 4406TIP3   OH234708   6.391   4.712   2.965 -0.0592  0.5086  0.0124
 4406TIP3    H134709   6.343   4.691   2.884  0.6023  0.5570 -0.3988
 4406TIP3    H234710   6.466   4.652   2.964 -0.1775  0.3479  0.7135
 4407TIP3   OH234711   6.592   5.744  15.573 -0.4552  0.1428  0.7115
 4407TIP3    H134712   6.626   5.695  15.499 -0.8468 -1.3828  1.4994
 4407TIP3    H234713   6.540   5.680  15.623 -0.4984  1.2060  2.1014
 4408TIP3   OH234714   0.006   4.830   0.827 -0.1644  0.1278  0.5756
 4408TIP3    H134715  -0.027   4.871   0.907  0.0282 -1.4555  1.4896
 4408TIP3    H234716   0.067   4.763   0.857  0.6758  0.1647 -0.9480
 4409TIP3   OH234717   6.441   0.112  17.082 -0.2899 -0.3300  0.1731
 4409TIP3    H134718   6.356   0.142  17.115  0.3037  1.0162  0.5184
 4409TIP3    H234719   6.440   0.135  16.990 -0.0745  0.1951  0.3024
 4410TIP3   OH234720   3.290   1.041   5.164  1.0382 -0.2482  0.4493
 4410TIP3    H134721   3.241   0.984   5.224  0.9203 -0.7169 -0.0888
 4410TIP3    H234722   3.287   1.127   5.206 -0.6786 -0.1460  0.2128
 4411TIP3   OH234723   0.822   3.836  14.925  0.1881  0.0355  0.3099
 4411TIP3    H134724   0.816   3.863  15.017 -1.3512 -0.1040  0.2851
 4411TIP3    H234725   0.911   3.803  14.915  0.0315 -1.0451  2.0630
 4412TIP3   OH234726   4.611   5.022  11.667  0.0133  0.4164  0.1899
 4412TIP3    H134727   4.580   5.099  11.620  0.0289  0.7296  0.6840
 4412TIP3    H234728   4.533   4.969  11.680 -0.5472  1.6342  2.2522
 4413TIP3   OH234729   0.915   0.774   4.758 -0.0100  0.4519  0.1201
 4413TIP3    H134730   0.957   0.689   4.772 -0.8789 -0.6351 -2.9417
 4413TIP3    H234731   0.833   0.769   4.808 -0.3088 -0.7870 -0.4455
 4414TIP3   OH234732   4.967   2.283   5.682  0.0846  0.3622 -0.5760
 4414TIP3    H134733   5.017   2.298   5.602 -0.1062  1.6072 -0.4860
 4414TIP3    H234734   5.013   2.336   5.748 -0.3596  0.1556 -0.0953
 4415TIP3   OH234735   1.343   6.447   3.779  0.4136 -0.1607  0.1361
 4415TIP3    H134736   1.338   6.496   3.861  0.6388 -1.0406  0.6864
 4415TIP3    H234737   1.343   6.355   3.806  0.4302 -0.4606 -0.8540
 4416TIP3   OH234738   6.090   1.875   0.604  0.1845 -0.5389  0.0994
 4416TIP3    H134739   6.018   1.828   0.646  0.2504  0.9491  2.0629
 4416TIP3    H234740   6.147   1.807   0.570 -1.9101 -1.7517 -1.1465
 4417TIP3   OH234741   6.297   1.478   2.673 -0.2462  0.1123  0.2341
 4417TIP3    H134742   6.293   1.553   2.732 -3.9305  0.8442 -0.6879
 4417TIP3    H234743   6.326   1.514   2.589 -0.6211  0.2403  0.1572
 4418TIP3   OH234744   2.290   6.324  11.450 -0.5056 -0.0834  0.0076
 4418TIP3    H134745   2.311   6.385  11.521  1.1070  1.4993 -1.7231
 4418TIP3    H234746   2.284   6.379  11.372 -0.8950 -1.9247 -1.3363
 4419TIP3   OH234747   0.453   5.463   1.045 -0.3872 -0.0729  0.3515
 4419TIP3    H134748   0.525   5.405   1.021  0.7234  1.6761 -0.7681
 4419TIP3    H234749   0.399   5.468   0.966 -0.5445  0.2964  0.4806
 4420TIP3   OH234750   4.632   1.910  13.790 -0.6677 -0.6106  0.3457
 4420TIP3    H134751   4.564   1.938  13.851 -0.4822  1.0899 -0.1893
 4420TIP3    H234752   4.698   1.868  13.846 -2.3824 -2.9361  0.8056
 4421TIP3   OH234753   2.627   0.974  16.424  0.1083 -0.2933 -0.1010
 4421TIP3    H134754   2.684   0.926  16.484 -1.7327 -0.3127  1.7717
 4421TIP3    H234755   2.623   1.063  16.460 -2.2430 -0.6881  0.8409
 4422TIP3   OH234756   4.783   4.468   0.130  0.0355 -0.0203 -0.4692
 4422TIP3    H134757   4.690   4.464   0.107 -0.4336 -0.3878  1.2721
 4422TIP3    H234758   4.825   4.513   0.057 -2.1919  4.3089  0.5516
 4423TIP3   OH234759   1.168   6.394   4.696  0.8491 -0.2833  0.4267
 4423TIP3    H134760   1.170   6.435   4.610  2.5576  0.2221  0.6816
 4423TIP3    H234761   1.075   6.379   4.713  0.2179  2.5080 -0.1455
 4424TIP3   OH234762   6.250   5.654  12.681  0.2990  0.2708 -0.4670
 4424TIP3    H134763   6.251   5.610  12.766  0.0467  0.2838 -0.4580
 4424TIP3    H234764   6.184   5.722  12.689  1.7410  1.6714  0.0341
 4425TIP3   OH234765   4.755   6.732  13.187  0.2856  0.3593  0.5664
 4425TIP3    H134766   4.745   6.794  13.259 -1.8058  0.3127  0.3715
 4425TIP3    H234767   4.816   6.773  13.127  0.6837  1.1933  1.5269
 4426TIP3   OH234768   6.471   0.147   4.721 -0.8678  0.7224  0.2589
 4426TIP3    H134769   6.454   0.085   4.650 -0.2459 -0.2879  0.9709
 4426TIP3    H234770   6.391   0.199   4.726 -1.6883 -0.4856  0.1046
 4427TIP3   OH234771   1.389   4.930  15.322 -0.3462  0.2717 -0.5623
 4427TIP3    H134772   1.326   4.995  15.291 -0.6218  0.9832  1.3083
 4427TIP3    H234773   1.346   4.846  15.308 -2.0963  0.7571  1.2415
 4428TIP3   OH234774   1.127   3.001  16.647 -0.0546 -0.0007 -0.1302
 4428TIP3    H134775   1.141   2.949  16.727 -0.7955 -0.6057 -0.3816
 4428TIP3    H234776   1.051   3.055  16.667  0.0283  0.1658 -0.2681
 4429TIP3   OH234777   2.627   3.112   1.117  0.5383  0.0194 -0.1359
 4429TIP3    H134778   2.672   3.028   1.124 -1.1506 -1.0080 -1.1028
 4429TIP3    H234779   2.592   3.113   1.028 -2.0874  0.3556  0.8292
 4430TIP3   OH234780   2.845   5.566  13.859 -0.3106  0.5406 -0.3130
 4430TIP3    H134781   2.873   5.487  13.906  0.9625  0.0477 -1.7778
 4430TIP3    H234782   2.760   5.543  13.823 -0.0889 -0.0645 -0.4689
 4431TIP3   OH234783   2.925   5.819  13.766  0.2066 -0.2187 -0.5866
 4431TIP3    H134784   2.906   5.726  13.779 -0.6756 -0.0086 -0.2889
 4431TIP3    H234785   3.010   5.820  13.722  0.5882 -1.1386  0.0891
 4432TIP3   OH234786   3.510   6.724   2.627  0.6137  0.5344  0.6892
 4432TIP3    H134787   3.444   6.667   2.587  0.8207  1.2751 -0.7826
 4432TIP3    H234788   3.570   6.745   2.555  2.1430  0.3387  1.8605
 4433TIP3   OH234789   0.192   6.427   3.147  0.2509  0.2592  0.0428
 4433TIP3    H134790   0.267   6.481   3.123  0.4011 -0.8945 -2.3259
 4433TIP3    H234791   0.228   6.341   3.165 -0.4267 -0.1473 -0.4983
 4434TIP3   OH234792   0.487   5.311   3.811  0.0618 -0.4284 -0.2906
 4434TIP3    H134793   0.501   5.246   3.879  0.6814  0.1828  0.1809
 4434TIP3    H234794   0.479   5.260   3.730 -0.7265 -1.1600  0.2273
 4435TIP3   OH234795   4.726   4.686  15.789  0.3541 -0.4203 -0.2775
 4435TIP3    H134796   4.779   4.676  15.868 -1.0177 -0.3084  0.7102
 4435TIP3    H234797   4.636   4.696  15.823 -0.3542 -1.0896 -1.8854
 4436TIP3   OH234798   3.404   2.114   2.174 -0.1501  0.3904  0.1108
 4436TIP3    H134799   3.309   2.122   2.172 -0.1930 -0.1737 -0.2584
 4436TIP3    H234800   3.435   2.185   2.117 -0.3109  1.0097  0.7737
 4437TIP3   OH234801   5.688   0.001  12.993 -0.7226 -0.5748 -0.0346
 4437TIP3    H134802   5.743   0.025  13.068 -3.0240 -1.1128  1.9227
 4437TIP3    H234803   5.699   0.073  12.931 -1.3535  1.6485  2.2811
 4438TIP3   OH234804   5.591   5.745  11.624 -0.1713 -0.0417  0.5622
 4438TIP3    H134805   5.511   5.694  11.637 -1.5001  1.3996 -1.3735
 4438TIP3    H234806   5.562   5.836  11.623  1.3444  0.4921 -1.0308
 4439TIP3   OH234807   3.788   3.092   5.548 -0.1705 -0.4521 -0.0810
 4439TIP3    H134808   3.848   3.043   5.492 -0.1231 -1.5036  0.8326
 4439TIP3    H234809   3.843   3.127   5.617 -0.1675  1.1636 -0.8736
 4440TIP3   OH234810   5.951   3.902   2.885 -0.2814  0.1545 -0.4610
 4440TIP3    H134811   5.895   3.826   2.869  1.0023 -1.5004  2.1739
 4440TIP3    H234812   5.995   3.918   2.801 -0.4448 -2.1801 -1.0597
 4441TIP3   OH234813   2.508   0.261   3.696  1.1300  0.2042 -0.4039
 4441TIP3    H134814   2.572   0.235   3.762  1.1458  0.4641 -0.3124
 4441TIP3    H234815   2.504   0.188   3.635  1.5195  0.1912 -0.4133
 4442TIP3   OH234816   5.629   5.752   4.725 -0.2122  0.0841 -0.6508
 4442TIP3    H134817   5.633   5.838   4.768 -0.6531 -0.3565  0.2878
 4442TIP3    H234818   5.575   5.699   4.783 -0.0280 -0.8035 -1.2815
 4443TIP3   OH234819   5.276   2.382  15.872 -0.2418  0.3732  0.8517
 4443TIP3    H134820   5.295   2.352  15.783 -3.0017 -0.7253  0.5398
 4443TIP3    H234821   5.279   2.302  15.925 -1.1775  0.5915  1.2530
 4444TIP3   OH234822   1.689   5.378  12.518  0.1814 -0.2206  0.8527
 4444TIP3    H134823   1.713   5.379  12.611 -1.1627  1.3785  1.2405
 4444TIP3    H234824   1.764   5.418  12.474  0.9736 -1.2935  1.1810
 4445TIP3   OH234825   1.874   3.778   1.388  0.2472 -0.5163 -0.5085
 4445TIP3    H134826   1.934   3.758   1.315 -1.0891 -1.5330 -1.3846
 4445TIP3    H234827   1.891   3.870   1.408  1.5919 -0.5827 -1.1979
 4446TIP3   OH234828   5.690   5.399   1.811  0.9780  0.1256  0.5429
 4446TIP3    H134829   5.748   5.467   1.845  2.1331 -1.3209  1.5313
 4446TIP3    H234830   5.687   5.332   1.879 -1.2287 -0.2413  0.1779
 4447TIP3   OH234831   5.031   0.908   3.914  0.0432  0.3561  0.1403
 4447TIP3    H134832   4.985   0.980   3.870  0.8827  0.5011 -0.5400
 4447TIP3    H234833   5.005   0.830   3.865  1.1796  0.5500 -0.8251
 4448TIP3   OH234834   5.190   0.651   2.305  0.0789  0.1545 -0.2204
 4448TIP3    H134835   5.269   0.703   2.294  1.1086 -1.1318  0.7044
 4448TIP3    H234836   5.195   0.584   2.236  0.3396 -0.5486  0.4662
 4449TIP3   OH234837   5.907   2.227  16.991 -0.3459 -0.0507 -0.2321
 4449TIP3    H134838   5.962   2.302  16.967 -0.4105 -0.3114 -1.2698
 4449TIP3    H234839   5.894   2.236  17.085 -0.3856  1.2635 -0.3358
 4450TIP3   OH234840   2.070   0.907  12.965  0.6117 -0.0120  0.2118
 4450TIP3    H134841   2.141   0.898  12.900  0.1645 -1.2588 -0.1449
 4450TIP3    H234842   2.004   0.961  12.921  0.3335 -0.8079 -0.3733
 4451TIP3   OH234843   1.961   6.390   1.241 -0.1006 -0.7993 -0.1142
 4451TIP3    H134844   1.983   6.452   1.171 -1.7598 -1.3179 -1.1492
 4451TIP3    H234845   1.987   6.305   1.207 -3.0990 -1.3825 -1.2190
 4452TIP3   OH234846   1.951   5.213  13.013 -0.0947 -0.3358 -0.0268
 4452TIP3    H134847   1.921   5.272  13.082  0.1811 -1.5119  1.1288
 4452TIP3    H234848   2.005   5.268  12.956 -0.6100  0.7273  0.4962
 4453TIP3   OH234849   3.317   5.375   2.506 -0.0709 -0.2538  0.1188
 4453TIP3    H134850   3.235   5.413   2.475  0.5761  0.6661 -0.4846
 4453TIP3    H234851   3.355   5.332   2.429  0.4669  0.1452  0.1525
 4454TIP3   OH234852   5.060   1.466  12.063 -0.6602 -0.0071  0.4423
 4454TIP3    H134853   5.032   1.557  12.065 -1.6827 -0.2274  3.7834
 4454TIP3    H234854   5.121   1.458  12.136 -0.6701 -1.9900  0.3042
 4455TIP3   OH234855   1.032   0.103   2.414 -0.2607 -0.5321 -0.4531
 4455TIP3    H134856   1.006   0.078   2.503 -2.0719  0.0961 -0.7640
 4455TIP3    H234857   1.029   0.199   2.415 -0.0879 -0.5135 -1.1390
 4456TIP3   OH234858   3.281   5.957   3.800  0.3821  0.3166  0.5763
 4456TIP3    H134859   3.243   5.953   3.713  0.3779  1.9301  0.4802
 4456TIP3    H234860   3.360   6.010   3.790  0.4834  0.3665  1.5221
 4457TIP3   OH234861   4.711   3.526   4.021  0.1163  0.0048  0.0563
 4457TIP3    H134862   4.685   3.612   4.052 -0.5446 -0.1868  0.0532
 4457TIP3    H234863   4.806   3.527   4.025  0.1049  0.6338  0.3246
 4458TIP3   OH234864   4.297   4.667  10.756 -0.4717  0.2759 -0.0677
 4458TIP3    H134865   4.312   4.678  10.662  0.5544 -2.5695 -0.3560
 4458TIP3    H234866   4.370   4.711  10.798  3.5229 -4.5389 -1.0585
 4459TIP3   OH234867   6.733   1.546   0.342 -0.2128  0.1212 -0.2978
 4459TIP3    H134868   6.792   1.594   0.401  0.3868 -2.0433  0.9629
 4459TIP3    H234869   6.755   1.579   0.255  2.7936 -0.4624  0.1270
 4460TIP3   OH234870   0.066   6.713  17.136  0.1157 -0.5004  0.2541
 4460TIP3    H134871   0.013   6.637  17.113 -0.9361  0.4206 -0.4842
 4460TIP3    H234872   0.016   6.757  17.205  0.6885 -0.4517  0.6433
 4461TIP3   OH234873   3.828   0.631  14.622 -0.7358 -0.4404  0.8335
 4461TIP3    H134874   3.776   0.709  14.599  0.5091  0.0296 -0.5164
 4461TIP3    H234875   3.910   0.666  14.657 -0.9260 -1.1783  2.0885
 4462TIP3   OH234876   2.943   4.503   0.361  0.2905 -0.0600  0.0764
 4462TIP3    H134877   2.953   4.597   0.371  2.2082 -0.2124  0.0598
 4462TIP3    H234878   3.002   4.465   0.427  0.3385 -1.2159 -0.5936
 4463TIP3   OH234879   1.203   1.142  14.751  0.2045  0.1722  0.0963
 4463TIP3    H134880   1.151   1.222  14.757 -0.4967 -0.3328  0.9994
 4463TIP3    H234881   1.292   1.170  14.769  0.3154  1.0913 -1.6891
 4464TIP3   OH234882   1.147   3.193   3.407  0.3227 -0.0301 -0.6238
 4464TIP3    H134883   1.089   3.145   3.348 -0.8631 -0.6609  0.9826
 4464TIP3    H234884   1.194   3.125   3.455 -1.2927  0.3386  1.5923
 4465TIP3   OH234885   0.889   3.040  12.916  0.0147  0.2871  0.2189
 4465TIP3    H134886   0.846   2.974  12.972  1.3488 -0.6106  0.2314
 4465TIP3    H234887   0.837   3.119  12.929 -2.3047 -1.0031 -0.6298
 4466TIP3   OH234888   4.917   2.536  17.135  0.5462 -0.0252 -0.2267
 4466TIP3    H134889   4.989   2.473  17.134  0.0247 -0.6375  0.2120
 4466TIP3    H234890   4.891   2.542  17.227  1.1318  1.4742 -0.1376
 4467TIP3   OH234891   3.876   5.014  16.027  0.0129 -0.2139  0.2156
 4467TIP3    H134892   3.882   5.024  16.122 -1.7558 -1.6397  0.5376
 4467TIP3    H234893   3.953   5.060  15.993  2.0569 -1.7111  2.4759
 4468TIP3   OH234894   5.902   2.671   5.664  0.1511 -0.9448  0.3973
 4468TIP3    H134895   5.821   2.722   5.665  0.6570 -0.1232  0.3705
 4468TIP3    H234896   5.923   2.661   5.571  0.3141 -0.7756  0.4156
 4469TIP3   OH234897   3.451   2.503  13.230 -0.2567  0.3177 -0.0817
 4469TIP3    H134898   3.533   2.499  13.278  0.3051 -0.6488 -1.0786
 4469TIP3    H234899   3.403   2.425  13.258 -0.6925  0.6881  0.2243
 4470TIP3   OH234900   5.563   0.296  12.620 -0.8950 -0.0352 -0.1782
 4470TIP3    H134901   5.617   0.372  12.640 -1.4424  0.3238 -0.0483
 4470TIP3    H234902   5.484   0.333  12.580 -0.4986 -0.6300 -1.5856
 4471TIP3   OH234903   2.276   6.057   2.080 -0.6960 -0.2107  0.1036
 4471TIP3    H134904   2.226   5.976   2.070 -1.2701  0.1118  0.3345
 4471TIP3    H234905   2.334   6.058   2.003 -2.5882  0.4865 -1.3947
 4472TIP3   OH234906   3.239   2.390   3.103  0.3335  0.1956 -0.0316
 4472TIP3    H134907   3.215   2.300   3.081 -0.6514  0.6240 -0.7613
 4472TIP3    H234908   3.319   2.381   3.155  0.6057 -1.0623 -0.6265
 4473TIP3   OH234909   2.434   6.736  15.341 -0.0002 -0.1386  0.1169
 4473TIP3    H134910   2.360   6.681  15.368 -0.9939  0.9539 -0.2827
 4473TIP3    H234911   2.427   6.740  15.246  0.9375 -0.4942  0.0220
 4474TIP3   OH234912   2.787   2.161  16.048  0.2978  0.7618 -0.5647
 4474TIP3    H134913   2.835   2.185  15.969 -0.0180  0.1555 -0.9552
 4474TIP3    H234914   2.716   2.105  16.017 -1.3077  2.4406 -0.1376
 4475TIP3   OH234915   2.385   2.074  15.500 -0.2698 -0.0488  0.1240
 4475TIP3    H134916   2.303   2.115  15.471 -0.2886  0.7870  1.2480
 4475TIP3    H234917   2.452   2.113  15.445 -0.4554  0.4972  0.2711
 4476TIP3   OH234918   0.712   1.272  15.113  0.2555  0.0969 -0.0998
 4476TIP3    H134919   0.674   1.191  15.147  0.1412  0.0589 -0.3095
 4476TIP3    H234920   0.697   1.267  15.018 -1.3610  1.1735  0.0539
 4477TIP3   OH234921   3.069   6.431   5.317  0.3381 -0.3533  0.4527
 4477TIP3    H134922   3.156   6.438   5.278 -0.3053  0.2614 -0.9648
 4477TIP3    H234923   3.032   6.350   5.281 -0.2715  0.2337 -0.2984
 4478TIP3   OH234924   5.492   2.262  16.930  0.7338  0.3719 -0.6242
 4478TIP3    H134925   5.531   2.350  16.931 -2.1284  1.7978 -2.1076
 4478TIP3    H234926   5.484   2.241  16.837  0.8912 -1.2681 -0.2903
 4479TIP3   OH234927   2.536   1.773   4.349 -0.3765  0.1774  0.7251
 4479TIP3    H134928   2.445   1.795   4.326 -0.3057 -1.7341 -1.7359
 4479TIP3    H234929   2.587   1.799   4.272  0.9468 -0.2787  1.4230
 4480TIP3   OH234930   0.464   3.388   0.760 -0.3673 -0.1397 -0.1625
 4480TIP3    H134931   0.422   3.454   0.705 -0.8965 -1.2131 -1.0867
 4480TIP3    H234932   0.528   3.346   0.703  1.4786  0.9376  1.0110
 4481TIP3   OH234933   6.243   1.296  11.315  0.5883  0.1943  0.4869
 4481TIP3    H134934   6.278   1.332  11.234  0.4326 -1.6310 -0.4461
 4481TIP3    H234935   6.161   1.343  11.328 -0.6037 -1.0744 -1.7744
 4482TIP3   OH234936   6.282   1.849   6.169 -0.1122  0.4341  0.0933
 4482TIP3    H134937   6.211   1.899   6.129  0.2154 -0.0608 -1.1508
 4482TIP3    H234938   6.356   1.861   6.110  0.6504  0.3910  1.0213
 4483TIP3   OH234939   3.192   2.102   5.722 -0.7966 -0.0687  0.0313
 4483TIP3    H134940   3.172   2.194   5.705 -1.7015 -0.5442 -1.6247
 4483TIP3    H234941   3.181   2.093   5.817  0.6361  1.8055  0.4418
 4484TIP3   OH234942   3.233   2.234  16.091  0.1803 -0.3363 -0.4917
 4484TIP3    H134943   3.235   2.315  16.040 -1.5055 -0.8334 -1.4243
 4484TIP3    H234944   3.325   2.212  16.104  0.6937  1.9133  0.1263
 4485TIP3   OH234945   2.256   3.141  11.621  0.2375  0.2367 -0.8804
 4485TIP3    H134946   2.231   3.218  11.671  0.9040  0.9309 -1.6019
 4485TIP3    H234947   2.255   3.169  11.530  0.3615 -0.6457 -1.1687
 4486TIP3   OH234948   3.896   1.303  14.821  0.1369 -0.2144 -0.2404
 4486TIP3    H134949   3.815   1.302  14.770 -0.0366 -1.8245  0.0045
 4486TIP3    H234950   3.871   1.264  14.905  0.8443  0.6324  0.3812
 4487TIP3   OH234951   3.849   0.177  16.977  0.7036  0.5806 -0.4568
 4487TIP3    H134952   3.770   0.214  17.016  1.2153  1.1882  0.0279
 4487TIP3    H234953   3.908   0.163  17.051  0.4500 -1.4857 -0.5690
 4488TIP3   OH234954   1.188   1.931   5.336  0.4568 -0.0446  0.3107
 4488TIP3    H134955   1.206   1.841   5.311  1.2233  0.1531  0.1078
 4488TIP3    H234956   1.170   1.976   5.253  0.3140  0.0366  0.3850
 4489TIP3   OH234957   5.955   2.431   5.075 -0.2608 -0.1085  0.2895
 4489TIP3    H134958   5.927   2.356   5.127 -2.5371  0.1721 -0.4196
 4489TIP3    H234959   5.891   2.499   5.094  0.4803  0.9155 -0.7470
 4490TIP3   OH234960   4.318   3.960  16.756  0.2267  0.1847  0.2112
 4490TIP3    H134961   4.389   3.976  16.694  0.1120  3.6414  0.7955
 4490TIP3    H234962   4.301   3.866  16.748  2.6870 -0.2017 -2.2442
 4491TIP3   OH234963   5.707   0.726   1.394 -0.1694  0.3939  0.1232
 4491TIP3    H134964   5.619   0.691   1.403  0.0267 -0.3547 -0.6916
 4491TIP3    H234965   5.717   0.787   1.467 -0.5967 -1.0966  1.4707
 4492TIP3   OH234966   3.484   3.504   1.967 -0.5756  0.3621  0.1699
 4492TIP3    H134967   3.506   3.542   2.052  3.2367 -1.8843  0.4174
 4492TIP3    H234968   3.452   3.416   1.988 -0.5551  0.1502 -0.6621
 4493TIP3   OH234969   3.108   6.779  14.272  0.1192  0.9892 -0.5379
 4493TIP3    H134970   3.121   6.821  14.357 -0.3867  1.2016 -0.5618
 4493TIP3    H234971   3.150   6.837  14.210 -0.5951  1.4869 -0.5736
 4494TIP3   OH234972   5.633   3.080   2.423  0.6579  0.0452 -0.1231
 4494TIP3    H134973   5.569   3.052   2.357  1.7823 -0.5673 -0.9689
 4494TIP3    H234974   5.709   3.109   2.373  0.8938  1.2063  0.8622
 4495TIP3   OH234975   4.656   6.628   0.572  0.3592  0.2039  0.1563
 4495TIP3    H134976   4.659   6.634   0.476 -1.1637  0.7227  0.1205
 4495TIP3    H234977   4.563   6.633   0.594  0.6163 -0.8520  1.6248
 4496TIP3   OH234978   2.070   4.418   1.250 -0.4361 -0.3459 -0.3975
 4496TIP3    H134979   2.001   4.353   1.265  0.9484 -2.1618 -1.5565
 4496TIP3    H234980   2.135   4.373   1.197  1.9366  1.1218  1.0869
 4497TIP3   OH234981   5.623   6.843   1.289 -0.3625 -0.0906 -0.3863
 4497TIP3    H134982   5.673   6.762   1.298 -2.7175 -1.5887  0.2869
 4497TIP3    H234983   5.614   6.875   1.379 -0.2433  0.4026 -0.5486
 4498TIP3   OH234984   0.357   0.758   6.229 -0.1845 -0.4950 -0.2913
 4498TIP3    H134985   0.382   0.809   6.306 -0.2965 -0.0517 -0.5465
 4498TIP3    H234986   0.372   0.667   6.255 -2.1988 -0.5348  1.0262
 4499TIP3   OH234987   1.943   0.913   3.279  0.3506  0.1501 -0.3169
 4499TIP3    H134988   1.917   0.903   3.371 -1.8965  0.3080 -0.8764
 4499TIP3    H234989   2.033   0.946   3.283  0.8577 -1.2425  1.7880
 4500TIP3   OH234990   3.651   4.221   5.750 -0.2976  0.1488 -0.4084
 4500TIP3    H134991   3.735   4.259   5.777 -0.0889  0.1982 -1.0884
 4500TIP3    H234992   3.631   4.265   5.667 -1.9626  1.5632  0.6666
 4501TIP3   OH234993   1.625   0.273  15.010 -0.1885  0.5729  0.6770
 4501TIP3    H134994   1.628   0.368  15.004  3.7429  0.5455 -1.5403
 4501TIP3    H234995   1.589   0.244  14.927  0.0517  0.1269  0.7231
 4502TIP3   OH234996   5.491   2.444  11.113 -0.0638 -0.4459  0.0574
 4502TIP3    H134997   5.420   2.427  11.174 -0.2378 -0.0279 -0.0233
 4502TIP3    H234998   5.463   2.402  11.031 -1.8899  2.6153 -1.0456
 4503TIP3   OH234999   3.159   2.178   0.515  0.1748  0.2417 -0.1010
 4503TIP3    H135000   3.092   2.167   0.583 -0.5177  0.3566 -0.7534
 4503TIP3    H235001   3.138   2.110   0.450  1.1496 -0.2148  0.0465
 4504TIP3   OH235002   4.822   0.769   2.521 -0.2416 -0.2818 -0.6155
 4504TIP3    H135003   4.847   0.717   2.445 -1.8514  1.2590 -2.3175
 4504TIP3    H235004   4.733   0.800   2.500 -0.4503  0.7701  1.5818
 4505TIP3   OH235005   4.059   5.435  11.975  0.2813 -0.0405  0.0891
 4505TIP3    H135006   3.997   5.491  12.022  0.4891 -1.1425  1.7663
 4505TIP3    H235007   4.033   5.346  11.998  1.1213 -0.6002 -1.0121
 4506TIP3   OH235008   2.505   1.850  13.449  0.1401  0.2652 -0.1977
 4506TIP3    H135009   2.441   1.910  13.412 -1.0608 -1.1399 -0.4952
 4506TIP3    H235010   2.539   1.896  13.526 -0.8083  1.2734 -0.3581
 4507TIP3   OH235011   3.498   1.476  12.636  0.3991 -0.5383 -0.0416
 4507TIP3    H135012   3.505   1.422  12.715  0.7064 -1.6478 -0.8108
 4507TIP3    H235013   3.481   1.413  12.565  0.2530  0.4272 -0.8808
 4508TIP3   OH235014   0.022   5.347   0.585 -0.0411 -0.2666  0.7392
 4508TIP3    H135015   0.005   5.255   0.605 -0.9979 -0.5360 -1.0423
 4508TIP3    H235016   0.100   5.345   0.529 -0.3866 -0.0475  0.2488
 4509TIP3   OH235017   6.576   6.789   3.620 -0.2479 -0.4041 -0.1108
 4509TIP3    H135018   6.664   6.821   3.600 -0.2057 -0.3262  0.1994
 4509TIP3    H235019   6.518   6.849   3.572 -0.1257 -0.6163 -0.5306
 4510TIP3   OH235020   2.509   3.497   0.123  0.2564  0.0272 -0.4321
 4510TIP3    H135021   2.481   3.406   0.111 -0.2016  0.2523 -1.1173
 4510TIP3    H235022   2.566   3.494   0.200 -1.4440 -0.4975  0.8851
 4511TIP3   OH235023   1.621   3.730  15.184 -0.1853  0.7337 -0.1464
 4511TIP3    H135024   1.632   3.795  15.114  0.9769 -0.1533 -0.8183
 4511TIP3    H235025   1.709   3.694  15.197 -0.4488  0.6308  1.5491
 4512TIP3   OH235026   6.834   2.120  16.296 -0.6635 -0.0167  0.1285
 4512TIP3    H135027   6.745   2.150  16.277 -1.0115 -0.7589  0.5565
 4512TIP3    H235028   6.825   2.026  16.312  0.5483 -0.6097 -2.2357
 4513TIP3   OH235029   0.706   3.669   0.511  0.0199  0.2755  0.0019
 4513TIP3    H135030   0.643   3.682   0.581  1.4491 -1.3164  1.6711
 4513TIP3    H235031   0.763   3.599   0.542  2.9171  1.9464 -1.1896
 4514TIP3   OH235032   2.685   3.598  11.339  0.2637 -0.2705 -0.2653
 4514TIP3    H135033   2.755   3.578  11.277  1.2396 -1.5282  1.1632
 4514TIP3    H235034   2.641   3.674  11.301  2.3953  0.5705 -1.2461
 4515TIP3   OH235035   4.615   6.723  14.806  0.4686 -0.7049  0.1084
 4515TIP3    H135036   4.598   6.707  14.713  1.2212 -1.3732  0.0694
 4515TIP3    H235037   4.595   6.815  14.819 -2.1587 -1.1643 -0.1318
 4516TIP3   OH235038   4.489   4.839  12.019 -0.9292  0.0441 -0.0128
 4516TIP3    H135039   4.547   4.839  12.095 -0.7276 -1.3836 -0.1305
 4516TIP3    H235040   4.510   4.757  11.974 -1.8613  0.3181 -0.9710
 4517TIP3   OH235041   2.320   6.541  14.943  0.0532 -0.4497  0.1539
 4517TIP3    H135042   2.370   6.510  14.867 -0.0345 -0.5105  0.1226
 4517TIP3    H235043   2.231   6.552  14.911 -0.1070 -1.0224  0.3908
 4518TIP3   OH235044   1.338   2.649  11.026 -0.5909 -0.0203  0.5250
 4518TIP3    H135045   1.396   2.725  11.034 -2.8143  2.1689 -2.2871
 4518TIP3    H235046   1.298   2.641  11.113  2.1925 -0.2762  1.9006
 4519TIP3   OH235047   5.970   4.649   6.299  0.2670  0.2824 -0.1395
 4519TIP3    H135048   5.986   4.743   6.305  3.8468 -0.0684 -1.9508
 4519TIP3    H235049   6.028   4.610   6.365 -1.7586 -0.7135  1.1647
 4520TIP3   OH235050   2.309   2.188  16.506  0.3410 -0.0767  0.3629
 4520TIP3    H135051   2.280   2.194  16.597 -0.0918 -1.2316  0.3143
 4520TIP3    H235052   2.378   2.122  16.507  0.2703 -0.1627 -0.1641
 4521TIP3   OH235053   6.809   3.588  12.108 -0.0714 -0.3650 -0.5204
 4521TIP3    H135054   6.814   3.508  12.055  2.6586  0.2937 -1.4026
 4521TIP3    H235055   6.788   3.657  12.045  1.8743  0.2218 -0.5717
 4522TIP3   OH235056   5.259   3.767   4.639  0.7095  0.0464  0.6462
 4522TIP3    H135057   5.193   3.835   4.626 -1.1876 -1.4503  1.9165
 4522TIP3    H235058   5.302   3.790   4.721  1.0448  0.4332  0.3684
 4523TIP3   OH235059   6.769   6.378   6.701 -0.1973 -0.3775  0.6120
 4523TIP3    H135060   6.733   6.373   6.613  0.1955 -2.0255  0.5187
 4523TIP3    H235061   6.724   6.452   6.742 -0.0297  0.7352 -1.1161
 4524TIP3   OH235062   6.342   3.912   5.916  0.0650 -0.6711 -0.0497
 4524TIP3    H135063   6.284   3.942   5.986  1.4697 -0.3186  1.0064
 4524TIP3    H235064   6.346   3.986   5.855  1.0456  0.1493  0.9638
 4525TIP3   OH235065   4.646   1.791   3.402  0.3552  0.1303 -0.5231
 4525TIP3    H135066   4.639   1.846   3.480  0.4725 -1.0001  0.3183
 4525TIP3    H235067   4.657   1.702   3.436  0.2916 -0.4110 -1.8338
 4526TIP3   OH235068   6.692   5.071  11.061  0.3068  0.9611 -0.5133
 4526TIP3    H135069   6.619   5.010  11.061  0.9078  0.2069  0.9539
 4526TIP3    H235070   6.737   5.055  10.978 -1.0842  1.3326 -1.3640
 4527TIP3   OH235071   3.299   4.447   0.352 -0.1109  0.0439 -0.8541
 4527TIP3    H135072   3.254   4.515   0.402  0.4251  1.5544 -2.3448
 4527TIP3    H235073   3.238   4.373   0.352 -0.0144 -0.1621  2.2203
 4528TIP3   OH235074   1.901   2.052   3.412  0.5707  0.3609  0.1915
 4528TIP3    H135075   1.955   2.066   3.334 -1.0614  1.8331 -0.7286
 4528TIP3    H235076   1.876   2.139   3.441  0.6089 -0.1875  2.0175
 4529TIP3   OH235077   5.192   1.416   1.629 -0.1630 -0.2078  0.1507
 4529TIP3    H135078   5.110   1.453   1.662 -0.4819 -0.2534 -0.5538
 4529TIP3    H235079   5.248   1.407   1.706  0.1468  2.2629  0.2908
 4530TIP3   OH235080   5.780   1.496   4.304  0.1914  0.4844 -1.0749
 4530TIP3    H135081   5.797   1.580   4.348  1.4724  0.8746 -2.2583
 4530TIP3    H235082   5.715   1.454   4.359 -0.5290  2.2812 -0.4705
 4531TIP3   OH235083   1.171   2.885   2.182 -1.0433 -0.3132 -0.2194
 4531TIP3    H135084   1.114   2.875   2.105 -1.2291 -2.2437  0.1163
 4531TIP3    H235085   1.132   2.828   2.248  0.9808 -1.3083  0.1864
 4532TIP3   OH235086   4.394   6.528  11.900  0.2487 -0.5603  0.2532
 4532TIP3    H135087   4.441   6.446  11.889 -0.2321 -0.6697 -1.2809
 4532TIP3    H235088   4.313   6.516  11.849 -0.9333  0.0235  1.8921
 4533TIP3   OH235089   0.343   4.537  14.837 -0.1640  0.0752  0.2411
 4533TIP3    H135090   0.357   4.442  14.843 -0.6054  0.0464  1.0273
 4533TIP3    H235091   0.344   4.566  14.928 -0.3686  0.7782  0.0211
 4534TIP3   OH235092   3.596   6.349  15.785  0.0666  0.4245 -0.6685
 4534TIP3    H135093   3.643   6.311  15.710 -0.5239 -1.3148 -0.2032
 4534TIP3    H235094   3.531   6.283  15.809  0.1915  0.9580  1.3378
 4535TIP3   OH235095   6.235   6.321  13.550  0.1945  0.2366 -0.4235
 4535TIP3    H135096   6.261   6.229  13.548  0.1228  0.2370 -1.4580
 4535TIP3    H235097   6.280   6.361  13.476  2.1079  1.5686  1.3411
 4536TIP3   OH235098   6.685   1.185   4.980  0.2378 -0.6103 -0.5192
 4536TIP3    H135099   6.714   1.275   4.970  0.0720 -0.5017 -0.0036
 4536TIP3    H235100   6.740   1.136   4.919  0.9647 -0.2960 -0.1271
 4537TIP3   OH235101   5.952   2.846  11.337  0.1136  0.0212 -0.1198
 4537TIP3    H135102   5.879   2.842  11.399  1.1060  1.3060  1.1855
 4537TIP3    H235103   5.984   2.936  11.343  3.8086 -1.2004  1.7529
 4538TIP3   OH235104   2.647   5.332  14.550 -0.6825 -0.0035  0.2649
 4538TIP3    H135105   2.551   5.338  14.547 -0.6642  0.8023  0.7599
 4538TIP3    H235106   2.674   5.413  14.594  0.3347  0.6159 -1.4239
 4539TIP3   OH235107   6.259   6.236  14.832  0.0453 -0.0006  0.7325
 4539TIP3    H135108   6.170   6.205  14.851  0.5299 -1.1529  1.1842
 4539TIP3    H235109   6.249   6.331  14.823 -1.2714 -0.1338  0.5320
 4540TIP3   OH235110   6.788   0.251   1.518  0.4708  0.1601 -0.0613
 4540TIP3    H135111   6.804   0.321   1.581  0.3016  0.3974 -0.2799
 4540TIP3    H235112   6.853   0.264   1.449  0.0831  0.4378 -0.3793
 4541TIP3   OH235113   3.699   3.689  16.266 -0.2324  0.1978 -0.2519
 4541TIP3    H135114   3.659   3.686  16.353  1.8762  2.2813  0.8860
 4541TIP3    H235115   3.792   3.672  16.281  0.4948  2.4112 -1.7862
 4542TIP3   OH235116   6.481   2.044  12.793 -0.2146 -0.6989 -0.0754
 4542TIP3    H135117   6.445   1.961  12.823 -0.9604  0.4878  2.6265
 4542TIP3    H235118   6.435   2.063  12.711  0.7440 -3.3660 -1.3424
 4543TIP3   OH235119   0.511   0.257  11.779  0.1456  0.3875  0.0363
 4543TIP3    H135120   0.564   0.232  11.703 -0.7081 -0.7214 -0.2200
 4543TIP3    H235121   0.508   0.352  11.776 -0.7568  0.3518 -1.9615
 4544TIP3   OH235122   4.437   0.442   0.300  0.5450  0.1414 -0.1748
 4544TIP3    H135123   4.488   0.518   0.271  1.8032 -0.2545  0.9167
 4544TIP3    H235124   4.355   0.479   0.333  0.4334  0.8606 -1.2064
 4545TIP3   OH235125   4.617   2.710   1.100 -0.1755  0.0747  0.7612
 4545TIP3    H135126   4.550   2.650   1.068  0.5150 -0.8508  0.9733
 4545TIP3    H235127   4.645   2.759   1.022 -1.5045  0.9040  0.7905
 4546TIP3   OH235128   2.127   2.326   0.392 -0.0729 -0.3090  0.1496
 4546TIP3    H135129   2.215   2.340   0.356 -0.6473  1.8541 -0.6166
 4546TIP3    H235130   2.068   2.337   0.317 -1.1004  0.6834  1.0549
 4547TIP3   OH235131   6.126   3.637  15.057 -0.5233  0.3150 -0.6951
 4547TIP3    H135132   6.090   3.563  15.106 -0.4341 -0.6933 -2.1014
 4547TIP3    H235133   6.130   3.708  15.121 -2.1445 -0.4079  0.2860
 4548TIP3   OH235134   5.237   0.252  11.339 -0.0523  1.2590 -0.2571
 4548TIP3    H135135   5.238   0.158  11.319  0.2853  1.6808 -2.5240
 4548TIP3    H235136   5.329   0.275  11.351 -0.2435  1.0252  2.0365
 4549TIP3   OH235137   2.621   1.180  13.953 -0.1048 -0.6727 -0.7389
 4549TIP3    H135138   2.672   1.108  13.917  1.1925  0.3835 -1.1062
 4549TIP3    H235139   2.631   1.251  13.889 -0.7706  0.0685 -0.0540
 4550TIP3   OH235140   4.435   1.132   0.911 -0.2990  0.1343  0.2800
 4550TIP3    H135141   4.459   1.211   0.862  1.5731 -1.4512 -1.5405
 4550TIP3    H235142   4.514   1.110   0.960  0.9295 -2.9703 -2.7025
 4551TIP3   OH235143   5.587   1.849   6.408 -0.2485  0.4029  0.1268
 4551TIP3    H135144   5.500   1.865   6.443  0.1110  2.6119  0.1178
 4551TIP3    H235145   5.575   1.845   6.313 -0.0624  3.5083 -0.1319
 4552TIP3   OH235146   3.383   6.002   4.942 -0.5680  0.2699  0.2710
 4552TIP3    H135147   3.466   6.048   4.952  1.2940 -2.8297  0.4105
 4552TIP3    H235148   3.365   6.005   4.848 -0.2352  0.8781  0.2275
 4553TIP3   OH235149   1.557   0.055  13.599  0.1834  0.2073  0.2590
 4553TIP3    H135150   1.490   0.088  13.538  0.4746 -0.8778 -0.6858
 4553TIP3    H235151   1.639   0.092  13.567  0.3836 -0.6369 -0.2533
 4554TIP3   OH235152   4.446   1.438   0.627  0.7450  0.3273  0.3337
 4554TIP3    H135153   4.532   1.476   0.611  0.9629 -0.0272  0.6604
 4554TIP3    H235154   4.459   1.344   0.621  0.4366  0.2611  0.6427
 4555TIP3   OH235155   6.421   4.068  11.885 -0.4199 -0.6861 -0.2204
 4555TIP3    H135156   6.376   4.151  11.870  1.4183  0.2455 -0.9195
 4555TIP3    H235157   6.435   4.065  11.980 -0.4675 -0.1741 -0.1965
 4556TIP3   OH235158   2.378   0.386  15.808  0.1078  0.3989 -0.2451
 4556TIP3    H135159   2.326   0.320  15.855  0.4821  0.8645  0.8532
 4556TIP3    H235160   2.316   0.425  15.746 -0.7797  0.6864  0.7761
 4557TIP3   OH235161   6.034   4.412   1.127  0.7429 -0.1102  0.4504
 4557TIP3    H135162   5.964   4.435   1.187  0.5593  0.5911 -0.0113
 4557TIP3    H235163   6.103   4.375   1.182  0.7102  0.8209  1.1400
 4558TIP3   OH235164   3.862   2.058  16.521  0.0570  0.0478 -0.4057
 4558TIP3    H135165   3.852   2.131  16.460 -1.0972 -1.2506 -1.8542
 4558TIP3    H235166   3.798   1.993  16.491  0.9460 -1.5027  0.9195
 4559TIP3   OH235167   3.805   6.296  16.870 -0.0326 -0.3457  0.9618
 4559TIP3    H135168   3.887   6.299  16.821 -1.0648 -0.8798 -0.9302
 4559TIP3    H235169   3.768   6.384  16.860 -0.4423 -0.5750  0.3611
 4560TIP3   OH235170   4.350   4.605   5.658 -0.3703 -0.0355 -0.1037
 4560TIP3    H135171   4.289   4.677   5.673 -1.1457 -1.1274  2.3749
 4560TIP3    H235172   4.319   4.535   5.715  1.0143 -1.9706 -1.6160
 4561TIP3   OH235173   3.953   4.863  14.409  0.4952 -0.4554 -0.2000
 4561TIP3    H135174   3.922   4.814  14.333 -1.3082  0.9548 -0.4366
 4561TIP3    H235175   4.047   4.842  14.414  0.6385 -0.7331 -2.6903
 4562TIP3   OH235176   4.955   6.189  16.718  0.3945 -0.2249  0.2361
 4562TIP3    H135177   4.927   6.097  16.728 -0.9923 -0.0244 -1.3861
 4562TIP3    H235178   4.933   6.229  16.802  1.4853 -1.4546  1.1601
 4563TIP3   OH235179   2.921   4.109  15.163  0.0779  0.0593 -0.7664
 4563TIP3    H135180   2.946   4.201  15.159  0.2819 -0.0153 -1.3503
 4563TIP3    H235181   3.000   4.064  15.195 -0.3497  0.2007  0.5534
 4564TIP3   OH235182   4.238   0.156  13.125  0.8060  0.3640  0.0023
 4564TIP3    H135183   4.261   0.149  13.217  0.6549  1.8161  0.1646
 4564TIP3    H235184   4.146   0.184  13.125  0.2951 -1.1892 -0.6146
 4565TIP3   OH235185   6.139   1.350  14.265  0.5671  0.0811  0.4432
 4565TIP3    H135186   6.108   1.420  14.322 -1.5448 -0.2613 -0.2108
 4565TIP3    H235187   6.233   1.366  14.256  0.4857  1.6389  1.9037
 4566TIP3   OH235188   4.926   0.690   2.278  0.1819 -0.3440 -0.6625
 4566TIP3    H135189   4.914   0.785   2.287 -0.6399 -0.6019  1.8387
 4566TIP3    H235190   5.020   0.679   2.268  0.5456  0.6784  1.1328
 4567TIP3   OH235191   1.653   6.623  15.414  0.4313 -0.4359 -0.0496
 4567TIP3    H135192   1.599   6.645  15.489  1.2070 -0.2289  0.4586
 4567TIP3    H235193   1.743   6.633  15.445  0.8137 -2.6375 -0.2859
 4568TIP3   OH235194   3.701   3.642  14.837 -0.0663  0.2070 -0.4651
 4568TIP3    H135195   3.740   3.709  14.781 -1.6166  3.7500  2.2905
 4568TIP3    H235196   3.612   3.632  14.802 -0.0220  0.0215 -0.5241
 4569TIP3   OH235197   3.095   3.279   0.979  0.2331 -0.3849  0.1961
 4569TIP3    H135198   3.143   3.197   0.965  1.9090  0.5902  0.0449
 4569TIP3    H235199   3.114   3.303   1.069 -0.3551 -0.2002  0.2788
 4570TIP3   OH235200   4.179   6.640  13.303 -0.3861  0.1852 -0.0779
 4570TIP3    H135201   4.132   6.716  13.337  0.1613  1.2868 -1.6608
 4570TIP3    H235202   4.270   6.656  13.325 -0.6342 -2.0570  3.1883
 4571TIP3   OH235203   1.051   5.548  11.316  0.5708  0.2849 -0.7032
 4571TIP3    H135204   0.976   5.567  11.260 -0.5756 -0.3179  0.5621
 4571TIP3    H235205   1.021   5.477  11.373  2.3071 -0.3651 -0.5454
 4572TIP3   OH235206   4.829   6.754   1.948 -0.1221  0.8281 -0.5828
 4572TIP3    H135207   4.848   6.715   1.862 -0.2161  1.0402 -0.7023
 4572TIP3    H235208   4.815   6.847   1.929 -1.0916  0.7090 -0.4780
 4573TIP3   OH235209   2.805   4.971   1.926  0.2009  0.1865 -0.2897
 4573TIP3    H135210   2.852   5.036   1.977  2.9696 -0.2376 -2.0883
 4573TIP3    H235211   2.791   5.012   1.841  2.3176 -1.5881 -1.5751
 4574TIP3   OH235212   2.744   1.969  14.425 -0.4603 -0.0034 -0.5015
 4574TIP3    H135213   2.650   1.989  14.422 -0.4006  1.4914  3.0464
 4574TIP3    H235214   2.748   1.883  14.468 -0.1917 -0.8376 -2.1241
 4575TIP3   OH235215   5.074   0.976   1.029  1.1295 -0.2604 -0.0420
 4575TIP3    H135216   5.040   0.887   1.039  0.5640 -0.4524 -2.7937
 4575TIP3    H235217   5.169   0.965   1.028  1.0629 -1.2308 -2.5636
 4576TIP3   OH235218   4.072   4.745   3.040  0.3818 -0.5746 -0.5773
 4576TIP3    H135219   4.156   4.709   3.067  0.6181  0.9956  0.9515
 4576TIP3    H235220   4.020   4.669   3.014  1.8872 -1.6664 -0.4819
 4577TIP3   OH235221   0.095   2.163   5.735 -0.7037 -0.1895  0.0115
 4577TIP3    H135222   0.123   2.203   5.817 -2.6785 -1.3727  1.3322
 4577TIP3    H235223   0.169   2.176   5.676  0.7300  0.8175  1.9246
 4578TIP3   OH235224   2.673   4.752   4.591  0.0308 -0.3769  0.7815
 4578TIP3    H135225   2.673   4.731   4.684  0.3023 -1.4039  0.5601
 4578TIP3    H235226   2.719   4.679   4.549  0.4033  0.3429 -0.1026
 4579TIP3   OH235227   2.145   2.385  16.397  0.1930  0.4074  0.6768
 4579TIP3    H135228   2.208   2.325  16.437  0.2090  0.6548  1.0327
 4579TIP3    H235229   2.197   2.436  16.335  0.0918 -0.2454  0.0395
 4580TIP3   OH235230   3.375   5.858  13.118 -0.0174 -0.1398  0.0389
 4580TIP3    H135231   3.333   5.772  13.126  0.4596 -0.6689 -2.3449
 4580TIP3    H235232   3.351   5.887  13.030 -1.1373  2.7564  1.1781
 4581TIP3   OH235233   2.555   0.611   5.206 -0.3964  0.3760  0.2427
 4581TIP3    H135234   2.604   0.668   5.265  2.0666 -0.6831 -0.6677
 4581TIP3    H235235   2.469   0.603   5.247 -0.0046  2.6516  1.7012
 4582TIP3   OH235236   4.507   3.905   1.249 -0.1164  0.3931 -0.3797
 4582TIP3    H135237   4.425   3.950   1.266 -0.6131 -0.3274 -0.8095
 4582TIP3    H235238   4.558   3.966   1.196 -0.2640  0.9509  0.1183
 4583TIP3   OH235239   5.508   1.246   2.600  0.1851  0.1168  0.5495
 4583TIP3    H135240   5.459   1.177   2.645  0.4572 -0.3218  0.1793
 4583TIP3    H235241   5.448   1.320   2.597 -0.3143 -0.2883  0.4513
 4584TIP3   OH235242   1.599   3.322  14.861 -0.0340 -0.3150  0.3190
 4584TIP3    H135243   1.555   3.279  14.787  0.2762  1.0405 -0.6871
 4584TIP3    H235244   1.538   3.311  14.934 -2.8789  2.7095 -1.3258
 4585TIP3   OH235245   3.564   3.121  11.481 -0.2264  0.3278 -0.3860
 4585TIP3    H135246   3.528   3.204  11.514 -0.4247  0.1707 -0.2056
 4585TIP3    H235247   3.653   3.118  11.517  0.7346  1.6684 -2.4371
 4586TIP3   OH235248   0.159   4.596   0.920  0.4003  0.5773  0.2071
 4586TIP3    H135249   0.116   4.591   1.005 -0.6182 -0.1166 -0.3272
 4586TIP3    H235250   0.113   4.531   0.866  1.1769  0.8456 -0.8018
 4587TIP3   OH235251   1.279   2.034   2.813  0.1250  0.4334  0.0503
 4587TIP3    H135252   1.367   2.070   2.825 -0.0011  0.6181  0.4804
 4587TIP3    H235253   1.266   1.978   2.890 -0.0791  0.3010 -0.0805
 4588TIP3   OH235254   0.804   6.104   2.496 -0.5334  0.0854 -0.1027
 4588TIP3    H135255   0.831   6.023   2.452  0.3095  1.1499 -1.6084
 4588TIP3    H235256   0.880   6.129   2.548 -0.7467 -0.0101  0.2587
 4589TIP3   OH235257   0.437   5.091  16.496  0.1901  0.1959 -0.7314
 4589TIP3    H135258   0.509   5.057  16.549 -1.1858 -0.8969  0.4854
 4589TIP3    H235259   0.374   5.020  16.491 -2.0065  1.9175  0.4369
 4590TIP3   OH235260   2.054   6.084  17.110 -0.3986  0.5521 -0.1754
 4590TIP3    H135261   2.135   6.127  17.082 -0.1616  1.5128  1.8083
 4590TIP3    H235262   1.996   6.156  17.135 -0.9074 -0.1972  0.8676
 4591TIP3   OH235263   3.770   0.107   2.709 -0.1996  0.5574 -0.2055
 4591TIP3    H135264   3.725   0.161   2.644 -1.0752 -0.6347 -0.6335
 4591TIP3    H235265   3.859   0.141   2.712 -1.0217  2.8541  0.4827
 4592TIP3   OH235266   0.049   2.270   0.517  0.3501  0.8967  0.0351
 4592TIP3    H135267   0.135   2.232   0.535  0.5779  0.1250 -2.3320
 4592TIP3    H235268   0.061   2.364   0.532  1.2177  0.6575  0.9953
 4593TIP3   OH235269   5.683   5.965   0.837 -0.0046 -0.2393  0.4576
 4593TIP3    H135270   5.755   5.926   0.886 -0.7696  1.4692  3.1179
 4593TIP3    H235271   5.631   5.891   0.808  0.5217 -1.3547  2.2150
 4594TIP3   OH235272   2.827   3.623   1.839  0.4089 -0.0302 -0.0288
 4594TIP3    H135273   2.761   3.556   1.819 -1.1237  0.7213  2.0688
 4594TIP3    H235274   2.777   3.705   1.842  0.9720  0.3286  3.3310
 4595TIP3   OH235275   3.000   2.800   3.495 -0.1596 -0.1296 -0.6598
 4595TIP3    H135276   3.088   2.834   3.508  0.1823 -1.1686 -0.1766
 4595TIP3    H235277   2.972   2.837   3.411  0.5336  0.6080 -0.5767
 4596TIP3   OH235278   6.481   3.089   0.922  0.3224 -0.0982  0.5712
 4596TIP3    H135279   6.528   3.055   0.845  0.6872  0.5525  0.5023
 4596TIP3    H235280   6.416   3.021   0.941 -1.0742  0.5443 -1.4681
 4597TIP3   OH235281   4.467   6.686   6.010  0.1872  0.2487  0.3101
 4597TIP3    H135282   4.550   6.718   5.974  1.0154 -0.1044  1.8211
 4597TIP3    H235283   4.492   6.634   6.086 -0.8378 -6.0990 -3.0546
 4598TIP3   OH235284   2.326   3.018  12.474  0.0663  0.1148 -0.2545
 4598TIP3    H135285   2.356   2.927  12.470  1.3201  0.4955 -0.1114
 4598TIP3    H235286   2.359   3.050  12.558  0.3058  0.9138 -0.6421
 4599TIP3   OH235287   6.387   1.131  14.545 -0.0578 -0.1654  1.1782
 4599TIP3    H135288   6.460   1.108  14.602 -0.6744 -1.7322  1.4004
 4599TIP3    H235289   6.424   1.128  14.456  0.4545  0.3858  1.3722
 4600TIP3   OH235290   3.962   3.605  13.742 -0.4010 -0.1345  0.1455
 4600TIP3    H135291   3.976   3.538  13.676  0.7801  0.8090 -0.6045
 4600TIP3    H235292   3.906   3.670  13.699  0.8866  0.7941 -0.1934
 4601TIP3   OH235293   6.575   5.009  12.270  0.1549 -0.4411 -0.5761
 4601TIP3    H135294   6.557   5.098  12.241  0.8535 -0.2945 -0.5740
 4601TIP3    H235295   6.598   4.962  12.190 -1.5251 -0.9731 -0.7829
 4602TIP3   OH235296   5.404   0.420  14.697 -0.3372  0.0778 -0.1965
 4602TIP3    H135297   5.388   0.514  14.684  0.2002  0.0175 -1.4278
 4602TIP3    H235298   5.463   0.396  14.626 -0.4640 -1.2031  0.1107
 4603TIP3   OH235299   2.041   0.277  12.131 -0.7368  0.4741  0.0829
 4603TIP3    H135300   1.953   0.272  12.170 -1.1668  0.1760 -0.8911
 4603TIP3    H235301   2.083   0.349  12.177 -1.9629  1.4774 -0.2946
 4604TIP3   OH235302   3.742   2.844   6.527 -0.1057  0.2076  0.3795
 4604TIP3    H135303   3.659   2.810   6.493 -0.6339  1.7204  0.0981
 4604TIP3    H235304   3.809   2.802   6.472 -0.8194  0.7995 -0.9983
 4605TIP3   OH235305   3.376   2.887   4.202 -0.3173 -0.1046  0.3749
 4605TIP3    H135306   3.422   2.804   4.191  0.1252  0.3217 -1.0951
 4605TIP3    H235307   3.419   2.928   4.277 -0.5077 -1.1632  1.0850
 4606TIP3   OH235308   1.712   1.346  15.842  0.5615 -0.4539 -0.0659
 4606TIP3    H135309   1.628   1.384  15.817  1.2667  0.3283 -1.3602
 4606TIP3    H235310   1.700   1.320  15.933 -0.5492  1.2047  0.3127
 4607TIP3   OH235311   0.122   1.421   4.074 -0.4744 -0.1735 -0.6146
 4607TIP3    H135312   0.132   1.456   4.162 -1.7555  1.6777 -1.1324
 4607TIP3    H235313   0.077   1.338   4.086 -0.3979 -0.0716  0.4812
 4608TIP3   OH235314   3.391   5.089  11.096 -0.0764 -0.2109 -0.1406
 4608TIP3    H135315   3.394   5.145  11.173  1.1697  1.5036 -1.3613
 4608TIP3    H235316   3.309   5.111  11.053 -0.3312 -0.4899  0.1972
 4609TIP3   OH235317   3.813   4.277   4.092  0.7766  0.2225 -0.5654
 4609TIP3    H135318   3.847   4.212   4.154  0.0143  1.9049  1.7264
 4609TIP3    H235319   3.718   4.263   4.092  0.8207 -0.2852 -2.0497
 4610TIP3   OH235320   5.477   5.332   2.609  0.2644 -0.1585  0.0937
 4610TIP3    H135321   5.472   5.333   2.705  2.1387  1.0773  0.2310
 4610TIP3    H235322   5.449   5.420   2.583 -0.3747 -0.5351 -0.5166
 4611TIP3   OH235323   5.213   3.424   1.497  0.4002  0.0980  0.2689
 4611TIP3    H135324   5.233   3.372   1.574  2.3718 -0.7696 -0.7597
 4611TIP3    H235325   5.289   3.413   1.440 -0.4968  1.6152 -1.3261
 4612TIP3   OH235326   3.977   5.202  15.058  0.3182  0.4701  0.2690
 4612TIP3    H135327   3.943   5.113  15.055 -0.7362  0.8646  0.0916
 4612TIP3    H235328   3.903   5.255  15.087  0.8906  1.3042  0.2347
 4613TIP3   OH235329   5.012   2.956   2.718 -0.2474  0.4273 -0.1219
 4613TIP3    H135330   4.947   3.017   2.752  1.1159  1.0384  1.4973
 4613TIP3    H235331   5.044   2.997   2.638 -0.6762  0.9052 -0.0528
 4614TIP3   OH235332   1.534   0.767   5.982 -0.0139  0.4504 -0.4236
 4614TIP3    H135333   1.489   0.716   6.050  2.8784  0.4294  1.6322
 4614TIP3    H235334   1.490   0.852   5.984 -0.7947  0.0559  0.5953
 4615TIP3   OH235335   4.047   3.809   5.287 -0.0882 -0.0086 -0.3818
 4615TIP3    H135336   4.134   3.803   5.327  0.3458  1.5471 -1.0304
 4615TIP3    H235337   4.034   3.724   5.245  1.6421  0.1497 -1.3104
 4616TIP3   OH235338   2.854   0.504   2.722  0.6824 -0.0058  0.5289
 4616TIP3    H135339   2.847   0.525   2.629 -0.3880 -0.7252  0.4299
 4616TIP3    H235340   2.911   0.572   2.757  0.7985  0.4982 -0.5796
 4617TIP3   OH235341   5.797   4.680  13.316 -0.4276  0.0321  0.5502
 4617TIP3    H135342   5.719   4.657  13.366 -0.4651  0.2018  0.5685
 4617TIP3    H235343   5.806   4.775  13.327 -0.1238 -0.0126  0.6840
 4618TIP3   OH235344   5.342   4.989   5.705 -0.3092 -0.6219  0.3604
 4618TIP3    H135345   5.293   4.983   5.786  0.2708  0.0780  0.7801
 4618TIP3    H235346   5.429   5.019   5.732 -0.1201 -0.3507 -0.5125
 4619TIP3   OH235347   0.582   5.650  15.771 -0.0104 -0.0087 -0.7663
 4619TIP3    H135348   0.495   5.623  15.743 -1.2326  0.7666  1.9005
 4619TIP3    H235349   0.616   5.575  15.820  0.2675  0.1591 -0.6991
 4620TIP3   OH235350   2.407   0.522  11.089 -0.3717 -0.1201  0.2824
 4620TIP3    H135351   2.489   0.473  11.105 -0.1397 -0.1647 -0.9825
 4620TIP3    H235352   2.371   0.484  11.009 -0.7308  1.0828 -0.1509
 4621TIP3   OH235353   4.408   3.166   6.014 -0.1787 -0.1376 -0.1702
 4621TIP3    H135354   4.387   3.237   6.075 -0.6739  0.4330 -0.9767
 4621TIP3    H235355   4.324   3.129   5.990 -0.0334 -0.0533 -0.8439
 4622TIP3   OH235356   1.479   6.090  11.950  0.5776 -0.5923  0.3419
 4622TIP3    H135357   1.408   6.095  12.014  0.8039 -3.1519  0.8888
 4622TIP3    H235358   1.437   6.059  11.870  0.7394 -0.0149  0.0297
 4623TIP3   OH235359   6.580   5.263  12.163  0.3041  0.1126 -0.0084
 4623TIP3    H135360   6.526   5.305  12.096  1.4590 -0.6577 -1.4686
 4623TIP3    H235361   6.639   5.332  12.194  0.4468  0.2202 -0.5200
 4624TIP3   OH235362   3.052   5.800   5.582 -0.3959  0.3945  0.4018
 4624TIP3    H135363   3.063   5.831   5.672 -1.8473  0.4987  0.5695
 4624TIP3    H235364   3.047   5.880   5.529  1.1979  0.3296  0.0957
 4625TIP3   OH235365   3.296   5.704   0.867  0.0594  0.9389  0.2765
 4625TIP3    H135366   3.318   5.730   0.956 -0.8671 -0.0258  0.8106
 4625TIP3    H235367   3.346   5.764   0.811  1.5071  0.8704  1.4259
 4626TIP3   OH235368   2.255   0.883  16.118 -0.1047  0.1159  0.5007
 4626TIP3    H135369   2.222   0.967  16.150 -0.2361 -0.0809  0.8900
 4626TIP3    H235370   2.351   0.893  16.120  0.0013 -0.5964  2.9956
 4627TIP3   OH235371   4.499   5.445   4.197  0.2637  0.0417  0.1366
 4627TIP3    H135372   4.490   5.536   4.168 -1.0917  0.9466  3.0082
 4627TIP3    H235373   4.549   5.451   4.279 -0.1974 -1.7460  0.5802
 4628TIP3   OH235374   3.672   0.265  15.891 -0.2146  0.4037 -0.3252
 4628TIP3    H135375   3.656   0.171  15.894  0.8033  0.2031 -0.8164
 4628TIP3    H235376   3.648   0.297  15.978 -0.6139 -0.2957 -0.1726
 4629TIP3   OH235377   5.367   3.325  14.579 -0.6014 -0.6476 -0.0657
 4629TIP3    H135378   5.393   3.270  14.652 -1.0159 -2.6074 -1.3083
 4629TIP3    H235379   5.271   3.319  14.578 -0.5612 -1.4298 -1.3036
 4630TIP3   OH235380   4.164   0.949  16.414  0.1255 -0.9328  0.0408
 4630TIP3    H135381   4.118   1.032  16.429  2.0575  0.1546  0.3566
 4630TIP3    H235382   4.202   0.927  16.499 -1.7596 -3.1293  0.4162
 4631TIP3   OH235383   2.225   0.140  15.254  0.1465 -0.0033  0.7733
 4631TIP3    H135384   2.164   0.121  15.325 -2.0524 -0.4985 -1.1175
 4631TIP3    H235385   2.204   0.075  15.187  1.5948  0.9167 -0.6308
 4632TIP3   OH235386   3.072   6.550   3.201  0.4360  0.3772  0.4889
 4632TIP3    H135387   3.150   6.525   3.251  0.5863 -0.8017 -0.3023
 4632TIP3    H235388   3.000   6.537   3.262  0.9327  2.9752  1.7600
 4633TIP3   OH235389   6.721   5.697   3.074 -0.5079 -0.0755 -0.0247
 4633TIP3    H135390   6.732   5.722   2.982  0.2193 -0.3604 -0.0249
 4633TIP3    H235391   6.795   5.640   3.092 -0.5496  0.1102  0.7904
 4634TIP3   OH235392   3.085   4.451  11.763 -0.4433 -0.0803  0.1976
 4634TIP3    H135393   3.175   4.426  11.743  0.3514  3.1217 -0.8153
 4634TIP3    H235394   3.038   4.439  11.680 -0.0884  1.4991 -0.2555
 4635TIP3   OH235395   2.316   0.792   6.540 -1.0218  0.9405  0.7105
 4635TIP3    H135396   2.318   0.822   6.450  0.7230 -0.8702  0.0761
 4635TIP3    H235397   2.231   0.750   6.550 -1.0217  0.7062 -0.2524
 4636TIP3   OH235398   0.091   6.484   5.764 -0.1486  0.2561 -0.4835
 4636TIP3    H135399   0.099   6.578   5.752  1.4877  0.2760  0.5296
 4636TIP3    H235400   0.017   6.474   5.825  1.0803  1.0613  1.2085
 4637TIP3   OH235401   0.487   6.802   3.033  0.5212 -0.9392 -0.1333
 4637TIP3    H135402   0.463   6.719   3.075  0.5442 -0.3998  0.9813
 4637TIP3    H235403   0.403   6.843   3.013  0.4710 -0.1959  1.4556
 4638TIP3   OH235404   6.340   3.682  13.977 -0.2222 -0.4930 -0.1613
 4638TIP3    H135405   6.313   3.620  13.909 -0.3556  0.5550 -1.0936
 4638TIP3    H235406   6.417   3.725  13.940 -1.4375  1.4851 -0.5311
 4639TIP3   OH235407   1.631   1.501  16.776 -0.4016  0.0036  0.0505
 4639TIP3    H135408   1.622   1.414  16.736 -0.5013  0.1644 -0.2861
 4639TIP3    H235409   1.725   1.520  16.770 -0.3257 -0.2357  0.4590
 4640TIP3   OH235410   3.837   2.780  14.759 -0.3825  0.3418 -0.9322
 4640TIP3    H135411   3.787   2.793  14.840 -1.6635 -0.4362 -1.5594
 4640TIP3    H235412   3.862   2.688  14.760  0.1989  0.4940 -1.0995
 4641TIP3   OH235413   1.062   0.471   5.204  0.4959  0.1012  0.9551
 4641TIP3    H135414   0.988   0.527   5.181 -0.8483 -1.7272  0.6457
 4641TIP3    H235415   1.107   0.456   5.121 -1.6112 -2.6308  0.1713
 4642TIP3   OH235416   0.037   4.415   5.889  0.3399 -0.0723  0.2997
 4642TIP3    H135417   0.083   4.439   5.808 -0.9786 -0.1675 -0.4967
 4642TIP3    H235418   0.098   4.440   5.958  1.2621  0.5541 -0.6969
 4643TIP3   OH235419   1.808   0.558   2.723  0.2892 -0.4772 -0.1833
 4643TIP3    H135420   1.798   0.570   2.817  0.4983  3.5431 -0.4956
 4643TIP3    H235421   1.900   0.579   2.705 -0.0124 -0.0627 -1.3775
 4644TIP3   OH235422   0.698   2.747   1.320  0.5494  0.7031 -0.4078
 4644TIP3    H135423   0.753   2.677   1.355 -0.0472 -0.1293 -1.0766
 4644TIP3    H235424   0.677   2.719   1.231 -2.1447  0.2116  0.2742
 4645TIP3   OH235425   4.718   5.373  15.137 -0.0014 -0.1190 -0.7739
 4645TIP3    H135426   4.644   5.391  15.196 -0.6429 -3.9390 -0.1345
 4645TIP3    H235427   4.794   5.368  15.195  0.1019  0.0799 -0.8908
 4646TIP3   OH235428   1.300   5.412  11.281 -1.1713 -0.4053 -0.1395
 4646TIP3    H135429   1.216   5.454  11.270 -1.1785 -0.6542 -1.1034
 4646TIP3    H235430   1.360   5.460  11.224 -0.5839 -0.0662  0.7240
 4647TIP3   OH235431   2.045   0.954   0.345  0.1685  0.3076 -0.1042
 4647TIP3    H135432   2.057   0.955   0.250  1.7338 -0.2776  0.0554
 4647TIP3    H235433   2.134   0.962   0.380 -0.0148 -2.4251  1.2674
 4648TIP3   OH235434   3.603   3.461   4.175 -0.2574 -0.1579 -0.1796
 4648TIP3    H135435   3.681   3.506   4.144 -0.4515 -1.2843 -2.4734
 4648TIP3    H235436   3.534   3.528   4.173 -0.2906 -0.1961 -2.4187
 4649TIP3   OH235437   3.488   4.128   4.750 -0.5743 -0.0916  0.1007
 4649TIP3    H135438   3.482   4.034   4.768  1.2264 -0.3649 -0.4766
 4649TIP3    H235439   3.542   4.162   4.821  0.7478  0.0507 -0.9313
 4650TIP3   OH235440   0.509   1.341  16.368  0.0622  0.7532  0.3401
 4650TIP3    H135441   0.461   1.402  16.424 -1.2735 -0.0904  0.1547
 4650TIP3    H235442   0.450   1.324  16.295 -0.0155 -1.5220  0.8718
 4651TIP3   OH235443   3.502   4.295  14.528 -0.0416  0.2533  0.3670
 4651TIP3    H135444   3.449   4.259  14.600 -0.1833  2.2622  1.3246
 4651TIP3    H235445   3.438   4.319  14.461 -0.0465 -0.1990  0.2065
 4652TIP3   OH235446   1.075   4.907   2.289  0.3341  0.1295  0.2289
 4652TIP3    H135447   1.061   4.989   2.338 -0.6375 -0.6893  1.3928
 4652TIP3    H235448   0.998   4.899   2.234  0.5574  0.1243 -0.0849
 4653TIP3   OH235449   0.435   3.073   3.015  0.0869  0.0252 -1.0999
 4653TIP3    H135450   0.428   3.063   2.920 -2.8265 -0.2879 -0.9696
 4653TIP3    H235451   0.380   3.003   3.050  0.5190  0.5774  0.7894
 4654TIP3   OH235452   0.562   3.589  17.043 -0.2761 -0.0396 -0.0309
 4654TIP3    H135453   0.531   3.553  17.126 -1.1901  1.7822  0.4673
 4654TIP3    H235454   0.514   3.540  16.976 -1.3755  0.1108  0.6141
 4655TIP3   OH235455   0.232   0.075  17.043 -0.2790  0.3646 -0.1608
 4655TIP3    H135456   0.188  -0.007  17.065 -0.1408  0.3925  0.2318
 4655TIP3    H235457   0.325   0.056  17.058 -0.4509  1.5876  3.3700
 4656TIP3   OH235458   2.672   3.434   2.537 -0.3856  0.3307 -0.5573
 4656TIP3    H135459   2.598   3.491   2.554  0.8431  1.8808 -0.1553
 4656TIP3    H235460   2.636   3.345   2.543 -1.7756  0.9632  1.8342
 4657TIP3   OH235461   5.410   4.300  11.369  0.7123 -0.3978  0.3256
 4657TIP3    H135462   5.456   4.248  11.303  0.0234 -0.3499 -0.2176
 4657TIP3    H235463   5.371   4.236  11.428 -0.2720 -0.5235 -0.4366
 4658TIP3   OH235464   3.563   1.025   5.614  0.7011  0.2465  0.5881
 4658TIP3    H135465   3.648   0.986   5.632  1.0182  0.2360 -0.8402
 4658TIP3    H235466   3.519   0.961   5.557  0.1049  0.6679  0.5644
 4659TIP3   OH235467   1.920   5.756   3.673 -0.2704  0.4616 -1.1013
 4659TIP3    H135468   1.959   5.837   3.640 -0.3948  0.4206 -1.3589
 4659TIP3    H235469   1.863   5.783   3.744 -1.4078  0.7816 -2.0942
 4660TIP3   OH235470   1.118   4.502  14.992  0.3773  0.5971  0.1095
 4660TIP3    H135471   1.176   4.462  14.928  0.9565  1.9455 -0.2558
 4660TIP3    H235472   1.036   4.454  14.983  0.7849  0.0482 -0.8806
 4661TIP3   OH235473   4.641   0.274   0.922  0.1868  0.5523 -0.8642
 4661TIP3    H135474   4.721   0.230   0.948 -0.6236 -0.7388 -0.4673
 4661TIP3    H235475   4.626   0.247   0.832 -0.1614  0.2184 -0.7115
 4662TIP3   OH235476   2.984   0.902   1.960 -0.4223 -0.3757  0.3415
 4662TIP3    H135477   2.998   0.942   1.874  0.4299  0.9054  1.0331
 4662TIP3    H235478   2.894   0.871   1.959 -1.0041  1.2546 -0.3912
 4663TIP3   OH235479   5.478   1.482   4.301 -0.2286 -0.2187  0.2160
 4663TIP3    H135480   5.475   1.570   4.263  0.7809  0.9830  2.6512
 4663TIP3    H235481   5.427   1.489   4.382  0.4389 -1.6577  0.8052
 4664TIP3   OH235482   1.555   5.134  16.745  0.0307 -0.4482  0.1381
 4664TIP3    H135483   1.615   5.104  16.813 -1.7687 -2.5650  0.9369
 4664TIP3    H235484   1.579   5.085  16.667  0.7876  0.4567 -0.2155
 4665TIP3   OH235485   2.445   2.849  11.689 -0.1916  0.5004 -0.1643
 4665TIP3    H135486   2.478   2.903  11.761 -3.0593  1.6969  0.3765
 4665TIP3    H235487   2.445   2.907  11.613  1.0488 -0.1970 -0.7268
 4666TIP3   OH235488   5.029   1.250   3.367  0.2616 -0.2568  0.6032
 4666TIP3    H135489   5.046   1.344   3.362  2.3735 -0.6630 -2.4287
 4666TIP3    H235490   4.954   1.236   3.308  1.3653 -0.6809 -0.7462
 4667TIP3   OH235491   3.228   2.723   4.607  0.0138 -0.3439  0.2533
 4667TIP3    H135492   3.315   2.757   4.583 -0.6773  0.5939 -1.0611
 4667TIP3    H235493   3.203   2.774   4.684 -0.5805  1.5213 -1.1098
 4668TIP3   OH235494   0.843   2.958   3.362  0.2177 -0.0762 -0.0686
 4668TIP3    H135495   0.920   2.922   3.406  0.3768 -0.3442 -0.5607
 4668TIP3    H235496   0.876   2.997   3.282 -0.0604  0.5029  0.0930
 4669TIP3   OH235497   2.660   2.687  14.585 -0.1663  0.3734  0.0693
 4669TIP3    H135498   2.623   2.646  14.507 -0.8288 -0.8516  0.9789
 4669TIP3    H235499   2.754   2.686  14.571 -0.3408  2.1245 -1.6186
 4670TIP3   OH235500   1.305   0.295  16.346  0.6440 -0.4432  0.1532
 4670TIP3    H135501   1.395   0.304  16.315  1.3382 -0.9400  1.8831
 4670TIP3    H235502   1.303   0.210  16.391 -0.4468 -0.0751  0.8569
 4671TIP3   OH235503   1.986   5.434   5.898 -0.2975  0.1587  0.1238
 4671TIP3    H135504   2.040   5.371   5.945  0.8874  2.1341  1.6111
 4671TIP3    H235505   1.944   5.485   5.967 -1.8615  0.4810 -1.0172
 4672TIP3   OH235506   0.463   2.997  11.542 -0.4018 -0.2213  0.7264
 4672TIP3    H135507   0.526   3.058  11.504 -1.3834 -0.6240 -1.7228
 4672TIP3    H235508   0.454   2.927  11.477 -2.9179 -0.4723  1.2164
 4673TIP3   OH235509   2.256   6.287   4.417 -0.4948 -0.0382 -0.0401
 4673TIP3    H135510   2.281   6.358   4.358 -0.8268 -2.1658 -2.9346
 4673TIP3    H235511   2.235   6.331   4.500  2.4409  2.8663 -0.6440
 4674TIP3   OH235512   1.833   1.728   2.284  0.1457 -0.3581 -0.2095
 4674TIP3    H135513   1.890   1.795   2.246 -0.6209  1.0264  0.9878
 4674TIP3    H235514   1.837   1.743   2.378  0.1249 -2.1763  0.1277
 4675TIP3   OH235515   1.429   3.254  13.019 -0.2045 -0.3182 -0.4279
 4675TIP3    H135516   1.372   3.210  13.082  0.4600  1.3135  1.4299
 4675TIP3    H235517   1.510   3.203  13.021 -1.2343 -2.1820 -2.4897
 4676TIP3   OH235518   5.029   5.132   5.839  0.1532  0.6621 -0.0573
 4676TIP3    H135519   5.044   5.157   5.748  2.2609  0.5618  0.2203
 4676TIP3    H235520   5.080   5.051   5.851 -0.6578  0.2847  1.0328
 4677TIP3   OH235521   4.522   1.349   2.057 -0.2570 -0.6505 -0.2489
 4677TIP3    H135522   4.566   1.357   2.142  0.4394  0.9774 -0.7226
 4677TIP3    H235523   4.553   1.424   2.007 -2.6356 -0.1198 -1.0600
 4678TIP3   OH235524   6.139   4.382   2.044 -0.3489 -0.0307  0.0235
 4678TIP3    H135525   6.055   4.416   2.013  0.6817  1.5793 -1.1431
 4678TIP3    H235526   6.192   4.460   2.061  1.0797 -1.0062  0.2217
 4679TIP3   OH235527   6.285   2.964   0.733 -0.0060 -0.6055 -0.2835
 4679TIP3    H135528   6.238   2.958   0.816  0.2176 -0.1762 -0.1240
 4679TIP3    H235529   6.371   2.927   0.751 -0.4755 -1.9758 -0.7380
 4680TIP3   OH235530   4.080   3.418  12.213  0.1418  0.2553  0.2105
 4680TIP3    H135531   4.048   3.490  12.266  0.3118  0.4035  0.1133
 4680TIP3    H235532   4.109   3.352  12.276 -0.9680 -0.1626  0.3052
 4681TIP3   OH235533   4.657   0.375   4.379  0.5344 -0.1549  0.2414
 4681TIP3    H135534   4.650   0.420   4.295 -1.6755  0.2628  0.5946
 4681TIP3    H235535   4.751   0.372   4.397  0.9819  0.6497 -1.7382
 4682TIP3   OH235536   2.928   1.647   0.716  0.1124 -0.7758  0.0699
 4682TIP3    H135537   3.019   1.642   0.746 -0.2317 -0.5385  1.1873
 4682TIP3    H235538   2.890   1.563   0.742 -0.0163 -0.8354 -0.3057
 4683TIP3   OH235539   6.625   2.054  13.045  0.3354  0.0008 -0.3220
 4683TIP3    H135540   6.650   1.963  13.059 -1.8049 -0.4152  1.3275
 4683TIP3    H235541   6.562   2.050  12.973 -0.1859  0.0917  0.1252
 4684TIP3   OH235542   4.279   0.804  10.790 -0.0600 -0.6565  0.3169
 4684TIP3    H135543   4.330   0.725  10.773 -1.4346 -0.7689 -5.1532
 4684TIP3    H235544   4.189   0.773  10.797 -0.4833  0.3082 -0.6885
 4685TIP3   OH235545   3.159   1.110  16.253  0.0553 -0.1857 -0.5848
 4685TIP3    H135546   3.184   1.181  16.311 -0.8538  0.4494 -0.9399
 4685TIP3    H235547   3.133   1.039  16.312  1.1398 -0.3029 -0.2312
 4686TIP3   OH235548   3.588   1.037  13.090  0.0826  0.1252  0.6954
 4686TIP3    H135549   3.635   0.966  13.046 -1.0174 -0.2522  0.0866
 4686TIP3    H235550   3.636   1.051  13.171  2.2171  0.8792 -0.6105
 4687TIP3   OH235551   2.721   3.147  11.539 -0.6194 -0.6190 -0.0264
 4687TIP3    H135552   2.715   3.152  11.635  3.6127 -0.1392  0.3952
 4687TIP3    H235553   2.748   3.057  11.521  2.2075  0.1735 -0.2845
 4688TIP3   OH235554   0.414   2.200   5.102 -0.1467  0.4655 -0.5713
 4688TIP3    H135555   0.382   2.115   5.130 -1.0923  0.8643 -0.4142
 4688TIP3    H235556   0.344   2.236   5.047  0.3257  1.0512 -0.8085
 4689TIP3   OH235557   6.544   6.511  15.266  0.2153  0.4945 -0.1222
 4689TIP3    H135558   6.519   6.445  15.201  0.3773  0.6518 -0.3460
 4689TIP3    H235559   6.640   6.509  15.267  0.2028 -0.0493  0.6757
 4690TIP3   OH235560   1.837   4.569  12.285 -0.3116 -0.1081  0.5168
 4690TIP3    H135561   1.929   4.577  12.310 -0.3466 -0.7368  0.8586
 4690TIP3    H235562   1.793   4.534  12.363 -1.2731  2.3417  1.1839
 4691TIP3   OH235563   1.630   1.050  12.413 -0.5322  0.6164  0.1703
 4691TIP3    H135564   1.562   0.985  12.395 -1.7328  2.0175 -0.5519
 4691TIP3    H235565   1.712   1.007  12.389 -1.2273 -0.8293  0.2994
 4692TIP3   OH235566   5.842   5.612  13.978  0.2338  0.4028 -0.1350
 4692TIP3    H135567   5.771   5.670  13.952  0.9739  1.1887 -0.4346
 4692TIP3    H235568   5.812   5.525  13.951 -1.2148  0.5160  1.0064
 4693TIP3   OH235569   3.649   6.501   2.433 -0.2571  0.0881 -0.7848
 4693TIP3    H135570   3.603   6.557   2.371 -1.6719  0.0521  0.1906
 4693TIP3    H235571   3.699   6.561   2.488 -1.7928  0.4353  0.2790
 4694TIP3   OH235572   3.927   4.824  11.567  0.0751 -0.6949 -0.0764
 4694TIP3    H135573   3.846   4.851  11.524  0.7213  0.0312 -0.8631
 4694TIP3    H235574   3.997   4.859  11.512  0.9570 -2.5674 -0.2275
 4695TIP3   OH235575   6.599   1.176  13.521  0.0694 -0.2453  0.3755
 4695TIP3    H135576   6.565   1.087  13.514  0.1375 -0.3108  0.8162
 4695TIP3    H235577   6.527   1.232  13.490 -0.1577 -0.4280  0.5641
 4696TIP3   OH235578   2.669   2.964   2.086 -0.1947 -0.7646  0.1877
 4696TIP3    H135579   2.755   2.967   2.129  0.4731 -0.2291 -1.1293
 4696TIP3    H235580   2.636   2.876   2.105  1.0078 -1.2723  0.0641
 4697TIP3   OH235581   6.184   2.273  15.847  0.1526  0.0894 -0.0534
 4697TIP3    H135582   6.223   2.197  15.890  2.2059  1.4468  0.5907
 4697TIP3    H235583   6.247   2.299  15.780 -0.3051  1.4611  0.0067
 4698TIP3   OH235584   3.884   4.291  16.427  0.2417 -1.1117  1.1422
 4698TIP3    H135585   3.919   4.202  16.436 -0.4193 -1.4401  0.4876
 4698TIP3    H235586   3.808   4.293  16.485 -0.5312 -1.3963  0.1569
 4699TIP3   OH235587   4.492   1.698  13.947  0.3729 -0.3500 -0.0978
 4699TIP3    H135588   4.582   1.727  13.938  1.0303 -2.5215 -1.3942
 4699TIP3    H235589   4.498   1.613  13.991 -0.9716 -0.7718 -0.6486
 4700TIP3   OH235590   5.806   3.786   3.648 -0.1630 -0.3545 -0.4039
 4700TIP3    H135591   5.791   3.709   3.704  1.3038 -1.0782 -0.9471
 4700TIP3    H235592   5.838   3.853   3.709 -1.8638  0.0067  0.1454
 4701TIP3   OH235593   3.561   5.247  11.561 -0.3215 -0.1081 -0.3557
 4701TIP3    H135594   3.604   5.210  11.483  2.1296  1.4568  0.1310
 4701TIP3    H235595   3.568   5.178  11.627  2.1581  0.2644 -0.1211
 4702TIP3   OH235596   2.300   6.251  12.321  0.1212  0.1775 -0.0952
 4702TIP3    H135597   2.315   6.193  12.246  1.5553  0.4926 -0.0596
 4702TIP3    H235598   2.264   6.331  12.283  0.9926  0.3955 -0.4683
 4703TIP3   OH235599   0.585   1.917  12.573  0.7235 -1.0548  0.4930
 4703TIP3    H135600   0.523   1.974  12.618  0.3642 -1.3240  0.3376
 4703TIP3    H235601   0.538   1.886  12.496  2.2252  1.6899 -1.7449
 4704TIP3   OH235602   2.724   2.964   6.134 -0.0353 -0.2529  0.0150
 4704TIP3    H135603   2.735   2.897   6.201  0.9201  0.9972  1.1506
 4704TIP3    H235604   2.649   3.016   6.162 -0.5210 -0.5754 -0.6494
 4705TIP3   OH235605   5.705   1.574   4.737  0.0369 -0.0442  0.1357
 4705TIP3    H135606   5.799   1.562   4.743 -0.1171 -0.7917  1.5099
 4705TIP3    H235607   5.694   1.650   4.680  1.6214  2.2381  2.5790
 4706TIP3   OH235608   1.987   2.729   3.222  0.0023 -0.0971 -0.0099
 4706TIP3    H135609   2.068   2.703   3.266  0.8948  0.6166 -1.1628
 4706TIP3    H235610   1.945   2.789   3.283  0.6826  0.0506  0.3265
 4707TIP3   OH235611   0.196   1.647   5.200 -0.0143 -0.0349 -0.1896
 4707TIP3    H135612   0.116   1.660   5.148  0.1107 -0.8212 -0.5848
 4707TIP3    H235613   0.165   1.604   5.280  0.0411 -0.5078 -0.4242
 4708TIP3   OH235614   0.017   5.553   1.206  0.0976  0.4569  0.3658
 4708TIP3    H135615   0.094   5.600   1.173  0.1831 -1.5136 -2.6677
 4708TIP3    H235616  -0.056   5.613   1.194  0.7007  1.1607  0.1759
 4709TIP3   OH235617   0.149   0.311   3.177  0.0242 -0.2095 -0.4656
 4709TIP3    H135618   0.170   0.353   3.094  0.1160  1.5381  0.3926
 4709TIP3    H235619   0.065   0.349   3.203  0.1770 -0.4403  0.4130
 4710TIP3   OH235620   2.959   0.853   1.644 -0.5049 -1.0916 -0.1451
 4710TIP3    H135621   2.912   0.771   1.653  1.6520 -2.2562  1.2740
 4710TIP3    H235622   3.047   0.828   1.614 -0.6711  0.9900 -2.7785
 4711TIP3   OH235623   0.003   0.314   3.716  0.0702  0.5815 -0.3643
 4711TIP3    H135624   0.021   0.224   3.743  0.7555  0.3397 -1.5464
 4711TIP3    H235625  -0.060   0.347   3.780 -0.4174 -0.8370 -0.0840
 4712TIP3   OH235626   4.770   4.930  14.319 -0.1744 -0.4531  0.5991
 4712TIP3    H135627   4.861   4.947  14.341 -0.1797 -0.1439  0.3921
 4712TIP3    H235628   4.727   4.912  14.403  0.0389 -0.4140  0.7152
 4713TIP3   OH235629   1.441   1.526   2.887 -0.1111 -0.2212  0.1424
 4713TIP3    H135630   1.350   1.503   2.873 -0.2491  0.2153  0.2933
 4713TIP3    H235631   1.465   1.482   2.969 -0.1572 -0.4177  0.0493
 4714TIP3   OH235632   2.798   0.380   4.689  0.1334 -0.2480 -0.2686
 4714TIP3    H135633   2.788   0.328   4.610  0.9233 -1.0077  0.1098
 4714TIP3    H235634   2.740   0.455   4.677 -1.2471 -1.3494 -0.7054
 4715TIP3   OH235635   6.211   1.179  16.683 -0.4096 -0.3737  0.0385
 4715TIP3    H135636   6.141   1.242  16.702 -1.4705 -1.5876  0.3134
 4715TIP3    H235637   6.200   1.112  16.751  2.0199  0.1662  1.0536
 4716TIP3   OH235638   4.567   5.223  14.646 -0.0334 -0.9633 -0.2703
 4716TIP3    H135639   4.617   5.283  14.591  0.1550 -1.5818 -0.7924
 4716TIP3    H235640   4.510   5.279  14.697  0.2400 -0.3310 -0.6463
 4717TIP3   OH235641   1.834   3.204  16.071 -0.0495  0.2959 -0.0840
 4717TIP3    H135642   1.774   3.143  16.114  0.3363 -1.2156 -1.5874
 4717TIP3    H235643   1.902   3.148  16.033  1.2986  1.8267 -0.0231
 4718TIP3   OH235644   5.917   4.908   3.366 -0.4809  0.1780 -0.2914
 4718TIP3    H135645   5.934   4.818   3.338  0.6406  0.5002 -0.6832
 4718TIP3    H235646   5.974   4.922   3.441  0.1607  0.9054 -0.9014
 4719TIP3   OH235647   1.874   2.135  11.559 -0.4396  0.6823  0.3191
 4719TIP3    H135648   1.960   2.174  11.548 -0.3839  0.0898 -1.8293
 4719TIP3    H235649   1.813   2.207  11.548 -0.2556  0.8520  0.4044
 4720TIP3   OH235650   1.771   3.425  11.848 -0.1448 -0.0037 -0.3371
 4720TIP3    H135651   1.692   3.410  11.899  1.7140  0.8760  3.0511
 4720TIP3    H235652   1.834   3.361  11.880  1.9537  2.3734  0.6604
 4721TIP3   OH235653   4.097   2.446  11.085 -0.1032 -0.1756 -0.3906
 4721TIP3    H135654   4.071   2.536  11.105 -0.1229 -0.2841  0.0653
 4721TIP3    H235655   4.032   2.392  11.129  0.4226 -0.4327  0.0744
 4722TIP3   OH235656   3.953   4.915   1.648  0.2012 -0.7096  0.2142
 4722TIP3    H135657   3.898   4.891   1.722 -0.5538  0.8972  0.2182
 4722TIP3    H235658   4.026   4.963   1.687 -0.1147  0.0009 -0.0482
 4723TIP3   OH235659   4.304   5.265  16.476  0.0021 -0.5802  0.1893
 4723TIP3    H135660   4.290   5.325  16.550 -1.5632  0.3366 -0.8100
 4723TIP3    H235661   4.311   5.179  16.517 -1.1663 -0.1353  1.4007
 4724TIP3   OH235662   6.337   0.495  17.117 -0.1596  0.0751  0.5159
 4724TIP3    H135663   6.291   0.567  17.161 -1.1640 -1.0267  1.3388
 4724TIP3    H235664   6.393   0.459  17.185  0.5393  0.2317  0.0283
 4725TIP3   OH235665   4.499   1.781   0.141 -0.3241  0.5086  0.3352
 4725TIP3    H135666   4.448   1.787   0.221 -1.4178  0.0587 -0.3121
 4725TIP3    H235667   4.435   1.787   0.070  0.2610 -1.8692 -0.4974
 4726TIP3   OH235668   2.141   1.612  12.470  0.6065 -0.2926 -0.4366
 4726TIP3    H135669   2.128   1.581  12.560 -1.4773  0.5527 -0.3781
 4726TIP3    H235670   2.155   1.707  12.480  0.5833 -0.2315 -0.9816
 4727TIP3   OH235671   4.282   5.537   4.464 -0.3624 -0.5257 -0.5725
 4727TIP3    H135672   4.289   5.533   4.369  0.6989 -0.9349 -0.4881
 4727TIP3    H235673   4.315   5.452   4.494  0.8215  0.1803  0.2173
 4728TIP3   OH235674   0.725   4.317  11.273  0.7810 -0.2904  0.3072
 4728TIP3    H135675   0.719   4.405  11.237 -1.1331 -1.1312 -1.6635
 4728TIP3    H235676   0.756   4.330  11.363  0.8645  2.3297 -0.0157
 4729TIP3   OH235677   4.251   0.050  15.592  0.2376 -0.4215 -0.3097
 4729TIP3    H135678   4.304   0.119  15.552  0.8824 -0.3262  0.6944
 4729TIP3    H235679   4.226   0.086  15.677 -0.2670 -1.0345 -0.1966
 4730TIP3   OH235680   4.531   1.066   2.892  0.1892  0.0750  0.6572
 4730TIP3    H135681   4.449   1.036   2.852  0.5205  1.9971 -1.6462
 4730TIP3    H235682   4.523   1.161   2.894  1.1662  0.1804  3.2303
 4731TIP3   OH235683   0.898   1.707  12.022 -0.2330 -0.6051 -0.0638
 4731TIP3    H135684   0.844   1.722  11.945  0.2249  3.2161  0.1637
 4731TIP3    H235685   0.987   1.698  11.987  0.0285  1.5198 -0.0409
 4732TIP3   OH235686   3.816   5.883   5.877  0.2097 -0.6914  0.0765
 4732TIP3    H135687   3.884   5.845   5.933  1.9560 -1.0404 -2.1521
 4732TIP3    H235688   3.736   5.835   5.900  1.0678 -1.5288  1.4860
 4733TIP3   OH235689   2.876   0.055   2.833  0.2885  0.5988  0.0516
 4733TIP3    H135690   2.811  -0.016   2.829  0.3334  0.5425  0.2757
 4733TIP3    H235691   2.944   0.021   2.891  0.9154  0.3355 -0.8128
 4734TIP3   OH235692   1.369   3.426   4.069 -0.4410 -0.0721 -0.0156
 4734TIP3    H135693   1.450   3.475   4.055 -1.8427  1.9708 -1.6798
 4734TIP3    H235694   1.398   3.340   4.098  2.3385  0.4330 -0.9436
 4735TIP3   OH235695   3.377   1.470   3.683 -0.1049 -0.1322 -0.2565
 4735TIP3    H135696   3.289   1.436   3.666  0.4526 -1.5875 -0.3822
 4735TIP3    H235697   3.427   1.394   3.712  0.4594  1.1281  2.4015
 4736TIP3   OH235698   2.948   2.702  15.234 -0.5408  0.1724 -0.2312
 4736TIP3    H135699   2.896   2.646  15.292  0.0475  1.3056  1.4569
 4736TIP3    H235700   2.937   2.790  15.269  1.4843  0.6197 -0.5682
 4737TIP3   OH235701   0.525   4.869   1.299 -0.2471 -0.0896 -0.4132
 4737TIP3    H135702   0.579   4.813   1.242  0.7229 -0.0144  0.4074
 4737TIP3    H235703   0.436   4.860   1.264  0.3157 -0.0540 -1.9312
 4738TIP3   OH235704   3.958   1.553  13.486  0.3851 -0.5685 -0.4535
 4738TIP3    H135705   4.042   1.536  13.444  0.3814 -0.8259 -0.3588
 4738TIP3    H235706   3.952   1.649  13.491  0.7517 -0.5539 -0.2979
 4739TIP3   OH235707   4.573   6.741   0.097 -0.2142  0.7273  0.0739
 4739TIP3    H135708   4.596   6.824   0.055 -0.0745  1.3580  1.3169
 4739TIP3    H235709   4.588   6.674   0.031  1.7430  1.4798 -0.3028
 4740TIP3   OH235710   6.665   6.718   4.077  0.1749  0.0476  0.1841
 4740TIP3    H135711   6.734   6.760   4.127  0.4022 -1.2050  0.9728
 4740TIP3    H235712   6.596   6.700   4.141 -0.1734 -0.2067 -0.2558
 4741TIP3   OH235713   4.947   4.027  13.292  0.3099  0.5264 -0.4042
 4741TIP3    H135714   4.912   4.101  13.243  2.5959  2.7495  1.0606
 4741TIP3    H235715   4.974   3.964  13.225 -0.8971  1.3874 -1.7442
 4742TIP3   OH235716   2.453   0.234   0.389  0.1443 -0.2265 -0.5270
 4742TIP3    H135717   2.409   0.161   0.346 -0.1077  0.4031 -1.3715
 4742TIP3    H235718   2.541   0.201   0.409 -0.5494 -1.3654  0.8196
 4743TIP3   OH235719   5.256   5.089   3.198  0.0282 -0.1893  0.0681
 4743TIP3    H135720   5.214   5.031   3.135  0.4470 -0.5145  0.0869
 4743TIP3    H235721   5.264   5.036   3.278  1.2774 -0.4447 -0.1959
 4744TIP3   OH235722   5.667   0.463  13.078  0.7695  0.1383 -0.2822
 4744TIP3    H135723   5.736   0.529  13.072  1.3725 -0.5601 -1.3940
 4744TIP3    H235724   5.587   0.510  13.056  0.9544  0.8285  0.4632
 4745TIP3   OH235725   4.464   0.370   4.906 -0.1333 -0.2263 -0.4321
 4745TIP3    H135726   4.512   0.433   4.960  0.1033 -2.3503  2.0163
 4745TIP3    H235727   4.531   0.327   4.854  0.1379 -0.5351  0.1594
 4746TIP3   OH235728   4.481   6.725  13.809  0.5297  0.0552 -0.2305
 4746TIP3    H135729   4.526   6.640  13.805  1.5909  0.4921  1.5179
 4746TIP3    H235730   4.525   6.773  13.879 -1.8085  1.0471  0.6671
 4747TIP3   OH235731   5.373   2.427  14.868  0.2340  0.2405  0.1046
 4747TIP3    H135732   5.305   2.495  14.869  1.2722  1.3076 -0.1319
 4747TIP3    H235733   5.407   2.426  14.957  0.0394 -0.1891  0.1812
 4748TIP3   OH235734   2.271   0.335   1.748 -0.0302 -0.5315 -0.1082
 4748TIP3    H135735   2.216   0.303   1.819  0.5173  0.7489  0.9295
 4748TIP3    H235736   2.211   0.387   1.693  0.1602  1.2595  1.2766
 4749TIP3   OH235737   0.364   6.645  11.427  0.1061  0.2601 -0.1698
 4749TIP3    H135738   0.282   6.674  11.467  0.8520  1.9805  0.2161
 4749TIP3    H235739   0.339   6.574  11.367 -1.7865  1.4278 -0.8245
 4750TIP3   OH235740   3.476   1.150   0.001 -0.3159 -0.2642 -0.1092
 4750TIP3    H135741   3.508   1.141   0.091  0.2404  0.8223 -0.1814
 4750TIP3    H235742   3.552   1.129  -0.054  0.0218  1.3201 -0.2893
 4751TIP3   OH235743   0.128   0.992  10.695 -0.1588 -0.0734 -0.4464
 4751TIP3    H135744   0.101   1.044  10.619  0.8497 -0.0568 -0.8076
 4751TIP3    H235745   0.089   1.038  10.770 -1.3375 -0.2095 -0.9599
 4752TIP3   OH235746   1.030   0.971   1.723 -0.1234 -0.9859 -0.3296
 4752TIP3    H135747   0.944   1.012   1.713  0.4679  0.9701  1.6349
 4752TIP3    H235748   1.082   1.036   1.771  2.4038 -2.1834 -1.2401
 4753TIP3   OH235749   0.859   1.860  10.785 -0.6414 -0.5443 -0.3042
 4753TIP3    H135750   0.901   1.813  10.713 -0.6821  1.0438 -1.4138
 4753TIP3    H235751   0.884   1.811  10.863  0.9073 -1.2777 -1.2142
 4754TIP3   OH235752   6.793   3.241   0.783 -0.4084  0.2349  0.0167
 4754TIP3    H135753   6.791   3.311   0.847 -1.1865 -0.1241  0.4012
 4754TIP3    H235754   6.885   3.218   0.774 -0.3800 -0.6971  2.1256
 4755TIP3   OH235755   5.474   6.721   3.537 -0.7024  0.2471  0.1310
 4755TIP3    H135756   5.390   6.746   3.498 -0.6640  0.1510 -0.0132
 4755TIP3    H235757   5.535   6.790   3.510 -0.3435 -0.5522 -1.1682
 4756TIP3   OH235758   4.976   4.152   3.008  0.2643 -0.0651 -0.2182
 4756TIP3    H135759   4.955   4.138   3.100 -2.5035  1.8460 -0.4258
 4756TIP3    H235760   5.057   4.202   3.009 -0.1898  0.6978  1.2567
 4757TIP3   OH235761   4.759   0.047  13.596  0.1348  0.2471  0.4049
 4757TIP3    H135762   4.780   0.055  13.503  2.1055 -2.7219  0.4391
 4757TIP3    H235763   4.816   0.112  13.639 -0.6221  1.4796 -0.4012
 4758TIP3   OH235764   2.151   2.616  15.701 -0.0570  0.1512  0.0902
 4758TIP3    H135765   2.138   2.534  15.652  0.5233  0.7441 -1.1222
 4758TIP3    H235766   2.090   2.678  15.661 -0.1897  0.4293  0.7153
 4759TIP3   OH235767   0.019   5.016  15.643 -0.1030 -0.1771 -0.3681
 4759TIP3    H135768   0.047   4.996  15.554 -0.1054 -2.6531  0.1162
 4759TIP3    H235769   0.056   4.946  15.696 -0.7453  0.8134  1.4730
 4760TIP3   OH235770   6.050   2.253  10.333 -0.1289 -0.9557 -0.6746
 4760TIP3    H135771   6.111   2.195  10.378  0.4619 -0.7532 -1.1967
 4760TIP3    H235772   5.964   2.221  10.358  0.1581 -0.4982  1.0706
 4761TIP3   OH235773   0.406   3.759   4.763 -0.3526 -0.6436 -0.2735
 4761TIP3    H135774   0.408   3.711   4.680  0.5054  1.1262 -1.3138
 4761TIP3    H235775   0.486   3.733   4.808 -1.1112 -2.0718  0.3137
 4762TIP3   OH235776   6.658   4.747  15.672  0.1602 -0.3084  0.1409
 4762TIP3    H135777   6.649   4.840  15.651 -0.0514  0.2399  2.3963
 4762TIP3    H235778   6.575   4.708  15.644  0.9059 -0.2291 -2.4410
 4763TIP3   OH235779   0.386   0.735   4.381  0.5863 -0.3473  0.4665
 4763TIP3    H135780   0.355   0.821   4.410  2.3780  0.5820 -0.2111
 4763TIP3    H235781   0.319   0.674   4.412 -1.8418  1.4632 -0.7770
 4764TIP3   OH235782   0.385   3.416  16.914  0.3166 -0.4212 -0.5948
 4764TIP3    H135783   0.375   3.484  16.847  3.9058  0.3651 -0.5133
 4764TIP3    H235784   0.453   3.358  16.881  1.0009 -0.9940  1.6040
 4765TIP3   OH235785   0.651   4.927   4.572 -0.0137 -0.3946 -0.0956
 4765TIP3    H135786   0.614   4.850   4.615  0.3318 -0.0886  0.7829
 4765TIP3    H235787   0.605   5.001   4.611  1.3031 -0.0229  0.8565
 4766TIP3   OH235788   1.385   3.582   0.188 -0.0717 -0.3531  0.1293
 4766TIP3    H135789   1.370   3.641   0.113 -1.4306  0.5815  1.0769
 4766TIP3    H235790   1.334   3.504   0.167 -2.4088  0.8204  1.0398
 4767TIP3   OH235791   1.000   3.765  16.415 -0.2098 -0.2446 -0.1993
 4767TIP3    H135792   0.947   3.789  16.340 -2.3134 -1.3337  0.8665
 4767TIP3    H235793   1.058   3.841  16.428 -2.3501  1.5673 -0.6730
 4768TIP3   OH235794   0.006   3.495  16.227  0.4630  0.3664  0.1845
 4768TIP3    H135795  -0.078   3.472  16.187  0.6747  0.8641 -0.5649
 4768TIP3    H235796  -0.017   3.521  16.316 -0.0530 -0.4883  0.3102
 4769TIP3   OH235797   6.488   4.288   3.725 -0.7946 -0.1579  0.4844
 4769TIP3    H135798   6.556   4.247   3.670 -1.5888  0.5961 -1.1314
 4769TIP3    H235799   6.406   4.258   3.687 -1.3985 -0.4791  1.9818
 4770TIP3   OH235800   5.552   3.057   5.247 -0.0724  0.6804 -0.0762
 4770TIP3    H135801   5.580   2.997   5.316 -0.1122  0.5208 -0.1972
 4770TIP3    H235802   5.530   3.138   5.293 -0.7047  0.3714  0.1699
 4771TIP3   OH235803   6.446   2.089  13.513 -0.2527  0.2503 -0.4486
 4771TIP3    H135804   6.359   2.052  13.530  0.5164 -0.7661  1.7239
 4771TIP3    H235805   6.436   2.182  13.534 -0.7691  0.0942  0.0360
 4772TIP3   OH235806   3.532   3.967   5.695 -0.3545 -0.7792 -0.3293
 4772TIP3    H135807   3.446   4.011   5.694 -0.5036 -1.0227  0.4496
 4772TIP3    H235808   3.593   4.035   5.724 -0.4310 -0.8312 -0.0399
 4773TIP3   OH235809   1.079   2.682   2.346  0.5808 -0.0447  0.6286
 4773TIP3    H135810   1.062   2.640   2.430  0.4606  0.9056  1.0942
 4773TIP3    H235811   1.003   2.659   2.292  0.2454  0.0166  1.0605
 4774TIP3   OH235812   4.676   2.530  12.199  0.1280 -0.0455  0.3797
 4774TIP3    H135813   4.692   2.615  12.239 -2.7922  0.8443 -0.1587
 4774TIP3    H235814   4.686   2.467  12.271  2.4900  0.6314  0.7482
 4775TIP3   OH235815   1.080   6.066  13.180 -0.1012  0.0429 -0.0524
 4775TIP3    H135816   1.082   6.057  13.276 -1.7945 -1.3913 -0.1067
 4775TIP3    H235817   1.166   6.101  13.158  1.1045 -1.5137  1.8345
 4776TIP3   OH235818   3.780   5.495  11.636 -0.2945  0.1826 -0.4474
 4776TIP3    H135819   3.756   5.507  11.728 -0.5128  0.5714 -0.5532
 4776TIP3    H235820   3.728   5.421  11.607 -1.3092  0.9468 -0.6440
 4777TIP3   OH235821   5.109   1.378  16.365 -0.2442 -0.3782 -0.5515
 4777TIP3    H135822   5.088   1.415  16.280  0.8570 -1.1344 -1.1602
 4777TIP3    H235823   5.079   1.287  16.360  1.0611 -0.8160 -0.6281
 4778TIP3   OH235824   5.576   1.486  14.391  0.1302 -0.6953 -0.2180
 4778TIP3    H135825   5.569   1.573  14.351 -1.1442 -1.4797 -1.8192
 4778TIP3    H235826   5.553   1.500  14.483 -0.0827  0.6525 -0.4556
 4779TIP3   OH235827   0.191   0.227  10.184  0.4088  0.1529  0.7195
 4779TIP3    H135828   0.258   0.285  10.147 -0.7007  1.3061  0.4620
 4779TIP3    H235829   0.109   0.275  10.172 -0.0741  0.5054  4.4227
 4780TIP3   OH235830   1.781   2.958  16.627 -0.3996  0.3902 -0.2959
 4780TIP3    H135831   1.714   2.965  16.559 -1.4174 -0.1253  0.6279
 4780TIP3    H235832   1.802   3.049  16.649 -2.4816  0.6144  0.9956
 4781TIP3   OH235833   4.920   1.661  14.621  0.6397  0.2396  0.3603
 4781TIP3    H135834   4.863   1.715  14.676  0.4293  0.3593  0.0254
 4781TIP3    H235835   4.942   1.586  14.677 -1.9650 -1.1904 -0.3410
 4782TIP3   OH235836   5.289   1.748   6.630  0.8909 -0.0710  0.6251
 4782TIP3    H135837   5.325   1.836   6.614  3.5620 -1.2387 -0.3704
 4782TIP3    H235838   5.244   1.726   6.549 -1.1592  0.9236  1.4364
 4783TIP3   OH235839   0.500   0.270  12.922 -0.0012  0.0108 -0.2020
 4783TIP3    H135840   0.538   0.358  12.918 -0.5866  0.3469  1.0731
 4783TIP3    H235841   0.508   0.245  13.014 -0.4450 -1.0030 -0.4292
 4784TIP3   OH235842   2.808   4.656   3.980 -0.1396 -0.2791 -0.0095
 4784TIP3    H135843   2.872   4.585   3.970 -0.2212 -0.2873 -0.4780
 4784TIP3    H235844   2.816   4.708   3.901 -0.3406  0.0282  0.1677
 4785TIP3   OH235845   5.818   4.369   3.696  0.3684 -0.5625 -0.2999
 4785TIP3    H135846   5.808   4.347   3.604 -0.1108 -2.2720  0.1082
 4785TIP3    H235847   5.821   4.464   3.699  0.5818 -0.4882 -2.0864
 4786TIP3   OH235848   2.843   1.653   6.460  0.1002 -0.4764  0.2400
 4786TIP3    H135849   2.927   1.607   6.455  0.3858  0.1672 -2.6277
 4786TIP3    H235850   2.867   1.743   6.483  0.0190 -0.6247  0.9310
 4787TIP3   OH235851   4.029   5.675   2.314 -0.4945  0.2850 -0.0604
 4787TIP3    H135852   4.036   5.580   2.324  2.9119  0.5082  0.7092
 4787TIP3    H235853   3.994   5.705   2.398 -0.3816 -0.1733  0.1552
 4788TIP3   OH235854   0.552   4.355   2.590  0.0567  0.4071 -0.5477
 4788TIP3    H135855   0.640   4.389   2.575  0.5061 -1.3309 -2.2788
 4788TIP3    H235856   0.510   4.358   2.504 -0.4819 -1.6191 -0.4037
 4789TIP3   OH235857   1.128   3.782  15.492  0.4708  0.1786  0.4294
 4789TIP3    H135858   1.115   3.754  15.583 -1.2913  0.7764  0.3921
 4789TIP3    H235859   1.096   3.708  15.440  1.0521  0.0218  0.2918
 4790TIP3   OH235860   6.118   4.980   0.401  0.2810 -0.6910 -0.2034
 4790TIP3    H135861   6.036   4.990   0.353  0.8283  0.2680 -0.9700
 4790TIP3    H235862   6.163   4.907   0.357 -0.7029 -2.1301  1.0564
 4791TIP3   OH235863   0.517   1.985   0.780 -0.0286  0.1873  0.6433
 4791TIP3    H135864   0.508   2.080   0.772  1.3005  0.2967  0.1050
 4791TIP3    H235865   0.437   1.949   0.742 -0.5510  1.0931  0.8778
 4792TIP3   OH235866   4.974   4.106  12.815  0.1029  0.4192 -0.1231
 4792TIP3    H135867   4.979   4.011  12.827 -2.4844  0.2421  0.2230
 4792TIP3    H235868   4.960   4.117  12.721 -2.8818  0.1120  0.1609
 4793TIP3   OH235869   0.172   1.577  14.109  0.0444 -0.2507 -0.2266
 4793TIP3    H135870   0.174   1.622  14.025 -0.3070  0.2784  0.0399
 4793TIP3    H235871   0.161   1.647  14.173  1.3589 -0.5459  0.3446
 4794TIP3   OH235872   1.282   0.779  15.692  0.8425 -0.1153  0.7189
 4794TIP3    H135873   1.255   0.854  15.637  0.9272  0.9207  2.0434
 4794TIP3    H235874   1.376   0.790  15.701  1.2486 -1.7195 -0.9499
 4795TIP3   OH235875   2.692   2.498   1.641  0.0121 -0.1542 -0.2227
 4795TIP3    H135876   2.668   2.581   1.684  0.0722  0.8414 -2.0086
 4795TIP3    H235877   2.752   2.456   1.702  0.3192  1.3217  0.5490
 4796TIP3   OH235878   4.360   5.479  13.613  0.0616  0.1589 -0.0270
 4796TIP3    H135879   4.287   5.540  13.605 -0.3718 -0.4677 -0.9219
 4796TIP3    H235880   4.325   5.405  13.661 -0.0981 -0.4445 -1.0476
 4797TIP3   OH235881   5.205   6.146  14.881 -0.2922  0.3258 -0.2225
 4797TIP3    H135882   5.134   6.082  14.887 -0.0881  0.0846 -0.3630
 4797TIP3    H235883   5.281   6.095  14.855  0.0981  0.4609  0.6112
 4798TIP3   OH235884   5.471   1.569  13.968 -0.3428  0.0613 -0.2133
 4798TIP3    H135885   5.546   1.539  14.019 -0.1280  1.1376  0.1160
 4798TIP3    H235886   5.491   1.542  13.878 -0.4873 -1.3899  0.1622
 4799TIP3   OH235887   0.148   5.641   2.252 -0.8380 -0.6894  0.6047
 4799TIP3    H135888   0.112   5.688   2.176  1.7546 -0.9292 -0.8824
 4799TIP3    H235889   0.150   5.707   2.322  2.1489  1.4665 -1.2519
 4800TIP3   OH235890   0.032   2.307   3.336 -0.4179  0.3763 -0.0760
 4800TIP3    H135891   0.068   2.275   3.418  0.2132  1.8326  0.2441
 4800TIP3    H235892   0.022   2.401   3.349 -2.0426  0.3640 -1.0337
 4801TIP3   OH235893   2.848   0.640   1.490 -0.0146  0.5551  0.3347
 4801TIP3    H135894   2.790   0.694   1.435 -0.3215 -0.1795 -0.0761
 4801TIP3    H235895   2.933   0.643   1.446  0.0635  0.9981  0.5121
 4802TIP3   OH235896   1.043   6.137   0.249 -0.5783  0.4587 -0.2984
 4802TIP3    H135897   0.984   6.111   0.178 -0.8701 -0.4367  0.2514
 4802TIP3    H235898   1.061   6.229   0.232 -1.0797  0.4021 -1.2259
 4803TIP3   OH235899   0.666   1.393  14.517 -0.2486  0.5969  0.8117
 4803TIP3    H135900   0.625   1.322  14.467 -0.1121  1.4170 -0.5189
 4803TIP3    H235901   0.739   1.421  14.462 -1.0324  2.5808  0.7047
 4804TIP3   OH235902   5.333   1.259   1.901 -0.1120  0.2518 -0.5095
 4804TIP3    H135903   5.391   1.247   1.825  0.8251  1.2865  0.0302
 4804TIP3    H235904   5.338   1.175   1.948  1.9176  0.7084  0.1761
 4805TIP3   OH235905   4.599   4.568   2.770 -0.0559 -0.1367  0.2085
 4805TIP3    H135906   4.639   4.617   2.697  0.6576 -1.4676 -0.3246
 4805TIP3    H235907   4.666   4.504   2.794  0.1347  0.9015  2.7239
 4806TIP3   OH235908   1.512   4.274   0.632  0.2493  0.4489 -0.0298
 4806TIP3    H135909   1.599   4.282   0.671 -0.0853 -1.1793  1.1496
 4806TIP3    H235910   1.487   4.183   0.647 -1.4069  0.7174 -0.9034
 4807TIP3   OH235911   5.808   1.842   1.229 -0.3566  0.3569  0.0047
 4807TIP3    H135912   5.808   1.799   1.315 -1.0899  1.3613  0.5353
 4807TIP3    H235913   5.899   1.836   1.200 -0.4049 -1.3596  0.1275
 4808TIP3   OH235914   5.486   4.184   2.630  0.4619  0.2836  0.2355
 4808TIP3    H135915   5.450   4.273   2.627  1.1070  0.5254 -1.6579
 4808TIP3    H235916   5.497   4.160   2.538  0.1160 -1.8527  0.7201
 4809TIP3   OH235917   5.983   4.833   2.561  0.5019  0.1685  0.0261
 4809TIP3    H135918   6.016   4.857   2.648  0.0340  0.7317  0.0541
 4809TIP3    H235919   5.978   4.738   2.562 -0.9486  0.2218  1.1636
 4810TIP3   OH235920   6.558   2.911  16.261 -0.1230  0.7075  0.3132
 4810TIP3    H135921   6.649   2.883  16.249 -0.4110 -0.6925  1.2596
 4810TIP3    H235922   6.516   2.891  16.177  0.1220  0.0941  0.3351
 4811TIP3   OH235923   1.405   3.954  13.154  0.2727  0.0500 -0.5049
 4811TIP3    H135924   1.330   4.014  13.153 -1.6923 -2.1154  1.9590
 4811TIP3    H235925   1.449   3.972  13.237  1.7880  0.4008 -1.3455
 4812TIP3   OH235926   4.809   0.960  14.407 -1.2887  0.2434  0.0150
 4812TIP3    H135927   4.811   0.911  14.489 -0.1573 -1.9293 -1.2304
 4812TIP3    H235928   4.898   0.953  14.372 -1.0939  3.1731 -0.2995
 4813TIP3   OH235929   6.019   6.351  13.026 -0.5515 -0.2469 -0.0847
 4813TIP3    H135930   6.071   6.315  13.097 -0.1638 -1.1856 -0.8303
 4813TIP3    H235931   5.966   6.278  12.996  0.1390 -0.1798 -1.5298
 4814TIP3   OH235932   1.507   4.983   5.349  0.1636  0.0634  0.5280
 4814TIP3    H135933   1.511   4.989   5.253 -1.2719  0.7660  0.4924
 4814TIP3    H235934   1.593   5.014   5.378  0.5228  0.0869 -0.5187
 4815TIP3   OH235935   0.164   3.886   0.056  0.1233 -0.4717  0.0331
 4815TIP3    H135936   0.249   3.871   0.014 -0.7067 -0.5388 -1.7021
 4815TIP3    H235937   0.184   3.944   0.129  1.4355  0.9526 -1.3785
 4816TIP3   OH235938   4.883   1.328  10.860  0.2025  0.0603 -0.4107
 4816TIP3    H135939   4.915   1.256  10.805  1.0407  0.7409 -0.8453
 4816TIP3    H235940   4.790   1.338  10.836  0.5046  0.2053 -1.5659
 4817TIP3   OH235941   1.928   3.627  12.582  0.4372 -0.1689 -0.3645
 4817TIP3    H135942   1.964   3.711  12.556 -1.7152  0.8106 -0.4058
 4817TIP3    H235943   1.868   3.604  12.512  0.0191 -1.0943  0.2738
 4818TIP3   OH235944   2.525   4.973   1.274  0.2400  0.0606 -0.4833
 4818TIP3    H135945   2.475   4.900   1.237  0.2585 -0.1503 -0.1041
 4818TIP3    H235946   2.599   4.931   1.319  0.6495  0.3561 -0.8659
 4819TIP3   OH235947   6.515   6.190  12.097 -0.3356 -0.4151  0.3789
 4819TIP3    H135948   6.482   6.254  12.161 -0.9633 -0.1632 -0.1807
 4819TIP3    H235949   6.595   6.156  12.136  0.6511  1.5291  0.1996
 4820TIP3   OH235950   2.575   4.291  10.636  0.4685 -0.0325  0.1248
 4820TIP3    H135951   2.508   4.223  10.632  0.5226 -0.0276 -1.3323
 4820TIP3    H235952   2.539   4.363  10.585 -0.1361  1.5859  2.6568
 4821TIP3   OH235953   2.974   3.751   1.328  0.1769  0.5199 -0.1579
 4821TIP3    H135954   3.050   3.775   1.379  0.9857 -0.2351 -0.9696
 4821TIP3    H235955   2.927   3.687   1.382 -0.3915  1.6452  0.7249
 4822TIP3   OH235956   2.128   4.231   2.935 -0.3019  0.0355 -1.0517
 4822TIP3    H135957   2.210   4.271   2.964  0.0304 -1.0161 -0.4464
 4822TIP3    H235958   2.087   4.297   2.880  0.6786  0.8064 -0.8989
 4823TIP3   OH235959   6.581   4.303  12.583  0.1521  0.2355  0.0480
 4823TIP3    H135960   6.614   4.384  12.547  1.8773  0.5420  2.1223
 4823TIP3    H235961   6.652   4.240  12.571 -1.1989 -1.0665 -1.6352
 4824TIP3   OH235962   0.523   2.478  15.659  0.3374 -0.6128  0.0962
 4824TIP3    H135963   0.429   2.460  15.661  0.2806 -0.3175  1.8547
 4824TIP3    H235964   0.555   2.430  15.583 -1.3403 -0.1210 -0.9649
 4825TIP3   OH235965   1.118   6.305   5.730  0.3165  0.3632  0.6821
 4825TIP3    H135966   1.115   6.399   5.712  0.3968  0.4996  1.3530
 4825TIP3    H235967   1.133   6.299   5.824 -0.1944 -0.3274  0.7270
 4826TIP3   OH235968   5.104   5.227  13.678  0.2550 -0.0113 -0.1425
 4826TIP3    H135969   5.081   5.278  13.756 -1.1840  0.5352 -0.8874
 4826TIP3    H235970   5.184   5.268  13.645 -0.0345  0.7790  0.1315
 4827TIP3   OH235971   4.509   0.126   2.493 -0.2363  0.0348 -0.5300
 4827TIP3    H135972   4.417   0.139   2.470 -0.1290  0.6897 -0.6154
 4827TIP3    H235973   4.553   0.203   2.459  0.3671 -0.3300 -0.5897
 4828TIP3   OH235974   4.611   5.541   1.580 -0.4234  0.2686 -0.2090
 4828TIP3    H135975   4.671   5.609   1.548  0.6535 -0.1090  0.9464
 4828TIP3    H235976   4.589   5.568   1.669 -0.9627 -0.2796 -0.1688
 4829TIP3   OH235977   5.165   1.501  14.444 -0.7127  0.0864  0.1480
 4829TIP3    H135978   5.201   1.554  14.515 -1.5990 -0.0747  0.7366
 4829TIP3    H235979   5.162   1.412  14.481  0.7349 -0.4019 -0.8106
 4830TIP3   OH235980   4.643   2.486   4.969 -0.1010 -0.0046  0.3785
 4830TIP3    H135981   4.633   2.557   4.906 -1.9035 -0.0746  0.5322
 4830TIP3    H235982   4.577   2.421   4.943  0.2497 -0.7851  1.3493
 4831TIP3   OH235983   5.316   3.482   5.582 -0.4500 -0.0955 -0.4849
 4831TIP3    H135984   5.303   3.521   5.668 -0.4401 -1.0789 -0.0133
 4831TIP3    H235985   5.235   3.434   5.565  0.0559 -0.9941 -0.4148
 4832TIP3   OH235986   2.056   4.012   0.435 -0.4773 -0.0630  0.4950
 4832TIP3    H135987   2.104   3.993   0.354 -1.3450  0.0988 -0.0756
 4832TIP3    H235988   1.982   3.952   0.433 -1.4394  1.0915  0.3140
 4833TIP3   OH235989   3.034   3.931  12.041 -0.6659  0.3156  0.2082
 4833TIP3    H135990   3.110   3.874  12.033 -1.7601 -1.0003 -1.3528
 4833TIP3    H235991   3.031   3.979  11.958 -2.7550 -1.3006 -0.7329
 4834TIP3   OH235992   2.972   5.726   2.350  0.1007  0.0094 -0.2953
 4834TIP3    H135993   2.887   5.686   2.338  0.4529 -0.7137 -0.4128
 4834TIP3    H235994   2.953   5.810   2.393 -0.6441 -0.2256 -0.1508
 4835TIP3   OH235995   1.473   2.002  12.020  0.4725 -0.3873 -0.1246
 4835TIP3    H135996   1.523   1.956  12.087  2.6861  0.2307 -1.2297
 4835TIP3    H235997   1.519   1.982  11.938  0.4718  2.3058 -0.8846
 4836TIP3   OH235998   1.381   1.272  17.132  0.4744  0.3550 -0.5172
 4836TIP3    H135999   1.462   1.297  17.089  0.3162 -1.2437 -1.8889
 4836TIP3    H236000   1.377   1.176  17.122 -1.2790  0.3236  0.0217
 4837TIP3   OH236001   4.992   5.987   3.252 -0.3684 -0.6042 -0.0046
 4837TIP3    H136002   5.003   6.063   3.195  0.2202  1.1365  2.2753
 4837TIP3    H236003   4.898   5.984   3.270 -0.1624  1.0314  1.6389
 4838TIP3   OH236004   0.699   3.224   0.648 -0.2107 -0.5018  0.1740
 4838TIP3    H136005   0.679   3.169   0.572 -0.6330 -0.5004  0.2770
 4838TIP3    H236006   0.754   3.294   0.614 -1.1338  0.0048 -0.3185
 4839TIP3   OH236007   1.878   6.246   3.819 -0.1296 -0.2254  0.0016
 4839TIP3    H136008   1.838   6.279   3.900 -2.8031  1.1198 -1.6970
 4839TIP3    H236009   1.850   6.155   3.814  0.6414 -0.5235  0.9120
 4840TIP3   OH236010   3.851   2.308   4.668  0.4017  0.1007 -0.2774
 4840TIP3    H136011   3.896   2.334   4.587  0.4855 -1.4043 -0.7366
 4840TIP3    H236012   3.910   2.336   4.738  0.2927  1.4909 -0.6959
 4841TIP3   OH236013   2.797   3.032   5.076 -0.1004  0.5807  0.0605
 4841TIP3    H136014   2.854   3.107   5.091 -1.1252  1.2974  0.4310
 4841TIP3    H236015   2.813   2.975   5.151  2.2416 -0.6241 -1.2481
 4842TIP3   OH236016   5.213   3.431  12.531 -0.1031 -0.7210  0.1501
 4842TIP3    H136017   5.125   3.449  12.497 -0.2720 -0.5085  0.6902
 4842TIP3    H236018   5.198   3.368  12.602  0.2726 -1.3614 -0.3241
 4843TIP3   OH236019   1.803   2.988   0.424 -0.0919 -0.0450 -0.0934
 4843TIP3    H136020   1.738   2.952   0.485  0.3739 -0.7542 -0.0102
 4843TIP3    H236021   1.793   2.935   0.345  0.8971 -0.6747  0.1810
 4844TIP3   OH236022   0.256   6.123   1.616  0.2234  0.5731  0.0546
 4844TIP3    H136023   0.162   6.130   1.628  0.2828 -0.5988  1.4951
 4844TIP3    H236024   0.276   6.182   1.543 -1.3483  2.2957  0.9390
 4845TIP3   OH236025   1.539   4.817   5.090  0.3334  0.4016 -0.2068
 4845TIP3    H136026   1.546   4.729   5.051 -0.9658  0.1022  0.1999
 4845TIP3    H236027   1.591   4.873   5.032  1.2700 -0.6436 -0.4172
 4846TIP3   OH236028   5.599   0.106  14.939  0.0821 -0.1658  0.4537
 4846TIP3    H136029   5.593   0.091  14.845  2.3675 -1.7010  0.4607
 4846TIP3    H236030   5.693   0.112  14.956 -0.2901  0.3913  2.5962
 4847TIP3   OH236031   4.847   3.563  12.726 -0.0279  0.3216  0.2857
 4847TIP3    H136032   4.832   3.551  12.820 -1.0158 -2.6361 -0.1256
 4847TIP3    H236033   4.826   3.478  12.688  1.9288  0.9292 -2.4582
 4848TIP3   OH236034   3.034   5.529   5.621 -0.2219 -0.0538 -0.1739
 4848TIP3    H136035   3.085   5.523   5.702 -1.4498  1.8982  0.8409
 4848TIP3    H236036   3.029   5.623   5.604 -4.6743  0.0637  0.6654
 4849TIP3   OH236037   6.342   1.233   0.301 -0.3892  0.3078 -0.8706
 4849TIP3    H136038   6.363   1.235   0.208 -0.9497 -0.3067 -1.0086
 4849TIP3    H236039   6.378   1.150   0.332  1.6472  1.4072 -0.0896
 4850TIP3   OH236040   4.276   0.915  13.393  0.5498  0.4842 -0.4757
 4850TIP3    H136041   4.326   0.847  13.349 -0.2784 -0.2366 -0.3437
 4850TIP3    H236042   4.317   0.924  13.479  1.5569  1.1926 -1.0179
 4851TIP3   OH236043   3.374   4.909  11.440  0.9008  0.0099 -0.4914
 4851TIP3    H136044   3.315   4.851  11.488 -0.4925 -0.8367 -3.0399
 4851TIP3    H236045   3.341   4.997  11.459  1.4837 -0.1313  1.4190
 4852TIP3   OH236046   1.257   0.407   4.088  0.3091 -0.0914  0.8722
 4852TIP3    H136047   1.166   0.424   4.113 -0.8203 -1.0572 -2.1262
 4852TIP3    H236048   1.291   0.492   4.061 -0.4801 -0.0713 -0.1264
 4853TIP3   OH236049   1.021   2.897  15.853 -0.3239 -0.0262  0.3749
 4853TIP3    H136050   1.028   2.957  15.780  0.6692  0.4835  0.8649
 4853TIP3    H236051   0.992   2.951  15.927 -0.0083 -0.2575  0.6740
 4854TIP3   OH236052   5.005   1.620  13.837  0.9917 -0.2124 -0.6639
 4854TIP3    H136053   5.084   1.569  13.852  1.3399  0.6565  0.5968
 4854TIP3    H236054   4.967   1.582  13.757  2.3468 -1.0214 -0.9589
 4855TIP3   OH236055   4.652   5.624   3.637 -0.4345  0.5476 -0.4452
 4855TIP3    H136056   4.563   5.612   3.603 -0.1674  0.8454 -1.2765
 4855TIP3    H236057   4.639   5.661   3.724 -1.2403 -3.6394  1.4283
 4856TIP3   OH236058   2.102   0.576   5.136 -0.5028 -0.4154 -0.3295
 4856TIP3    H136059   2.045   0.612   5.068  0.6188 -0.3242 -1.2470
 4856TIP3    H236060   2.176   0.539   5.088 -0.3801 -1.6541  0.7559
 4857TIP3   OH236061   3.613   1.119  15.366  0.2749 -0.0928  0.4350
 4857TIP3    H136062   3.641   1.028  15.357  1.4547  0.2016  1.0948
 4857TIP3    H236063   3.517   1.113  15.372  0.3060 -1.2525  0.0955
 4858TIP3   OH236064   0.387   4.663  15.091  0.1501 -0.0161  0.1550
 4858TIP3    H136065   0.358   4.714  15.167  0.7604 -1.5472  1.4672
 4858TIP3    H236066   0.480   4.646  15.108  0.4061 -0.0504 -1.1578
 4859TIP3   OH236067   5.332   2.261   1.408 -0.0175 -0.7556  0.0676
 4859TIP3    H136068   5.362   2.338   1.457 -0.6449  0.3615 -1.2391
 4859TIP3    H236069   5.263   2.224   1.462 -1.3456  0.9969 -0.3309
 4860TIP3   OH236070   0.200   2.496  15.698  0.2583  0.1269 -0.0744
 4860TIP3    H136071   0.166   2.409  15.722 -2.9288  1.2107 -0.1945
 4860TIP3    H236072   0.197   2.497  15.602  1.1274  0.0782 -0.1053
 4861TIP3   OH236073   2.361   6.383  14.541 -0.5418  0.4703 -0.4714
 4861TIP3    H136074   2.382   6.445  14.471  1.5697 -0.9730 -1.2292
 4861TIP3    H236075   2.413   6.413  14.616  1.3368 -0.8744 -1.1567
 4862TIP3   OH236076   3.666   6.049   5.540  0.3456  0.0514  0.8190
 4862TIP3    H136077   3.609   6.012   5.607  0.4125 -0.0612  0.8129
 4862TIP3    H236078   3.755   6.037   5.575  0.4194 -0.5816  0.4244
 4863TIP3   OH236079   2.319   2.544  16.684  0.7346 -0.0376  0.4137
 4863TIP3    H136080   2.244   2.571  16.631  2.3507  0.0701 -1.9790
 4863TIP3    H236081   2.307   2.451  16.700  0.1977 -0.0571 -0.1231
 4864TIP3   OH236082   0.371   2.370   4.462  0.3390 -0.6673 -0.3417
 4864TIP3    H136083   0.353   2.407   4.375 -0.8918 -0.4877 -0.0363
 4864TIP3    H236084   0.436   2.301   4.446 -0.5854 -1.3000 -1.5701
 4865TIP3   OH236085   1.784   4.971  14.763  0.0162  0.5542 -0.0496
 4865TIP3    H136086   1.768   5.065  14.771  1.5756  0.8420 -0.1386
 4865TIP3    H236087   1.830   4.947  14.844 -0.2462 -0.1130 -0.0867
 4866TIP3   OH236088   1.195   0.818  14.340 -0.1152  0.4299  0.4613
 4866TIP3    H136089   1.177   0.751  14.406  0.7678 -1.4694 -1.1150
 4866TIP3    H236090   1.188   0.772  14.256  1.8970  1.9552 -0.6527
 4867TIP3   OH236091   3.997   2.789  16.475 -0.4967  0.5558  0.5813
 4867TIP3    H136092   3.977   2.736  16.398  1.5698  1.0594 -0.3915
 4867TIP3    H236093   4.093   2.788  16.480 -0.4836  2.4674  1.7570
 4868TIP3   OH236094   4.693   2.621  13.742  0.1215 -0.1292  0.0171
 4868TIP3    H136095   4.689   2.640  13.648  1.6389 -1.1628 -0.2765
 4868TIP3    H236096   4.778   2.655  13.769  0.9767 -2.4618  0.3889
 4869TIP3   OH236097   1.553   1.872  10.530  0.3568  0.0414  0.6999
 4869TIP3    H136098   1.582   1.920  10.608  1.1425 -1.9876  1.7262
 4869TIP3    H236099   1.599   1.914  10.457  1.1516  0.7142  1.5632
 4870TIP3   OH236100   0.217   3.093  15.875 -0.1324 -0.0892 -0.0913
 4870TIP3    H136101   0.206   3.014  15.821  0.9795 -0.0692 -0.3864
 4870TIP3    H236102   0.304   3.125  15.851 -1.3130  2.3468 -1.4295
 4871TIP3   OH236103   3.801   1.563  13.084 -0.7176 -0.4823  0.3674
 4871TIP3    H136104   3.727   1.505  13.066 -0.6824 -0.4717  0.1900
 4871TIP3    H236105   3.768   1.651  13.067 -0.6539 -0.4800  0.2595
 4872TIP3   OH236106   6.568   0.452  13.566  0.5551  0.0612 -0.4153
 4872TIP3    H136107   6.522   0.530  13.597  0.2426 -1.1776  2.6024
 4872TIP3    H236108   6.595   0.473  13.476 -0.4070  3.1983 -0.0680
 4873TIP3   OH236109   0.934   6.638   4.245 -0.3325  0.0421  0.0229
 4873TIP3    H136110   0.967   6.726   4.262 -3.6950  0.7913  4.2054
 4873TIP3    H236111   0.992   6.580   4.295 -0.1816  0.2604  0.1018
 4874TIP3   OH236112   4.031   5.387   0.012  0.1954  0.0507 -0.5191
 4874TIP3    H136113   4.004   5.396  -0.079 -0.3795  0.7190 -0.2914
 4874TIP3    H236114   4.016   5.474   0.050 -0.1252 -0.3744  0.3511
 4875TIP3   OH236115   4.688   2.056   4.976 -0.5209  0.5717 -0.1414
 4875TIP3    H136116   4.638   2.136   4.988 -0.8663  0.1675  1.3156
 4875TIP3    H236117   4.735   2.069   4.893  0.3098  2.7357  0.6089
 4876TIP3   OH236118   0.067   0.100   5.893 -0.0091  0.4888  0.2496
 4876TIP3    H136119  -0.029   0.100   5.898 -0.0249  1.1124  0.0326
 4876TIP3    H236120   0.093   0.177   5.944  0.4771 -0.7093  1.8898
 4877TIP3   OH236121   3.249   4.022   2.950  0.0540  0.0188  0.2457
 4877TIP3    H136122   3.174   3.987   2.998  0.0650 -0.5256 -0.1307
 4877TIP3    H236123   3.263   4.109   2.988 -2.4229  1.2434 -1.4594
 4878TIP3   OH236124   0.536   1.059   4.160  1.1826 -0.8208 -0.4835
 4878TIP3    H136125   0.516   0.998   4.232 -0.8356  0.0882 -0.2125
 4878TIP3    H236126   0.503   1.016   4.082  0.4298 -0.4380 -0.3909
 4879TIP3   OH236127   0.849   2.474  11.657 -0.4036 -0.0751 -0.0419
 4879TIP3    H136128   0.770   2.462  11.710  0.1109  1.3449  1.1374
 4879TIP3    H236129   0.838   2.414  11.583 -2.5158 -0.0084  0.1489
 4880TIP3   OH236130   0.487   2.261   4.792  0.4930  0.0667  0.5450
 4880TIP3    H136131   0.522   2.239   4.878  0.1993 -1.2132  0.3498
 4880TIP3    H236132   0.396   2.231   4.794 -0.1076  1.7762  0.4428
 4881TIP3   OH236133   0.923   4.262  16.079 -0.0093  0.4736 -0.4306
 4881TIP3    H136134   0.904   4.194  16.014 -1.1962  1.4114 -1.1041
 4881TIP3    H236135   0.888   4.342  16.040  2.2573  1.6867 -0.1030
 4882TIP3   OH236136   6.175   6.108  11.852  0.0931  0.3228  0.1856
 4882TIP3    H136137   6.188   6.170  11.924  0.8679  0.0512  0.2868
 4882TIP3    H236138   6.237   6.037  11.870 -0.0072  0.0505 -0.5270
 4883TIP3   OH236139   2.997   4.405   3.577 -0.0550  0.5526  0.6088
 4883TIP3    H136140   2.904   4.413   3.559 -0.0244 -1.8533 -1.1208
 4883TIP3    H236141   3.037   4.479   3.531 -1.0461  1.4703  1.1788
 4884TIP3   OH236142   6.360   3.922  14.131  0.2162  0.0824  0.0765
 4884TIP3    H136143   6.377   3.848  14.073 -0.8546  1.1182 -1.6637
 4884TIP3    H236144   6.303   3.887  14.199  2.9624 -1.6037  1.6987
 4885TIP3   OH236145   3.794   6.413   3.906 -0.7712 -0.4714  0.1999
 4885TIP3    H136146   3.877   6.373   3.934 -0.0846 -1.3159 -2.6925
 4885TIP3    H236147   3.728   6.346   3.925 -1.0263  0.4675  3.1569
 4886TIP3   OH236148   3.294   3.291  15.927  0.3862 -1.0617 -0.1021
 4886TIP3    H136149   3.325   3.342  16.001 -1.5698 -1.3415  0.9726
 4886TIP3    H236150   3.305   3.349  15.851 -0.8895  0.6143  0.9403
 4887TIP3   OH236151   0.162   2.580  15.037 -0.1884  0.0717 -0.1792
 4887TIP3    H136152   0.101   2.530  15.090 -0.6722  0.4096 -0.4172
 4887TIP3    H236153   0.108   2.640  14.986  0.3000  0.0625 -0.7292
 4888TIP3   OH236154   2.305   5.406  15.416 -0.2518 -0.2484 -0.0248
 4888TIP3    H136155   2.294   5.421  15.322  0.5143 -0.9874 -0.2461
 4888TIP3    H236156   2.366   5.332  15.422 -0.4074 -0.3135  1.0532
 4889TIP3   OH236157   5.631   4.617  12.310 -0.0346 -0.5178 -0.0902
 4889TIP3    H136158   5.676   4.658  12.236 -0.2907 -0.5120 -0.2416
 4889TIP3    H236159   5.611   4.528  12.280 -1.2001 -0.1435 -0.4657
 4890TIP3   OH236160   2.528   0.699   3.323  0.2991  0.2739 -0.1036
 4890TIP3    H136161   2.523   0.780   3.375 -0.1697  0.2218 -0.0585
 4890TIP3    H236162   2.496   0.631   3.383  1.0628 -0.0144 -0.0102
 4891TIP3   OH236163   0.072   6.731  11.899  0.5422  0.5889  0.3351
 4891TIP3    H136164   0.121   6.813  11.902  0.1875  0.8432 -0.4312
 4891TIP3    H236165  -0.005   6.747  11.953  0.0368  1.0747 -0.5006
 4892TIP3   OH236166   0.492   5.921   4.615 -0.1500  0.0152  0.0346
 4892TIP3    H136167   0.435   5.980   4.664  0.6745  0.0332  1.0068
 4892TIP3    H236168   0.521   5.857   4.680  1.8718  0.7040 -0.1229
 4893TIP3   OH236169   3.921   6.289  12.851  0.0369  0.2113 -0.5079
 4893TIP3    H136170   3.968   6.372  12.847 -0.6856  0.6893  0.6159
 4893TIP3    H236171   3.946   6.244  12.770  2.1269  0.5880 -0.1369
 4894TIP3   OH236172   2.343   2.473   1.651 -0.3882 -0.5435 -0.2535
 4894TIP3    H136173   2.426   2.443   1.688 -0.5772 -0.3845  0.3194
 4894TIP3    H236174   2.367   2.516   1.569  0.0032 -1.2297 -0.5091
 4895TIP3   OH236175   5.500   1.623   3.973  0.0098  0.7266  0.0972
 4895TIP3    H136176   5.494   1.677   4.052  1.2222  2.0930 -0.6849
 4895TIP3    H236177   5.582   1.575   3.984 -1.2784 -1.3850  0.9910
 4896TIP3   OH236178   2.327   5.702   5.016  0.0200 -0.1083 -0.6666
 4896TIP3    H136179   2.283   5.627   4.976 -0.7643  0.3577 -0.6925
 4896TIP3    H236180   2.420   5.687   5.000 -0.1091 -1.1973 -0.4651
 4897TIP3   OH236181   2.644   0.153  11.056 -0.0458  0.0591  0.1578
 4897TIP3    H136182   2.716   0.134  11.117  0.8352  0.4816 -0.7208
 4897TIP3    H236183   2.634   0.248  11.059 -0.0812  0.0714 -0.2376
 4898TIP3   OH236184   3.523   2.670  16.366 -0.2632  0.3825  0.4304
 4898TIP3    H136185   3.494   2.761  16.370 -1.1719  0.0885  0.9343
 4898TIP3    H236186   3.595   2.670  16.303  0.3586  1.5960  1.1215
 4899TIP3   OH236187   5.433   6.685  14.324 -0.0050  0.0163 -0.2897
 4899TIP3    H136188   5.508   6.732  14.287 -0.0506  0.8805  0.6604
 4899TIP3    H236189   5.393   6.748  14.385 -0.4570 -1.0305  0.5299
 4900TIP3   OH236190   4.212   4.406   5.434  0.7553  0.7578  0.1745
 4900TIP3    H136191   4.160   4.469   5.383  0.1431  1.6522  1.8343
 4900TIP3    H236192   4.259   4.355   5.368 -3.0758 -0.9211 -1.5464
 4901TIP3   OH236193   5.264   2.765  16.118  0.4164  0.2347 -0.1376
 4901TIP3    H136194   5.249   2.691  16.176  2.7467 -0.5159 -0.3668
 4901TIP3    H236195   5.260   2.842  16.176  0.0890 -0.2503  0.5002
 4902TIP3   OH236196   5.593   6.063  16.429  0.2288 -0.6283  0.4682
 4902TIP3    H136197   5.595   5.967  16.428  3.0611 -0.6546  0.8277
 4902TIP3    H236198   5.568   6.087  16.339  0.4205 -1.6910  0.1092
 4903TIP3   OH236199   3.898   1.477  13.747 -0.4380 -0.0496 -0.1858
 4903TIP3    H136200   3.920   1.478  13.654 -0.3680  0.7098 -0.1636
 4903TIP3    H236201   3.889   1.569  13.771  1.6302 -0.1194  1.0493
 4904TIP3   OH236202   1.734   6.332  12.296  0.4855 -0.6537  0.4039
 4904TIP3    H136203   1.651   6.288  12.316 -0.2614  1.2281  1.7338
 4904TIP3    H236204   1.765   6.364  12.380  2.1783 -0.6253 -0.1987
 4905TIP3   OH236205   5.217   5.138  16.377  0.5092  0.2071  0.4054
 4905TIP3    H136206   5.243   5.130  16.469 -0.2778  0.8398  0.6990
 4905TIP3    H236207   5.150   5.207  16.377 -1.1239 -1.2848 -0.2910
 4906TIP3   OH236208   4.178   2.321   0.738  0.2825  0.1282  0.3579
 4906TIP3    H136209   4.270   2.349   0.733  0.3656 -0.2908 -1.4662
 4906TIP3    H236210   4.131   2.398   0.769  1.1906  0.5360  0.7414
 4907TIP3   OH236211   0.054   4.885  16.342  0.0378  0.2458  0.2906
 4907TIP3    H136212   0.092   4.800  16.320  0.9355  0.6110  0.3656
 4907TIP3    H236213   0.003   4.910  16.265 -0.4459 -0.4778  0.3736
 4908TIP3   OH236214   2.244   3.581   5.656 -0.0063 -0.4444 -0.2234
 4908TIP3    H136215   2.258   3.673   5.678  0.1986 -0.9354  1.9492
 4908TIP3    H236216   2.158   3.579   5.613 -0.6553  0.6023  0.9833
 4909TIP3   OH236217   0.710   5.452  12.121 -0.0905 -0.5324 -0.0953
 4909TIP3    H136218   0.683   5.540  12.096  0.6291 -0.6403 -1.3705
 4909TIP3    H236219   0.640   5.395  12.089  1.4252 -0.8027 -3.3021
 4910TIP3   OH236220   3.388   4.464  13.984  0.1491 -0.1624 -0.2100
 4910TIP3    H136221   3.422   4.437  13.899  0.6152  0.4534 -0.2280
 4910TIP3    H236222   3.466   4.470  14.040 -0.3361 -2.5116  0.8312
 4911TIP3   OH236223   1.150   1.524   3.385 -0.1783 -0.0156  0.5076
 4911TIP3    H136224   1.155   1.446   3.330 -2.4264 -0.5293  0.9313
 4911TIP3    H236225   1.211   1.586   3.345 -0.1783 -1.1228 -1.3035
 4912TIP3   OH236226   0.144   1.443  12.660  0.0810  0.1976 -0.2319
 4912TIP3    H136227   0.158   1.359  12.704  1.7853 -0.1010 -1.2776
 4912TIP3    H236228   0.155   1.423  12.567  1.5638  1.7557 -0.4274
 4913TIP3   OH236229   4.202   5.660  15.656  0.2870 -0.3192 -0.3449
 4913TIP3    H136230   4.275   5.682  15.714  0.2267 -1.6632  0.2669
 4913TIP3    H236231   4.135   5.725  15.676  1.4947  1.3236 -1.3405
 4914TIP3   OH236232   4.083   3.605  11.916 -0.1985  0.0026 -0.6647
 4914TIP3    H136233   4.126   3.632  11.997 -1.0977 -0.5538  0.0175
 4914TIP3    H236234   4.009   3.666  11.907  0.7295  0.9970 -1.8592
 4915TIP3   OH236235   0.178   6.850  10.793  0.1022 -0.0708 -0.8783
 4915TIP3    H136236   0.226   6.816  10.718  1.1260 -0.2180 -0.1737
 4915TIP3    H236237   0.118   6.779  10.817  0.8732 -0.6410 -0.5984
 4916TIP3   OH236238   5.245   0.657  12.338  0.0850 -0.8062  0.2471
 4916TIP3    H136239   5.177   0.725  12.338  0.3516 -0.5344  1.0368
 4916TIP3    H236240   5.324   0.701  12.307  0.7528 -0.2193  2.5912
 4917TIP3   OH236241   3.368   2.938  16.360  0.5037  0.0506 -0.6981
 4917TIP3    H136242   3.298   2.942  16.424  0.0727  1.1388 -1.2136
 4917TIP3    H236243   3.325   2.952  16.276  1.2205 -0.1716 -1.1178
 4918TIP3   OH236244   5.344   6.696   4.414 -0.7814 -0.0836  0.2102
 4918TIP3    H136245   5.332   6.755   4.488  0.1582  1.1458 -0.5735
 4918TIP3    H236246   5.256   6.679   4.382 -1.0501  1.2259  0.2094
 4919TIP3   OH236247   4.079   4.045  16.928  0.2242 -0.1269 -0.3732
 4919TIP3    H136248   4.092   4.125  16.979 -1.4461  1.3891 -2.1791
 4919TIP3    H236249   4.167   4.022  16.898  0.8847  0.3762  1.0902
 4920TIP3   OH236250   0.339   3.451  12.269 -0.1027  0.2944  0.1058
 4920TIP3    H136251   0.296   3.407  12.195  2.0242  1.3922 -1.9305
 4920TIP3    H236252   0.282   3.525  12.289 -0.0724  0.7793 -1.4318
 4921TIP3   OH236253   0.811   3.246  14.446  0.2468  0.5435 -0.1216
 4921TIP3    H136254   0.787   3.250  14.539  0.1513  0.0460 -0.1225
 4921TIP3    H236255   0.800   3.336  14.415  1.1048  0.8953  0.5497
 4922TIP3   OH236256   2.406   4.648   5.691 -0.1379  0.3112  0.4231
 4922TIP3    H136257   2.440   4.612   5.773 -0.9482 -0.4972  0.4220
 4922TIP3    H236258   2.315   4.671   5.711  0.3123  2.2690  0.3824
 4923TIP3   OH236259   5.379   4.220   4.299  0.2893  0.2492 -0.3969
 4923TIP3    H136260   5.386   4.204   4.205 -0.6483  0.4450 -0.5090
 4923TIP3    H236261   5.438   4.156   4.339 -1.7807 -2.1522 -0.9484
 4924TIP3   OH236262   0.912   6.741   0.868 -0.3325  0.0038 -0.0864
 4924TIP3    H136263   0.971   6.681   0.914  1.7449  1.0325 -1.2613
 4924TIP3    H236264   0.935   6.828   0.903 -0.7916  0.4839 -0.9476
 4925TIP3   OH236265   0.530   1.408   2.617  0.2083 -0.1311  0.0898
 4925TIP3    H136266   0.523   1.474   2.686 -1.0426 -0.6175  0.4526
 4925TIP3    H236267   0.453   1.421   2.562  0.9401 -0.0667 -0.9676
 4926TIP3   OH236268   5.390   0.596   1.177  0.3904  0.1223  0.3760
 4926TIP3    H136269   5.367   0.526   1.237 -0.3235 -0.3157 -0.3836
 4926TIP3    H236270   5.485   0.604   1.183  0.5497 -1.3309  0.0165
 4927TIP3   OH236271   0.744   1.027  11.039  0.5981  0.5267 -0.1001
 4927TIP3    H136272   0.723   1.115  11.071  0.4739  0.4403  0.0600
 4927TIP3    H236273   0.661   0.993  11.004 -0.0108 -0.5068  2.1639
 4928TIP3   OH236274   1.221   3.266  16.872 -0.3389 -0.3821 -0.0715
 4928TIP3    H136275   1.224   3.280  16.777  0.9831  0.0925  0.0261
 4928TIP3    H236276   1.226   3.354  16.909 -2.6578 -0.4051  0.4500
 4929TIP3   OH236277   6.158   6.327  14.497  0.6481  0.9247  0.5727
 4929TIP3    H136278   6.150   6.377  14.416 -1.3736  2.0782  1.3980
 4929TIP3    H236279   6.114   6.244  14.480  1.8807  0.3880 -0.0634
 4930TIP3   OH236280   2.921   0.159  11.753  0.0698 -0.5978  0.1847
 4930TIP3    H136281   2.973   0.134  11.830  0.3747  0.7041  0.4188
 4930TIP3    H236282   2.922   0.254  11.753  1.7537 -0.4931 -2.5576
 4931TIP3   OH236283   5.621   3.373  10.312  0.0442  0.4306  0.1685
 4931TIP3    H136284   5.700   3.423  10.336  0.7701 -0.0153 -1.2023
 4931TIP3    H236285   5.614   3.384  10.217 -1.3304  0.1306  0.2194
 4932TIP3   OH236286   3.604   0.590  11.293 -0.3144 -0.1839  0.4240
 4932TIP3    H136287   3.645   0.518  11.340 -1.2822 -0.1949  1.2731
 4932TIP3    H236288   3.631   0.668  11.340 -1.4760 -0.2130  1.1753
 4933TIP3   OH236289   1.825   1.041   3.813  0.3009 -0.3204 -0.4737
 4933TIP3    H136290   1.828   1.072   3.722  0.3296 -1.4702 -0.8780
 4933TIP3    H236291   1.879   1.103   3.861  1.5180 -0.5345 -1.5069
 4934TIP3   OH236292   0.684   2.056   5.538  0.3373  0.3338  0.1539
 4934TIP3    H136293   0.683   2.099   5.453  0.0590  0.1428  0.0586
 4934TIP3    H236294   0.731   1.974   5.522 -0.4284 -0.0874 -0.0125
 4935TIP3   OH236295   4.804   1.243   3.208  0.0365  0.3690  0.3547
 4935TIP3    H136296   4.778   1.310   3.144 -0.0112 -0.4247 -0.4876
 4935TIP3    H236297   4.727   1.231   3.263 -1.3138 -1.5537 -1.7645
 4936TIP3   OH236298   2.046   5.552   2.469 -0.0300 -0.4838 -0.1679
 4936TIP3    H136299   2.121   5.560   2.410  0.1402  0.6042  0.1649
 4936TIP3    H236300   2.018   5.643   2.483  0.4553 -0.6170  2.0693
 4937TIP3   OH236301   3.779   4.742   1.475  0.3261 -0.4864 -0.3625
 4937TIP3    H136302   3.865   4.704   1.489 -0.5991 -1.8417  2.3381
 4937TIP3    H236303   3.796   4.835   1.457  2.3478 -0.8800 -0.6457
 4938TIP3   OH236304   5.901   2.900   0.843  1.1055  0.6843 -0.1638
 4938TIP3    H136305   5.813   2.876   0.813  1.1861 -1.0717  0.8894
 4938TIP3    H236306   5.926   2.973   0.786 -0.6470  0.6080 -1.1133
 4939TIP3   OH236307   6.556   1.819   5.404 -0.2055 -0.2602 -0.3083
 4939TIP3    H136308   6.585   1.732   5.375  1.5851  0.4772 -0.9081
 4939TIP3    H236309   6.474   1.803   5.449  0.1494 -2.2908 -0.2723
 4940TIP3   OH236310   2.086   5.763   3.092 -0.0243  0.3977 -0.5081
 4940TIP3    H136311   2.022   5.704   3.132  1.0801 -2.5130 -2.7197
 4940TIP3    H236312   2.113   5.820   3.164 -1.2972 -1.6439  1.7677
 4941TIP3   OH236313   4.835   5.390   1.312  0.4104  0.3586  0.1150
 4941TIP3    H136314   4.876   5.321   1.260 -3.1396 -0.4735 -1.8736
 4941TIP3    H236315   4.778   5.344   1.373 -0.6104  1.4825  0.0419
 4942TIP3   OH236316   4.076   3.900  14.846  0.0332  0.1148  0.4163
 4942TIP3    H136317   4.036   3.855  14.920  2.2326  0.2661  1.8003
 4942TIP3    H236318   4.050   3.848  14.770 -1.2205 -0.8088  1.4211
 4943TIP3   OH236319   3.593   4.948  16.394 -0.3297 -0.1048 -0.7933
 4943TIP3    H136320   3.557   4.866  16.426 -0.4269  0.2486  0.0435
 4943TIP3    H236321   3.524   5.012  16.408  0.6922  0.6558  1.1629
 4944TIP3   OH236322   2.527   1.948  11.759 -0.3420  0.0517 -0.1242
 4944TIP3    H136323   2.622   1.961  11.752 -0.2222 -0.1950  0.8656
 4944TIP3    H236324   2.507   1.971  11.850 -1.6241  2.4785 -0.9323
 4945TIP3   OH236325   1.675   0.003   0.058 -0.1152  0.3996 -0.4262
 4945TIP3    H136326   1.608   0.070   0.047 -0.5715 -0.2076 -1.5863
 4945TIP3    H236327   1.679  -0.041  -0.027  1.7293  0.3824 -0.3756
 4946TIP3   OH236328   4.382   2.922   5.339 -0.2196 -0.2001 -0.1948
 4946TIP3    H136329   4.373   2.935   5.245 -1.9903 -1.3156 -0.2403
 4946TIP3    H236330   4.394   3.010   5.375  1.9463  0.1267 -1.5380
 4947TIP3   OH236331   0.128   3.005  12.488 -0.0212 -0.1139  0.4595
 4947TIP3    H136332   0.209   3.009  12.539  0.1771  0.4452  0.1108
 4947TIP3    H236333   0.143   3.063  12.414 -1.5477  1.8085  1.5504
 4948TIP3   OH236334   4.652   3.411  10.432 -0.4177 -0.2846  0.0227
 4948TIP3    H136335   4.623   3.337  10.378 -0.6870 -1.0925  1.2280
 4948TIP3    H236336   4.575   3.433  10.484  0.2340 -0.4385  1.0733
 4949TIP3   OH236337   5.301   1.184   4.660 -0.0493  0.2135  0.3986
 4949TIP3    H136338   5.275   1.092   4.656  0.9272 -0.0570 -0.0598
 4949TIP3    H236339   5.364   1.194   4.589  1.8116  0.5773  2.0122
 4950TIP3   OH236340   2.978   4.986   4.559  0.0013  0.4431  0.0987
 4950TIP3    H136341   3.011   5.075   4.565 -0.1635  0.4768  0.5859
 4950TIP3    H236342   3.038   4.941   4.500  0.0379  0.8991 -0.2086
 4951TIP3   OH236343   3.174   6.076  12.527  0.2094  0.2509  0.1521
 4951TIP3    H136344   3.231   6.004  12.500 -1.7661 -1.7740  1.0174
 4951TIP3    H236345   3.162   6.062  12.621 -0.8929  1.1939  0.1691
 4952TIP3   OH236346   6.684   4.229   5.726 -0.5805  0.9217 -0.2524
 4952TIP3    H136347   6.761   4.282   5.746  0.5764 -0.7078 -0.1272
 4952TIP3    H236348   6.634   4.281   5.665  1.2938  1.5251 -1.3627
 4953TIP3   OH236349   3.023   4.157   3.425 -0.7289 -0.1522  0.7456
 4953TIP3    H136350   3.011   4.079   3.479  0.8066 -1.3957 -0.5827
 4953TIP3    H236351   3.007   4.230   3.484 -3.0370 -1.4409  1.8364
 4954TIP3   OH236352   5.057   2.386   2.464 -0.1196 -0.2912 -0.2356
 4954TIP3    H136353   5.131   2.442   2.439 -0.4491  0.5783  0.6504
 4954TIP3    H236354   5.077   2.359   2.554 -0.7303 -0.2872 -0.0962
 4955TIP3   OH236355   5.447   1.281   2.973  0.0266 -0.6574  0.0518
 4955TIP3    H136356   5.389   1.313   2.904  0.6642 -1.1646 -0.7388
 4955TIP3    H236357   5.387   1.247   3.040 -0.6032  0.0633 -0.1303
 4956TIP3   OH236358   3.794   2.828  13.462  0.0410 -0.4473 -0.3359
 4956TIP3    H136359   3.788   2.909  13.513  3.1309 -0.4660  0.2833
 4956TIP3    H236360   3.777   2.855  13.372 -0.1231  0.6861  0.0165
 4957TIP3   OH236361   2.502   3.496   5.226  0.2359 -0.1257 -0.4894
 4957TIP3    H136362   2.451   3.513   5.147 -1.3858 -0.3299  0.4712
 4957TIP3    H236363   2.483   3.570   5.283 -0.4582 -1.0945  0.5826
 4958TIP3   OH236364   3.319   6.341  16.015 -0.0486  0.4823  0.1987
 4958TIP3    H136365   3.310   6.308  15.925  0.1316  2.5199 -0.6392
 4958TIP3    H236366   3.245   6.401  16.026  0.5305  1.0754  0.9995
 4959TIP3   OH236367   6.697   1.746  13.097  0.1759  0.6546 -0.5161
 4959TIP3    H136368   6.764   1.680  13.081  0.5460  1.0721 -0.6822
 4959TIP3    H236369   6.615   1.701  13.075  0.2954 -0.1486  0.5544
 4960TIP3   OH236370   0.102   1.100   1.414  0.4998  0.1009  0.6807
 4960TIP3    H136371   0.122   1.129   1.325 -0.8833 -0.4344  0.1769
 4960TIP3    H236372   0.178   1.128   1.466  1.3554  0.3576 -0.6662
 4961TIP3   OH236373   1.316   6.021  12.493 -0.2927  0.2007 -0.1180
 4961TIP3    H136374   1.350   5.956  12.554 -0.2388 -1.1737 -1.5511
 4961TIP3    H236375   1.251   5.973  12.441  0.2638  1.0933 -1.6938
 4962TIP3   OH236376   4.617   1.196   1.850 -0.0286  0.1749 -0.3826
 4962TIP3    H136377   4.569   1.260   1.904  1.5926  0.1050  1.2539
 4962TIP3    H236378   4.628   1.120   1.907  4.2760  1.1509  0.4820
 4963TIP3   OH236379   0.576   4.483   5.508  0.2594 -0.2817 -0.4704
 4963TIP3    H136380   0.660   4.439   5.523  0.4860  0.7729  1.7300
 4963TIP3    H236381   0.599   4.572   5.483 -0.1983 -0.0612 -0.1202
 4964TIP3   OH236382   2.612   2.201  13.621 -0.4801 -0.3241  0.7243
 4964TIP3    H136383   2.682   2.198  13.555 -0.6380  0.9754  0.4675
 4964TIP3    H236384   2.617   2.117  13.664  1.1207 -0.3511  0.5629
 4965TIP3   OH236385   4.153   3.743   3.883 -0.5268 -0.5603 -0.0192
 4965TIP3    H136386   4.112   3.823   3.850  1.9368  1.4986  1.5045
 4965TIP3    H236387   4.171   3.691   3.804 -2.6983  0.0654 -0.9982
 4966TIP3   OH236388   0.446   5.030  15.145 -0.1258 -0.6417 -0.2619
 4966TIP3    H136389   0.450   5.042  15.240  0.8733  0.6090 -0.4456
 4966TIP3    H236390   0.365   5.075  15.119 -0.5772 -1.2738  0.0219
 4967TIP3   OH236391   0.815   1.513   2.646 -0.1315  0.0733  0.0685
 4967TIP3    H136392   0.752   1.518   2.574 -1.7127  1.1097  1.4202
 4967TIP3    H236393   0.832   1.419   2.657 -0.7935 -0.1708 -0.8898
 4968TIP3   OH236394   1.170   5.931   4.772  0.1398 -0.3501  0.1824
 4968TIP3    H136395   1.085   5.925   4.729  0.0218  0.8856  0.2226
 4968TIP3    H236396   1.232   5.947   4.701  0.1048  0.4592  0.3250
 4969TIP3   OH236397   0.115   2.051  15.060  0.2011  0.4384 -0.5916
 4969TIP3    H136398   0.168   2.100  15.123  1.3126 -1.5364  0.0712
 4969TIP3    H236399   0.084   1.974  15.108 -0.6493 -0.0705 -1.8864
 4970TIP3   OH236400   1.870   2.330   3.470  0.1000 -0.1692  0.2040
 4970TIP3    H136401   1.806   2.393   3.504 -2.2484 -2.9578  1.3757
 4970TIP3    H236402   1.935   2.322   3.540 -0.5693 -0.3317  0.8158
 4971TIP3   OH236403   6.020   3.701   3.862 -0.3110  0.1609  0.2304
 4971TIP3    H136404   6.070   3.620   3.867 -2.8828 -1.6004 -0.4033
 4971TIP3    H236405   6.033   3.732   3.773 -0.8350 -0.6606 -0.1464
 4972TIP3   OH236406   3.814   4.540  13.927  0.2283 -0.3619 -0.2550
 4972TIP3    H136407   3.774   4.622  13.897  1.0918  0.0330 -0.3595
 4972TIP3    H236408   3.791   4.476  13.860 -1.7731 -0.6119  0.5899
 4973TIP3   OH236409   4.557   4.527  14.273 -0.1474 -0.4360  0.2372
 4973TIP3    H136410   4.471   4.551  14.238  0.8716  0.7317 -1.6466
 4973TIP3    H236411   4.574   4.440  14.239  0.7136  0.5779 -2.1542
 4974TIP3   OH236412   5.375   0.575   1.743 -0.0095  0.3887 -0.1605
 4974TIP3    H136413   5.319   0.643   1.781  0.9736  0.1923  1.7607
 4974TIP3    H236414   5.319   0.497   1.739 -0.3037  0.5725  0.3224
 4975TIP3   OH236415   5.551   1.796  16.844 -0.3665  0.0355  0.2445
 4975TIP3    H136416   5.569   1.866  16.908 -0.5857  1.0434 -0.7566
 4975TIP3    H236417   5.493   1.736  16.890 -2.8670  2.1893  0.1762
 4976TIP3   OH236418   1.900   0.028   5.625  0.3359 -0.0848 -0.1271
 4976TIP3    H136419   1.949  -0.043   5.584  1.4406  0.3915  0.3199
 4976TIP3    H236420   1.940   0.108   5.590 -1.0776  0.3335 -0.8468
 4977TIP3   OH236421   2.023   0.878  14.996  0.4642 -0.0968  0.0405
 4977TIP3    H136422   2.091   0.870  15.064  1.0283 -0.7752 -0.5800
 4977TIP3    H236423   2.020   0.972  14.977 -0.8886  0.3617  2.1498
 4978TIP3   OH236424   4.142   4.668  13.184 -0.6272 -0.4542  0.2126
 4978TIP3    H136425   4.217   4.613  13.207 -0.1987 -0.8396 -1.8973
 4978TIP3    H236426   4.076   4.646  13.250 -0.2495 -3.0415 -0.1428
 4979TIP3   OH236427   5.929   6.388   1.916 -0.0640 -0.2772 -0.3169
 4979TIP3    H136428   5.912   6.454   1.983  1.4213  1.6532 -1.7056
 4979TIP3    H236429   5.843   6.354   1.893 -0.9257  1.3475  0.3304
 4980TIP3   OH236430   5.979   4.890  16.900  0.2048  0.1598  0.5523
 4980TIP3    H136431   5.957   4.929  16.985  0.4797  0.4516  0.4909
 4980TIP3    H236432   6.040   4.820  16.920 -1.6456 -1.4380  0.8504
 4981TIP3   OH236433   5.597   1.974  12.995 -0.0836  0.3502 -0.1162
 4981TIP3    H136434   5.597   2.060  13.036  0.1866  0.1621  0.2756
 4981TIP3    H236435   5.510   1.939  13.013  0.5049 -0.3218  1.5360
 4982TIP3   OH236436   4.065   0.199  12.523 -0.3300 -0.0384 -0.0769
 4982TIP3    H136437   4.133   0.141  12.489 -0.9022 -0.7333 -0.0685
 4982TIP3    H236438   3.999   0.202  12.453 -0.0161  1.1275 -0.3442
 4983TIP3   OH236439   5.416   0.512  14.356 -0.0224  0.6560  0.2010
 4983TIP3    H136440   5.486   0.564  14.396  0.6293  0.7789 -1.0683
 4983TIP3    H236441   5.336   0.544  14.398  0.3734  2.6256 -0.4667
 4984TIP3   OH236442   4.917   2.269   2.259  0.0305  0.2238  0.6707
 4984TIP3    H136443   4.859   2.337   2.226  0.9230  0.5805 -0.2085
 4984TIP3    H236444   4.954   2.306   2.340 -2.0706 -0.6096  2.1085
 4985TIP3   OH236445   3.663   6.101  12.830  0.1098  0.6048  0.5697
 4985TIP3    H136446   3.620   6.115  12.746  0.9195  0.0524  0.0553
 4985TIP3    H236447   3.747   6.147  12.822  1.2995 -1.5396  0.1287
 4986TIP3   OH236448   6.324   4.907  14.655  0.3367 -0.1354 -0.2061
 4986TIP3    H136449   6.382   4.916  14.580 -0.2622 -0.8074 -0.7642
 4986TIP3    H236450   6.238   4.932  14.621 -0.4204 -2.7424 -0.4528
 4987TIP3   OH236451   4.311   2.707   5.496 -0.3169 -0.0607  0.7277
 4987TIP3    H136452   4.259   2.743   5.567 -2.3601 -1.4121  0.0217
 4987TIP3    H236453   4.311   2.775   5.429 -1.1774  0.0022  0.7728
 4988TIP3   OH236454   5.311   6.347  13.014 -0.0709 -0.2347  0.0798
 4988TIP3    H136455   5.223   6.365  13.047 -0.5578 -0.5675 -0.9840
 4988TIP3    H236456   5.355   6.302  13.086 -0.5453  0.5245  0.8630
 4989TIP3   OH236457   5.563   1.580   5.148  0.2812 -0.3385  0.2953
 4989TIP3    H136458   5.545   1.571   5.054  1.1294  1.0668 -0.0286
 4989TIP3    H236459   5.492   1.532   5.190 -0.1777 -0.9116 -1.0574
 4990TIP3   OH236460   3.255   3.659   4.992 -0.2451 -0.4058 -0.3284
 4990TIP3    H136461   3.171   3.706   4.998  0.0698  0.2296 -0.8920
 4990TIP3    H236462   3.238   3.576   5.036 -1.2547 -0.3911 -0.6620
 4991TIP3   OH236463   1.654   5.093  14.522  0.2962 -0.0326 -0.1343
 4991TIP3    H136464   1.660   5.107  14.616  1.0045 -0.6349 -0.0861
 4991TIP3    H236465   1.716   5.023  14.504 -2.6051 -2.7190 -0.4580
 4992TIP3   OH236466   3.728   1.122  12.027 -0.1028  0.4520  0.0829
 4992TIP3    H136467   3.749   1.043  11.978 -0.2350 -0.3743  1.2968
 4992TIP3    H236468   3.767   1.193  11.977 -1.3610 -0.1800 -1.9199
 4993TIP3   OH236469   0.033   3.457   3.998  0.8867  0.4329 -0.5631
 4993TIP3    H136470   0.049   3.363   3.995 -1.7283 -0.1762  1.0113
 4993TIP3    H236471   0.036   3.479   4.091 -0.8045  1.3890 -0.6861
 4994TIP3   OH236472   1.211   2.388  14.346 -0.5691 -0.2421 -0.0396
 4994TIP3    H136473   1.279   2.396  14.278  0.8310  0.3833  1.3671
 4994TIP3    H236474   1.131   2.419  14.303  0.8244  2.9486 -0.6296
 4995TIP3   OH236475   5.243   6.505   1.241 -0.1513  0.5465  0.0116
 4995TIP3    H136476   5.152   6.486   1.265  0.3271  0.3227  1.7373
 4995TIP3    H236477   5.288   6.421   1.247  0.4816  0.9224  0.6592
 4996TIP3   OH236478   6.035   0.350  12.048 -0.1018  0.1781 -0.4644
 4996TIP3    H136479   6.093   0.367  11.975 -0.0175  1.3218 -0.1422
 4996TIP3    H236480   6.073   0.273  12.092  0.8284  0.5569 -0.5997
 4997TIP3   OH236481   5.644   5.258   2.047  0.2203 -0.0665 -0.2330
 4997TIP3    H136482   5.600   5.189   1.997  0.6319 -0.8911  0.5253
 4997TIP3    H236483   5.576   5.294   2.104 -0.0014  0.1753 -0.6475
 4998TIP3   OH236484   2.763   1.005  12.235 -0.7840  0.3231  0.3869
 4998TIP3    H136485   2.841   0.952  12.245 -0.0569  1.5802  1.9273
 4998TIP3    H236486   2.794   1.087  12.198 -1.8830 -0.2487 -1.9443
 4999TIP3   OH236487   0.387   6.461  10.524 -0.3704 -0.6116 -0.3975
 4999TIP3    H136488   0.436   6.432  10.447 -1.3677 -0.5766 -1.0610
 4999TIP3    H236489   0.387   6.385  10.582  1.2994 -0.3061  0.0599
 5000TIP3   OH236490   6.425   1.873   0.420 -0.7656  0.1454 -0.3316
 5000TIP3    H136491   6.420   1.848   0.328  1.2654 -0.4887 -0.3080
 5000TIP3    H236492   6.515   1.903   0.433 -0.4260 -1.5542  1.8550
 5001TIP3   OH236493   5.144   5.865   0.290 -0.5339  0.4201 -0.3769
 5001TIP3    H136494   5.102   5.819   0.217 -0.8410  1.5552 -0.9288
 5001TIP3    H236495   5.072   5.882   0.351 -0.0363 -1.9319  1.0092
 5002TIP3   OH236496   0.743   1.205   4.695  0.6310  0.0938 -0.1048
 5002TIP3    H136497   0.828   1.169   4.667  0.1601 -0.6206 -0.6529
 5002TIP3    H236498   0.679   1.158   4.642 -0.0317  1.6829 -0.7916
 5003TIP3   OH236499   3.269   3.817  13.541 -0.7110  0.5026 -0.1592
 5003TIP3    H136500   3.297   3.855  13.458 -0.1024  2.3425  0.8252
 5003TIP3    H236501   3.202   3.877  13.573 -0.5586  0.1111  0.9195
 5004TIP3   OH236502   6.426   4.993  11.761 -0.2766  0.3980  0.0081
 5004TIP3    H136503   6.405   4.968  11.851 -1.7347  1.7940  0.1029
 5004TIP3    H236504   6.475   4.918  11.727  1.2025  0.2387  2.2390
 5005TIP3   OH236505   6.566   1.816   2.613 -0.1281  0.0959  0.3146
 5005TIP3    H136506   6.506   1.781   2.546  1.1252  0.2777 -0.9451
 5005TIP3    H236507   6.508   1.849   2.682 -1.4197 -1.4369  0.0095
 5006TIP3   OH236508   1.710   4.524  16.772  0.1067  0.8983 -0.6093
 5006TIP3    H136509   1.725   4.527  16.677  0.5924  3.0251 -0.5254
 5006TIP3    H236510   1.637   4.585  16.786 -1.4521 -1.0346  0.1936
 5007TIP3   OH236511   4.895   4.835   5.713 -0.4969  0.1586 -0.2944
 5007TIP3    H136512   4.880   4.751   5.670 -1.4298 -0.0745  0.4575
 5007TIP3    H236513   4.827   4.893   5.680 -1.7216 -0.2487  1.4129
 5008TIP3   OH236514   6.429   6.389  12.289  0.1857 -0.2867 -0.5857
 5008TIP3    H136515   6.509   6.442  12.288 -0.7021  1.2077  1.4307
 5008TIP3    H236516   6.358   6.452  12.294 -0.9570 -1.6129  0.8089
 5009TIP3   OH236517   5.867   2.193  14.990  0.0815 -0.4633 -0.3280
 5009TIP3    H136518   5.812   2.171  14.915  1.2203 -2.6619 -0.6095
 5009TIP3    H236519   5.825   2.150  15.064 -0.7332  1.2418  0.2495
 5010TIP3   OH236520   4.753   6.433  11.158  0.2925 -0.1321  0.5776
 5010TIP3    H136521   4.671   6.473  11.128 -0.2069  0.1711  2.2401
 5010TIP3    H236522   4.822   6.482  11.113 -0.4189 -0.5922 -1.0921
 5011TIP3   OH236523   5.301   4.460  11.580 -0.0987  0.1656 -0.0850
 5011TIP3    H136524   5.376   4.433  11.527 -0.1662 -0.0787 -0.0566
 5011TIP3    H236525   5.279   4.383  11.632 -0.9282 -0.0489 -0.7310
 5012TIP3   OH236526   4.758   3.440   4.489 -0.0656  0.5172  0.2049
 5012TIP3    H136527   4.682   3.430   4.546 -0.4340  1.2591 -0.1371
 5012TIP3    H236528   4.807   3.358   4.499 -1.4130 -0.3926 -0.3122
 5013TIP3   OH236529   1.790   1.611  15.300  0.2334  0.1292  0.3929
 5013TIP3    H136530   1.863   1.660  15.261 -0.2931 -0.6362 -1.7071
 5013TIP3    H236531   1.723   1.677  15.318  0.4825  0.5148 -0.0728
 5014TIP3   OH236532   1.884   5.813  12.266  0.6816  0.1251 -0.1382
 5014TIP3    H136533   1.932   5.827  12.185  0.4492 -0.2135 -0.3347
 5014TIP3    H236534   1.808   5.870  12.259  0.3332 -0.3633 -0.4389
 5015TIP3   OH236535   5.062   2.391  14.688  0.6030  0.4675 -0.1473
 5015TIP3    H136536   5.018   2.462  14.641 -1.3901 -0.1679  0.6547
 5015TIP3    H236537   5.102   2.434  14.763 -1.9481  0.6556  1.2329
 5016TIP3   OH236538   1.856   1.823   4.239 -0.9128 -0.1703 -0.1957
 5016TIP3    H136539   1.895   1.739   4.266 -1.6890  0.0225  1.6905
 5016TIP3    H236540   1.791   1.799   4.173 -1.4511 -1.1432  0.6483
 5017TIP3   OH236541   5.646   5.506   6.430 -0.0282 -0.0754 -0.1789
 5017TIP3    H136542   5.552   5.490   6.436  0.0053 -1.0603 -1.6889
 5017TIP3    H236543   5.684   5.418   6.419  1.0920  0.2919  0.5963
 5018TIP3   OH236544   2.319   3.854   4.859 -0.1180 -0.0667  0.2132
 5018TIP3    H136545   2.351   3.833   4.947  0.9011 -0.2773 -0.1986
 5018TIP3    H236546   2.231   3.889   4.874 -0.7712 -1.9435  1.1635
 5019TIP3   OH236547   2.006   3.959  16.810 -0.1397  0.3577  0.2693
 5019TIP3    H136548   2.100   3.979  16.815  0.0279  0.1806 -1.6606
 5019TIP3    H236549   1.975   4.006  16.733 -1.1764 -1.3252 -0.3973
 5020TIP3   OH236550   1.175   5.533  16.517  0.1546  0.5550 -0.2307
 5020TIP3    H136551   1.109   5.539  16.448 -0.2268  2.0038  0.2224
 5020TIP3    H236552   1.124   5.523  16.598  0.6134 -2.5544 -0.2051
 5021TIP3   OH236553   2.500   5.618  11.527  0.1536 -0.1368 -0.2266
 5021TIP3    H136554   2.468   5.702  11.494  0.6151  0.4437  0.7742
 5021TIP3    H236555   2.528   5.570  11.448  0.4864  0.9074 -0.7552
 5022TIP3   OH236556   5.759   2.180   1.341 -0.1365 -0.3067  0.1819
 5022TIP3    H136557   5.794   2.092   1.329 -0.4246 -0.2940 -0.8673
 5022TIP3    H236558   5.665   2.167   1.353 -0.3243 -0.0988 -0.9377
 5023TIP3   OH236559   6.254   3.616  15.588 -0.0351  0.3028 -0.4368
 5023TIP3    H136560   6.211   3.598  15.672  0.7615  1.2907  0.2042
 5023TIP3    H236561   6.214   3.554  15.528 -1.1965  0.0972  0.4921
 5024TIP3   OH236562   0.549   4.648  14.478 -0.7200  0.0761 -0.2001
 5024TIP3    H136563   0.611   4.709  14.437 -1.6053 -0.0821 -1.8903
 5024TIP3    H236564   0.544   4.574  14.417 -2.6135  0.1294 -0.1989
 5025TIP3   OH236565   1.455   3.876  15.367 -0.1148 -0.1022 -0.3755
 5025TIP3    H136566   1.500   3.841  15.290  1.4674  1.6521 -0.2941
 5025TIP3    H236567   1.440   3.799  15.422  3.7404 -0.7285  0.0811
 5026TIP3   OH236568   5.317   1.888  16.456 -0.4641  0.2967  0.4602
 5026TIP3    H136569   5.287   1.918  16.370 -1.3025 -0.9302  0.3083
 5026TIP3    H236570   5.286   1.798  16.463  0.8062 -0.1029  1.4710
 5027TIP3   OH236571   2.450   3.115  12.695 -0.2049  0.2334 -0.2867
 5027TIP3    H136572   2.478   3.086  12.782  0.8975  0.3384 -0.5913
 5027TIP3    H236573   2.517   3.178  12.668 -2.5025  3.2115  0.3594
 5028TIP3   OH236574   5.345   4.719   1.711  0.6152 -0.0744 -0.0106
 5028TIP3    H136575   5.317   4.719   1.802 -3.0263 -0.1187 -0.9647
 5028TIP3    H236576   5.415   4.653   1.708  0.4631 -0.4756  2.6287
 5029TIP3   OH236577   4.613   3.287  13.467  0.1090 -0.0397 -0.1954
 5029TIP3    H136578   4.659   3.229  13.407  0.7064 -0.4507  0.6380
 5029TIP3    H236579   4.660   3.278  13.550  0.6803  2.1955 -0.2211
 5030TIP3   OH236580   4.532   5.869  14.133  0.2467 -0.2460  0.1120
 5030TIP3    H136581   4.536   5.798  14.069 -2.2806  0.5273 -1.0524
 5030TIP3    H236582   4.547   5.827  14.217 -0.2741 -2.0261 -0.6317
 5031TIP3   OH236583   1.668   5.172  15.405  0.1211 -0.2331  0.0198
 5031TIP3    H136584   1.634   5.235  15.469  0.1311  0.4548 -0.6486
 5031TIP3    H236585   1.699   5.099  15.459  3.0181  1.5998  1.1072
 5032TIP3   OH236586   1.411   6.078   0.907  0.3221  0.3262  0.0403
 5032TIP3    H136587   1.468   6.016   0.953  1.5813  1.5717  0.2170
 5032TIP3    H236588   1.459   6.161   0.909 -0.6272  0.9611 -1.5222
 5033TIP3   OH236589   0.650   2.383   1.519  0.4572  0.1268 -0.2603
 5033TIP3    H136590   0.718   2.450   1.511 -0.8923  1.6759  0.7304
 5033TIP3    H236591   0.699   2.302   1.536  2.1222  0.8360 -1.3048
 5034TIP3   OH236592   2.557   4.347   6.071  0.1547 -0.2430  0.5828
 5034TIP3    H136593   2.534   4.268   6.022 -0.7113 -0.2143  0.9118
 5034TIP3    H236594   2.583   4.411   6.004 -1.3934 -0.0802  0.0972
 5035TIP3   OH236595   5.386   3.139  11.896  0.2092 -1.0645  0.1524
 5035TIP3    H136596   5.443   3.201  11.941 -2.1617  0.3785  1.3501
 5035TIP3    H236597   5.403   3.154  11.803  1.4714 -0.4080  0.4629
 5036TIP3   OH236598   3.106   5.735  14.560  0.1226  0.1731 -0.9043
 5036TIP3    H136599   3.112   5.641  14.541 -0.5944 -0.0525 -0.0574
 5036TIP3    H236600   3.177   5.751  14.622  0.4577  0.2666 -1.3060
 5037TIP3   OH236601   2.627   5.909  11.012 -0.0187  0.1706 -0.3113
 5037TIP3    H136602   2.576   5.875  10.939 -1.0643  0.6667  0.1743
 5037TIP3    H236603   2.662   5.993  10.980 -0.4191  0.3552 -0.2663
 5038TIP3   OH236604   2.641   3.981  12.222  0.4651 -0.2085 -0.0541
 5038TIP3    H136605   2.661   3.978  12.128 -0.1640 -1.6067 -0.1623
 5038TIP3    H236606   2.707   3.925  12.262  1.3899  1.2239  0.4895
 5039TIP3   OH236607   6.556   4.783   5.917  0.4548  0.1798  0.2822
 5039TIP3    H136608   6.594   4.702   5.882  1.7830  0.5889  0.7568
 5039TIP3    H236609   6.462   4.772   5.901  0.6372 -1.2839 -0.0163
 5040TIP3   OH236610   5.873   4.697  15.054  0.1375 -0.3032 -0.4631
 5040TIP3    H136611   5.890   4.790  15.072  1.8138 -0.2412 -1.9851
 5040TIP3    H236612   5.858   4.694  14.959 -1.9749 -1.3535 -0.1405
 5041TIP3   OH236613   4.053   0.925   2.300 -0.0154 -0.4564  0.3508
 5041TIP3    H136614   4.066   0.959   2.211  0.5171 -3.6549 -0.9174
 5041TIP3    H236615   3.958   0.917   2.308 -0.0566 -0.3753 -0.0216
 5042TIP3   OH236616   1.283   0.681   5.840 -0.3950  0.1592  0.3442
 5042TIP3    H136617   1.341   0.701   5.914  0.2502 -2.0927  0.4975
 5042TIP3    H236618   1.215   0.625   5.877 -0.4946 -0.3808 -0.6325
 5043TIP3   OH236619   0.407   0.761  11.512  0.8247 -0.1952 -0.2093
 5043TIP3    H136620   0.453   0.685  11.476  1.9326  0.6974 -0.7041
 5043TIP3    H236621   0.332   0.723  11.558  0.8534 -1.5292 -1.2077
 5044TIP3   OH236622   5.289   5.514  15.712 -0.1398 -0.0179  0.0028
 5044TIP3    H136623   5.268   5.490  15.621  0.6718  0.3192 -0.2830
 5044TIP3    H236624   5.206   5.504  15.759  0.0006 -2.7797 -0.1919
 5045TIP3   OH236625   3.664   6.622  12.286  0.8229 -0.0505  0.1579
 5045TIP3    H136626   3.654   6.610  12.192  1.1190 -0.9625  0.2333
 5045TIP3    H236627   3.575   6.609  12.321  0.9516 -1.1107  0.1309
 5046TIP3   OH236628   3.131   4.898   3.269  0.4160  1.3586 -0.5653
 5046TIP3    H136629   3.035   4.901   3.265  0.2334 -0.7526  0.7055
 5046TIP3    H236630   3.157   4.851   3.189  0.3976  1.8903 -0.8865
 5047TIP3   OH236631   4.651   1.441  10.698  0.3469 -0.9543 -0.3613
 5047TIP3    H136632   4.638   1.346  10.692 -1.0426 -0.7426 -1.3161
 5047TIP3    H236633   4.572   1.478  10.660  1.2105  0.5981 -0.7370
 5048TIP3   OH236634   4.758   4.371   2.987  0.1816  0.4188  0.1608
 5048TIP3    H136635   4.740   4.305   3.054  2.0360  1.2964  1.5875
 5048TIP3    H236636   4.805   4.324   2.918 -0.9766 -0.2995 -0.1745
 5049TIP3   OH236637   0.995   5.735  13.560 -0.5946  0.0078  0.0651
 5049TIP3    H136638   0.974   5.655  13.608  0.1413 -1.3575 -1.7645
 5049TIP3    H236639   0.950   5.725  13.477  0.2801  1.0688 -0.5540
 5050TIP3   OH236640   6.649   5.306  15.297  1.0146  0.6205 -0.6566
 5050TIP3    H136641   6.695   5.239  15.246  0.5372 -1.0072  0.9515
 5050TIP3    H236642   6.663   5.281  15.388 -0.9896  1.4643 -0.0654
 5051TIP3   OH236643   3.402   6.099  15.174  0.4477  0.0349 -0.0154
 5051TIP3    H136644   3.488   6.081  15.211  0.4888 -0.8959 -0.5528
 5051TIP3    H236645   3.420   6.137  15.088  0.3570 -3.0382 -1.5004
 5052TIP3   OH236646   6.787   0.407  11.206  0.2635 -0.0903 -0.4655
 5052TIP3    H136647   6.864   0.412  11.150  0.3805 -2.8283 -0.6457
 5052TIP3    H236648   6.822   0.406  11.295  0.3357  0.1200 -0.4908
 5053TIP3   OH236649   5.331   3.147  11.232  0.3400 -0.1702  0.4356
 5053TIP3    H136650   5.281   3.067  11.221  0.7911 -0.3204 -0.6587
 5053TIP3    H236651   5.407   3.121  11.285 -0.0305 -0.2264  0.9550
 5054TIP3   OH236652   4.356   5.921   2.504  0.5797 -0.0976 -0.2003
 5054TIP3    H136653   4.392   6.010   2.504  0.2357  0.0518 -0.5844
 5054TIP3    H236654   4.319   5.911   2.416  0.9677 -0.7689 -0.2910
 5055TIP3   OH236655   6.166   0.950  15.753 -0.3642  0.0370 -0.5357
 5055TIP3    H136656   6.215   1.032  15.766  0.4430 -0.3225 -1.2531
 5055TIP3    H236657   6.114   0.965  15.674 -0.8326  0.1346 -0.2160
 5056TIP3   OH236658   4.596   1.129  12.045  0.3395 -0.4803  0.4785
 5056TIP3    H136659   4.568   1.215  12.076 -0.5972  0.0564 -1.6747
 5056TIP3    H236660   4.641   1.147  11.962  0.7837 -2.0131  0.3544
 5057TIP3   OH236661   6.407   4.194   0.333 -0.3278 -0.2132 -0.0116
 5057TIP3    H136662   6.339   4.128   0.348 -1.1822  0.8952  1.1750
 5057TIP3    H236663   6.468   4.183   0.406  0.8184 -1.2029 -1.0715
 5058TIP3   OH236664   0.919   5.140   4.019  0.4971 -0.4373 -0.6990
 5058TIP3    H136665   0.907   5.050   4.050  0.3025 -0.9386 -2.1632
 5058TIP3    H236666   0.871   5.194   4.083  0.5880 -1.3637  0.1727
 5059TIP3   OH236667   0.428   4.769  12.056  0.2220  0.1203 -0.1615
 5059TIP3    H136668   0.422   4.771  12.152  1.5762 -1.6265  0.0137
 5059TIP3    H236669   0.518   4.741  12.038 -0.3346 -0.6963 -1.9188
 5060TIP3   OH236670   1.677   3.665   0.550 -0.3513  0.3723 -0.3662
 5060TIP3    H136671   1.729   3.630   0.623  0.9733 -0.5093 -1.6781
 5060TIP3    H236672   1.593   3.689   0.590  0.4558  0.2758  1.5098
 5061TIP3   OH236673   4.040   5.439  12.979 -0.0274  0.6660 -0.2571
 5061TIP3    H136674   4.003   5.528  12.976  0.1520  0.7965  0.9468
 5061TIP3    H236675   4.095   5.439  13.057 -1.3155 -0.9934  0.7095
 5062TIP3   OH236676   4.552   5.928   5.699 -0.1624  0.3018  0.1162
 5062TIP3    H136677   4.510   5.879   5.769  0.2826 -0.0588  0.1317
 5062TIP3    H236678   4.481   5.946   5.637 -0.3815 -0.1268  0.2404
 5063TIP3   OH236679   2.833   1.555   1.720  0.2364  0.0601 -0.3481
 5063TIP3    H136680   2.908   1.511   1.760  1.0492  1.0721 -0.7150
 5063TIP3    H236681   2.864   1.644   1.702 -2.0198  1.5535  2.4217
 5064TIP3   OH236682   1.283   4.005   4.711  0.3171 -0.3352 -0.3867
 5064TIP3    H136683   1.255   4.089   4.749 -0.0080 -1.0968  1.1618
 5064TIP3    H236684   1.234   3.999   4.629 -1.7745 -0.2132  0.7716
 5065TIP3   OH236685   2.225   4.573   1.914  0.3772 -0.4143 -0.0064
 5065TIP3    H136686   2.163   4.505   1.887 -1.0186  0.2102  1.4565
 5065TIP3    H236687   2.211   4.582   2.008  0.2683  2.0923 -0.1967
 5066TIP3   OH236688   6.068   5.351  15.060 -0.1001 -0.2771  0.0742
 5066TIP3    H136689   6.098   5.261  15.046 -0.1416 -0.3607  0.5091
 5066TIP3    H236690   5.977   5.342  15.086  0.3932 -0.2432  1.9288
 5067TIP3   OH236691   3.185   4.667   0.862 -0.3124  0.4929 -0.4259
 5067TIP3    H136692   3.093   4.657   0.886  0.0828 -0.1899  0.9139
 5067TIP3    H236693   3.233   4.614   0.926  1.1401  2.2399  0.0342
 5068TIP3   OH236694   2.183   4.246   1.043  0.7560 -0.5516 -0.3834
 5068TIP3    H136695   2.102   4.204   1.015  0.6720 -1.4515  1.1118
 5068TIP3    H236696   2.251   4.180   1.027  1.1797  0.0952 -1.3707
 5069TIP3   OH236697   2.489   4.050  14.525  0.2178 -0.0563  0.1069
 5069TIP3    H136698   2.472   4.062  14.618  0.6533 -0.3465  0.2262
 5069TIP3    H236699   2.466   4.134  14.485 -1.1297 -0.3124  0.3024
 5070TIP3   OH236700   6.088   1.532  11.351 -0.3592 -0.0665 -0.3892
 5070TIP3    H136701   6.131   1.617  11.335  0.7374 -0.2402  1.4294
 5070TIP3    H236702   6.046   1.542  11.436 -2.5312 -0.4968 -1.3495
 5071TIP3   OH236703   1.016   2.169  10.874  0.4009  0.0962  0.1334
 5071TIP3    H136704   1.089   2.217  10.912  1.5211 -1.0286 -0.5034
 5071TIP3    H236705   1.055   2.120  10.801 -0.8264 -1.1411  0.2680
 5072TIP3   OH236706   2.252   4.200  16.383  0.3951 -0.1101  0.6000
 5072TIP3    H136707   2.275   4.108  16.370  0.4832 -0.1730  1.1763
 5072TIP3    H236708   2.335   4.246  16.389  0.3580 -0.0693  0.8248
 5073TIP3   OH236709   0.101   2.087  11.519  0.1891  0.3172 -0.5076
 5073TIP3    H136710   0.123   2.163  11.573  0.1742  0.0397 -0.1106
 5073TIP3    H236711   0.146   2.014  11.561 -1.4048 -0.2570  0.2839
 5074TIP3   OH236712   2.740   2.875   1.184 -0.2854 -0.2445 -0.3678
 5074TIP3    H136713   2.645   2.870   1.193 -0.3095  1.4380  0.6105
 5074TIP3    H236714   2.773   2.806   1.243 -0.8497  1.9966  2.8220
 5075TIP3   OH236715   1.582   6.602   0.795 -0.1675 -0.4531 -0.5423
 5075TIP3    H136716   1.512   6.666   0.780 -0.0110 -0.5126 -1.5848
 5075TIP3    H236717   1.567   6.534   0.730  0.4208 -0.8363 -0.2866
 5076TIP3   OH236718   3.223   2.826   0.252 -0.0478  0.1446 -0.2863
 5076TIP3    H136719   3.190   2.750   0.301 -1.3818  1.5335  1.0699
 5076TIP3    H236720   3.209   2.802   0.160  0.3337 -1.5765  0.0714
 5077TIP3   OH236721   5.581   2.082   1.009 -0.0514  0.2494  0.1718
 5077TIP3    H136722   5.620   1.999   0.983 -1.4398 -0.3019 -0.2688
 5077TIP3    H236723   5.623   2.104   1.092 -0.5363 -1.5468  0.9486
 5078TIP3   OH236724   3.729   2.527   2.460  0.3786 -0.0986 -0.2651
 5078TIP3    H136725   3.714   2.432   2.466 -2.4975  0.1908 -1.3824
 5078TIP3    H236726   3.759   2.552   2.548 -1.5619 -1.6586  0.9227
 5079TIP3   OH236727   3.257   2.844   5.934  0.6115  0.2402 -0.2497
 5079TIP3    H136728   3.298   2.909   5.992  0.1434  0.5778 -0.2962
 5079TIP3    H236729   3.315   2.839   5.859 -1.2714  3.5367 -2.1540
 5080TIP3   OH236730   3.501   5.840   1.027 -0.1383  0.0834  0.2669
 5080TIP3    H136731   3.576   5.846   0.968  0.9979  0.0930  1.6594
 5080TIP3    H236732   3.486   5.930   1.056  0.0525 -0.0744  0.8690
 5081TIP3   OH236733   0.403   1.299  17.035 -0.2773  0.2898 -0.0500
 5081TIP3    H136734   0.496   1.310  17.056 -0.0186 -0.4711 -0.7460
 5081TIP3    H236735   0.358   1.307  17.119  0.5880 -1.1742  0.5871
 5082TIP3   OH236736   1.671   5.291   3.951  0.0683  0.2575 -0.2303
 5082TIP3    H136737   1.680   5.249   4.036 -0.6717  0.6984  0.0802
 5082TIP3    H236738   1.740   5.357   3.948 -1.7959  2.4617  1.4065
 5083TIP3   OH236739   5.985   3.419   4.821 -0.0978 -0.0117  0.7601
 5083TIP3    H136740   5.914   3.356   4.810 -1.0309  0.8502  1.6919
 5083TIP3    H236741   5.999   3.455   4.733  0.4729 -1.4846  0.2026
 5084TIP3   OH236742   6.789   1.326  15.272 -0.2729  0.1223 -0.3967
 5084TIP3    H136743   6.838   1.351  15.350 -1.5095 -0.4789  0.6243
 5084TIP3    H236744   6.699   1.355  15.291 -0.3444  1.2172 -2.1999
 5085TIP3   OH236745   3.767   3.555  12.000  0.0377  0.1298 -0.2961
 5085TIP3    H136746   3.842   3.601  12.037 -1.7618  2.2548  0.9250
 5085TIP3    H236747   3.750   3.484  12.062  0.4686  0.2185 -0.0728
 5086TIP3   OH236748   6.198   5.562   3.421 -0.5078  0.2724 -0.0616
 5086TIP3    H136749   6.207   5.568   3.516  1.0613  2.0699 -0.2416
 5086TIP3    H236750   6.222   5.650   3.390  4.1270 -1.4680 -2.3660
 5087TIP3   OH236751   5.422   5.163   2.238 -0.3079 -0.1034  0.4599
 5087TIP3    H136752   5.379   5.112   2.169  0.1191 -1.1522  0.9530
 5087TIP3    H236753   5.357   5.170   2.307  0.0594 -1.1210  0.9302
 5088TIP3   OH236754   6.626   6.722  11.465  0.1169  1.1999 -0.3560
 5088TIP3    H136755   6.591   6.782  11.399  0.7416  1.6613 -0.2760
 5088TIP3    H236756   6.718   6.709  11.439  0.0340  0.4178 -0.2702
 5089TIP3   OH236757   5.614   1.728  15.592  0.1491 -0.0506 -0.0160
 5089TIP3    H136758   5.709   1.736  15.604  0.0891 -0.9211  1.3406
 5089TIP3    H236759   5.578   1.751  15.677 -0.6789 -2.0738  0.2493
 5090TIP3   OH236760   0.058   5.036  10.886  0.2513  0.1840 -0.0599
 5090TIP3    H136761   0.105   4.952  10.888  1.0669  0.6449  1.0126
 5090TIP3    H236762   0.126   5.102  10.897 -0.0988  1.1630 -3.0010
 5091TIP3   OH236763   5.050   1.376   0.642 -0.4665  1.1953  0.1880
 5091TIP3    H136764   5.018   1.344   0.727  0.6103 -0.0567  0.1479
 5091TIP3    H236765   5.041   1.301   0.584  0.8385  1.3623 -0.2564
 5092TIP3   OH236766   0.609   1.014   4.877 -0.3961 -0.3037 -0.4417
 5092TIP3    H136767   0.560   1.094   4.898  0.2797 -0.2954  1.2637
 5092TIP3    H236768   0.558   0.972   4.808 -1.7138  0.7102 -0.1251
 5093TIP3   OH236769   4.445   2.178  15.040  0.5776  0.0429  0.8829
 5093TIP3    H136770   4.481   2.255  15.085  0.4937 -0.7678  2.4287
 5093TIP3    H236771   4.469   2.105  15.097 -2.3638 -0.6930  1.3630
 5094TIP3   OH236772   6.702   4.418  14.373 -0.1750  0.2864  0.0999
 5094TIP3    H136773   6.785   4.463  14.358 -0.9665  1.9462  0.5222
 5094TIP3    H236774   6.687   4.428  14.467 -1.2088  0.6588 -0.0982
 5095TIP3   OH236775   3.888   2.349   4.066 -0.1756  0.5119  0.0984
 5095TIP3    H136776   3.840   2.388   4.139  0.3188  0.4949  0.4296
 5095TIP3    H236777   3.828   2.284   4.030 -0.8366  1.2514 -0.1741
 5096TIP3   OH236778   0.804   0.075   1.233 -0.2925  0.2833 -0.2159
 5096TIP3    H136779   0.817  -0.020   1.223 -0.3415  0.3419 -0.8683
 5096TIP3    H236780   0.890   0.108   1.257 -0.1694  0.1324 -0.4463
 5097TIP3   OH236781   5.268   1.687  15.305  0.1057 -0.5448  0.3367
 5097TIP3    H136782   5.224   1.603  15.301 -1.0232  0.0116  0.7446
 5097TIP3    H236783   5.213   1.741  15.362  1.4615  0.0874  1.0970
 5098TIP3   OH236784   2.964   1.147  12.029  0.4582 -0.3538  0.5580
 5098TIP3    H136785   2.905   1.106  11.965 -0.7155  1.6573  0.2458
 5098TIP3    H236786   2.907   1.206  12.079  1.8473  0.0890  1.6740
 5099TIP3   OH236787   1.121   4.164  14.262  0.1585  0.0512 -0.2163
 5099TIP3    H136788   1.169   4.182  14.181  0.2345 -0.6643 -0.3378
 5099TIP3    H236789   1.188   4.137  14.324  0.1668  1.0930  0.2548
 5100TIP3   OH236790   6.117   4.716  13.228  0.0184 -0.5877  0.4882
 5100TIP3    H136791   6.207   4.691  13.206  0.4951 -0.8580  2.5543
 5100TIP3    H236792   6.068   4.634  13.227  0.4556 -0.8937  2.2085
 5101TIP3   OH236793   6.454   5.330   3.841  0.3206 -0.4055 -0.0201
 5101TIP3    H136794   6.492   5.243   3.851 -0.9290 -1.0757 -0.9646
 5101TIP3    H236795   6.387   5.335   3.910  2.5095  1.0928  2.2131
 5102TIP3   OH236796   1.558   5.785  14.504  0.1678 -0.0753  0.1049
 5102TIP3    H136797   1.490   5.795  14.570  1.0644 -1.1784  1.2462
 5102TIP3    H236798   1.530   5.841  14.432 -1.6937 -0.1350  0.7295
 5103TIP3   OH236799   4.224   2.125   5.002  0.1681 -0.4212  0.0568
 5103TIP3    H136800   4.237   2.105   5.094 -1.2944  0.2487  0.4365
 5103TIP3    H236801   4.155   2.192   5.001  0.2108 -0.3551 -1.5126
 5104TIP3   OH236802   4.815   0.375  16.237  0.5415  0.4760  0.3387
 5104TIP3    H136803   4.887   0.385  16.175  0.1676 -0.0075 -0.1798
 5104TIP3    H236804   4.817   0.282  16.261 -0.9933  0.0543 -1.0293
 5105TIP3   OH236805   2.857   2.198  16.837 -0.0010  0.0177 -0.1617
 5105TIP3    H136806   2.878   2.104  16.837  0.8085  0.1919 -0.5801
 5105TIP3    H236807   2.772   2.203  16.793  1.5275 -0.2257 -3.4544
 5106TIP3   OH236808   1.662   3.979   2.237 -0.3176  0.6167 -1.1759
 5106TIP3    H136809   1.702   4.003   2.154  0.9955  1.0858 -0.4225
 5106TIP3    H236810   1.571   3.958   2.214  0.0201  0.7314 -2.7185
 5107TIP3   OH236811   6.837   5.018   4.602  0.6954 -0.2274 -0.2742
 5107TIP3    H136812   6.907   5.027   4.666  0.0298  0.6181  0.3705
 5107TIP3    H236813   6.780   5.094   4.618 -0.3367 -0.8611 -0.7989
 5108TIP3   OH236814   6.641   1.115  11.581 -0.3603 -0.5739  0.0204
 5108TIP3    H136815   6.716   1.129  11.522  0.1117 -1.3399  0.4175
 5108TIP3    H236816   6.566   1.104  11.522 -0.4322  1.5317 -0.3653
 5109TIP3   OH236817   4.241   4.368  14.828 -0.4996  0.5315  0.4855
 5109TIP3    H136818   4.272   4.358  14.918 -0.5719  0.9138  0.5538
 5109TIP3    H236819   4.192   4.288  14.811 -0.0710  0.2357  0.6160
 5110TIP3   OH236820   0.043   0.060   1.185  0.1968  0.1385 -0.1468
 5110TIP3    H136821   0.102   0.130   1.213 -0.3905 -0.0806  1.7907
 5110TIP3    H236822   0.008   0.090   1.101 -0.1396  2.2534  0.6867
 5111TIP3   OH236823   0.661   4.015  10.973 -0.1939  0.4756  0.0721
 5111TIP3    H136824   0.711   4.057  10.903 -2.1200  0.0636 -1.6482
 5111TIP3    H236825   0.686   3.922  10.968 -0.3920  0.4328 -0.1279
 5112TIP3   OH236826   0.332   2.760  12.536 -0.4120 -0.3623 -0.0929
 5112TIP3    H136827   0.324   2.666  12.550  0.8403 -0.6676 -1.2144
 5112TIP3    H236828   0.320   2.771  12.441  0.5757  0.4587 -0.1395
 5113TIP3   OH236829   5.029   5.569   1.000 -0.2022 -0.0644  0.2733
 5113TIP3    H136830   5.101   5.533   1.052 -0.2917 -0.9319 -0.1720
 5113TIP3    H236831   5.064   5.649   0.962  1.0618 -1.1905 -1.1005
 5114TIP3   OH236832   6.338   2.434  14.290  0.0101  0.1829  0.2854
 5114TIP3    H136833   6.244   2.423  14.302  0.5779 -4.5354  2.3542
 5114TIP3    H236834   6.362   2.504  14.350 -1.9176  0.1937  1.1125
 5115TIP3   OH236835   4.151   6.511   5.104 -0.1566 -0.4604 -0.3756
 5115TIP3    H136836   4.081   6.506   5.169 -0.7792  1.2876 -0.8728
 5115TIP3    H236837   4.106   6.505   5.020  0.2691  0.6986 -0.6996
 5116TIP3   OH236838   3.762   1.405   4.930 -0.5801  0.5120 -0.0582
 5116TIP3    H136839   3.819   1.413   5.006 -2.0032 -0.1671  1.1454
 5116TIP3    H236840   3.818   1.424   4.855  1.3908 -0.7761  0.9919
 5117TIP3   OH236841   3.555   3.527   1.691  0.3834  0.6670  0.0825
 5117TIP3    H136842   3.555   3.531   1.786 -0.4995 -0.4837  0.1512
 5117TIP3    H236843   3.536   3.435   1.671 -1.0453  1.2014 -1.1910
 5118TIP3   OH236844   4.132   2.418   5.681 -0.4341 -0.0452  0.5526
 5118TIP3    H136845   4.113   2.511   5.692 -0.8739 -0.1937  1.1478
 5118TIP3    H236846   4.059   2.374   5.725 -0.2423 -0.6685  0.2547
 5119TIP3   OH236847   6.607   3.405   4.305 -0.2696  0.0900  0.2398
 5119TIP3    H136848   6.665   3.474   4.274  0.9938 -1.2710 -0.4843
 5119TIP3    H236849   6.631   3.393   4.397  1.6157 -1.4038 -0.3953
 5120TIP3   OH236850   2.273   2.506   3.072  0.1609 -0.1173  0.0368
 5120TIP3    H136851   2.259   2.543   2.985  1.4980  0.5078  0.0673
 5120TIP3    H236852   2.247   2.575   3.133  0.8499  0.0872  0.1080
 5121TIP3   OH236853   0.049   5.319  13.177  0.0792  0.5206  0.4877
 5121TIP3    H136854   0.059   5.387  13.111  0.5169 -0.5670 -0.6075
 5121TIP3    H236855   0.073   5.238  13.132 -2.0265 -0.6071  1.2417
 5122TIP3   OH236856   5.040   1.200   0.427  0.5611  0.0857  0.2170
 5122TIP3    H136857   4.977   1.174   0.359  1.0880 -1.1622  0.1682
 5122TIP3    H236858   5.109   1.246   0.379 -0.1234  1.1502  0.2232
 5123TIP3   OH236859   4.369   4.485  15.612  0.5254 -0.3446 -0.0962
 5123TIP3    H136860   4.346   4.472  15.704 -1.4907  0.4553 -0.4398
 5123TIP3    H236861   4.326   4.566  15.588  1.6395 -0.1470 -1.5786
 5124TIP3   OH236862   2.197   0.251  13.093  0.4150 -0.0210 -0.7572
 5124TIP3    H136863   2.184   0.259  13.188  3.3680 -0.5153 -0.2080
 5124TIP3    H236864   2.112   0.223  13.060 -1.0074  1.1521  1.5836
 5125TIP3   OH236865   5.843   3.744  11.568 -0.0318 -0.6118 -0.3858
 5125TIP3    H136866   5.901   3.809  11.530 -2.6353  1.4159 -1.2004
 5125TIP3    H236867   5.889   3.712  11.645  2.0169  1.0349 -0.8547
 5126TIP3   OH236868   1.169   1.723  16.103  0.1338  0.5016 -0.2863
 5126TIP3    H136869   1.094   1.670  16.128 -1.0331  0.5315 -3.2169
 5126TIP3    H236870   1.245   1.669  16.121 -0.8796 -1.2078 -0.9180
 5127TIP3   OH236871   0.691   1.933   0.064  0.1919 -0.3159 -0.5066
 5127TIP3    H136872   0.732   1.853   0.031  0.5876 -1.0600  1.6183
 5127TIP3    H236873   0.738   2.004   0.019  0.9821 -1.2327 -1.1816
 5128TIP3   OH236874   2.745   4.621  13.206  0.5314 -0.1448 -0.6757
 5128TIP3    H136875   2.734   4.654  13.117 -0.1470 -0.1055 -0.5775
 5128TIP3    H236876   2.720   4.694  13.263  1.9513  0.1829 -0.4336
 5129TIP3   OH236877   4.282   4.340   5.051  0.1347  0.1672  0.6386
 5129TIP3    H136878   4.244   4.254   5.070  0.2215 -0.1829 -0.6486
 5129TIP3    H236879   4.305   4.336   4.958  2.5014  0.6712  1.1297
 5130TIP3   OH236880   0.793   1.939  13.361  0.7924  0.3984 -0.0074
 5130TIP3    H136881   0.789   1.942  13.266 -1.0044 -2.6119 -0.1508
 5130TIP3    H236882   0.866   1.881  13.381 -0.2712 -0.8921  0.2992
 5131TIP3   OH236883   6.476   5.257   1.891 -0.4776 -0.0547 -0.1727
 5131TIP3    H136884   6.543   5.203   1.932 -1.3436 -0.0660  1.3073
 5131TIP3    H236885   6.439   5.201   1.822  0.0076 -0.5844 -0.0099
 5132TIP3   OH236886   4.111   5.639  13.827 -0.0856  0.3510 -0.3573
 5132TIP3    H136887   4.084   5.555  13.791 -1.8885  0.5371  0.4945
 5132TIP3    H236888   4.174   5.616  13.896  3.0164 -0.0328 -3.0655
 5133TIP3   OH236889   2.004   2.957   3.422 -0.1647 -0.2213  0.3520
 5133TIP3    H136890   1.947   3.011   3.368 -0.4659  0.0582  0.9435
 5133TIP3    H236891   2.092   2.989   3.402 -0.3644  0.7521  0.9728
 5134TIP3   OH236892   5.157   2.113   5.964 -0.4264 -0.2154  0.1153
 5134TIP3    H136893   5.117   2.172   6.028 -0.0296 -0.5394  0.6673
 5134TIP3    H236894   5.234   2.160   5.933  0.2079 -0.6676  0.9745
 5135TIP3   OH236895   3.624   0.796   2.733 -0.2098 -0.1552  0.0389
 5135TIP3    H136896   3.644   0.779   2.825  0.0728 -0.5117 -0.0850
 5135TIP3    H236897   3.644   0.714   2.688 -0.0041  0.1231 -0.3927
 5136TIP3   OH236898   1.931   6.022   5.970  0.1014  0.2867  0.0481
 5136TIP3    H136899   1.917   6.059   6.057 -0.6448  0.0600  0.0325
 5136TIP3    H236900   2.024   6.001   5.968 -0.2535 -1.7224  1.6124
 5137TIP3   OH236901   0.758   5.353   3.138 -0.2883 -0.3417  0.5610
 5137TIP3    H136902   0.706   5.385   3.065  0.2478 -0.2600  0.2056
 5137TIP3    H236903   0.716   5.270   3.163  0.0217 -0.8090 -0.4095
 5138TIP3   OH236904   4.193   5.027  14.836 -0.0496 -0.1204 -0.0200
 5138TIP3    H136905   4.201   5.122  14.849 -0.8163 -0.1909  1.1061
 5138TIP3    H236906   4.124   5.000  14.897  0.4191 -1.4622 -0.0481
 5139TIP3   OH236907   3.098   3.756   4.257 -0.1105 -0.2322  0.6936
 5139TIP3    H136908   3.131   3.831   4.307 -1.2777  1.2424 -0.6447
 5139TIP3    H236909   3.046   3.706   4.321  0.7499  0.0348  1.6310
 5140TIP3   OH236910   2.980   5.941  14.886 -0.4152 -0.0422  0.0320
 5140TIP3    H136911   2.982   5.852  14.919  0.7697 -0.2156 -0.4751
 5140TIP3    H236912   2.887   5.965  14.887 -0.6492 -0.9336  1.0516
 5141TIP3   OH236913   3.164   1.772   1.892  0.2294 -0.3399  0.1438
 5141TIP3    H136914   3.069   1.787   1.893  0.1917 -0.4020 -1.2225
 5141TIP3    H236915   3.181   1.731   1.807  1.9408  2.9211 -1.2798
 5142TIP3   OH236916   4.864   5.125  16.072  0.1271  0.7980 -0.8143
 5142TIP3    H136917   4.843   5.157  16.160  0.0627  0.5213 -0.7287
 5142TIP3    H236918   4.947   5.079  16.081 -1.3738 -1.9951 -0.2319
 5143TIP3   OH236919   1.699   3.066   5.567  0.1444 -0.4740  0.6067
 5143TIP3    H136920   1.640   3.133   5.603  0.6117  0.8245 -0.9128
 5143TIP3    H236921   1.783   3.084   5.608  0.6846  1.0258 -0.9982
 5144TIP3   OH236922   1.541   5.773  12.466  0.0313 -0.3468 -0.0509
 5144TIP3    H136923   1.544   5.760  12.371  0.7460  1.7220 -0.3607
 5144TIP3    H236924   1.458   5.735  12.493 -0.3752 -0.6043 -1.5745
 5145TIP3   OH236925   4.766   5.141   4.436 -0.4077  0.5110 -0.7148
 5145TIP3    H136926   4.718   5.063   4.410 -1.8576  0.9255  0.5363
 5145TIP3    H236927   4.817   5.166   4.359 -1.9854 -0.1331 -2.0064
 5146TIP3   OH236928   1.307   3.821   4.907 -0.2443  0.3789  0.0024
 5146TIP3    H136929   1.217   3.790   4.908 -0.2318  0.2612  2.0819
 5146TIP3    H236930   1.307   3.893   4.845 -1.7767  0.3837 -0.0335
 5147TIP3   OH236931   1.427   1.217  10.235 -0.3047 -0.4731  0.3200
 5147TIP3    H136932   1.485   1.238  10.161 -0.4430  0.1109  0.3780
 5147TIP3    H236933   1.474   1.148  10.282  0.4634  0.1520  0.4965
 5148TIP3   OH236934   2.815   4.348   0.865 -0.3454 -0.2382 -0.0654
 5148TIP3    H136935   2.775   4.428   0.900 -3.6239 -1.4291 -0.7566
 5148TIP3    H236936   2.767   4.277   0.907 -0.6317 -1.7800 -2.8005
 5149TIP3   OH236937   6.688   6.490  16.324  0.1895 -0.0566 -0.5575
 5149TIP3    H136938   6.618   6.551  16.346  0.4260 -0.2688  0.8905
 5149TIP3    H236939   6.758   6.545  16.288  0.0541  0.4188 -0.0990
 5150TIP3   OH236940   0.466   6.506   3.057 -0.2683  0.2470 -0.6159
 5150TIP3    H136941   0.495   6.477   2.970  0.2852  1.4095 -0.8360
 5150TIP3    H236942   0.497   6.437   3.116 -0.7846 -0.6322 -1.3460
 5151TIP3   OH236943   5.339   3.816   2.245  0.0558  0.4805  0.2506
 5151TIP3    H136944   5.254   3.839   2.283  0.2866  2.9392 -0.5318
 5151TIP3    H236945   5.399   3.814   2.320 -0.3704  0.4266  0.5963
 5152TIP3   OH236946   4.651   1.631   0.578 -0.4464 -0.1341 -0.1369
 5152TIP3    H136947   4.592   1.706   0.577 -1.1683 -0.6837 -1.6055
 5152TIP3    H236948   4.690   1.632   0.665  0.0963  2.3306 -0.3413
 5153TIP3   OH236949   6.627   4.723  13.919  1.0059 -0.0575 -0.4430
 5153TIP3    H136950   6.643   4.805  13.873  0.8439  0.7817  0.9183
 5153TIP3    H236951   6.532   4.717  13.925  1.0237 -0.1702 -0.2522
 5154TIP3   OH236952   3.052   0.892   2.958 -0.2082  0.2737  0.4293
 5154TIP3    H136953   2.990   0.831   2.917 -1.7519  2.4605 -0.6713
 5154TIP3    H236954   3.066   0.960   2.892  3.1425  0.0985  0.7826
 5155TIP3   OH236955   2.276   2.122   0.556 -0.1986 -0.3092  0.1522
 5155TIP3    H136956   2.343   2.174   0.601 -0.2926 -0.3747  0.3668
 5155TIP3    H236957   2.237   2.183   0.493 -2.3051  0.7543  2.3578
 5156TIP3   OH236958   6.346   1.427  14.559 -0.1516  0.1561  0.0769
 5156TIP3    H136959   6.362   1.335  14.577  0.6835  0.2734 -0.0505
 5156TIP3    H236960   6.343   1.434  14.463  1.2182  0.4802  0.0349
 5157TIP3   OH236961   5.235   1.403   2.809 -0.2502 -0.0552  0.3665
 5157TIP3    H136962   5.202   1.477   2.758 -0.0598 -0.0573  0.2371
 5157TIP3    H236963   5.236   1.330   2.747 -0.8847 -0.2842  0.6204
 5158TIP3   OH236964   1.410   2.778   4.503 -0.2090  0.1850 -0.0047
 5158TIP3    H136965   1.437   2.686   4.498  2.2338  0.8285  0.3005
 5158TIP3    H236966   1.440   2.807   4.588 -2.9156  0.7603  0.8501
 5159TIP3   OH236967   2.474   4.537   4.813 -0.5784  0.0997  0.3885
 5159TIP3    H136968   2.420   4.615   4.805  1.1938  1.3827  0.5029
 5159TIP3    H236969   2.559   4.569   4.842 -0.1506 -2.0048  1.6831
 5160TIP3   OH236970   0.150   6.493   4.206  0.2452 -0.1360 -0.1618
 5160TIP3    H136971   0.105   6.551   4.267 -1.3399 -0.6024 -0.8246
 5160TIP3    H236972   0.125   6.524   4.119  1.9670  0.1368 -0.5888
 5161TIP3   OH236973   2.450   0.044  11.337  0.3178 -0.8657  0.5294
 5161TIP3    H136974   2.466   0.037  11.243 -0.4134 -0.3920  0.3566
 5161TIP3    H236975   2.473   0.135  11.358 -1.8722 -0.1836  0.2915
 5162TIP3   OH236976   6.330   4.602   2.103 -0.0292  0.4074  0.1449
 5162TIP3    H136977   6.400   4.653   2.062 -0.3380 -0.1438 -1.1211
 5162TIP3    H236978   6.313   4.646   2.186 -0.9688  2.9955 -1.3030
 5163TIP3   OH236979   5.402   6.188  13.977  0.3706  0.1247  0.0902
 5163TIP3    H136980   5.497   6.201  13.988  0.4510 -0.0575 -0.3350
 5163TIP3    H236981   5.389   6.095  13.997  0.5713 -0.2914 -1.5737
 5164TIP3   OH236982   4.827   3.797  13.059 -0.0712  0.1111 -0.3972
 5164TIP3    H136983   4.917   3.773  13.034  0.3227  0.4522  0.6224
 5164TIP3    H236984   4.832   3.891  13.076 -0.4847  0.0220  0.2205
 5165TIP3   OH236985   5.816   2.110   3.515 -0.5263 -0.4227 -0.4841
 5165TIP3    H136986   5.741   2.083   3.568 -0.0048 -1.1915 -0.1231
 5165TIP3    H236987   5.808   2.060   3.434 -0.7425 -0.0301 -0.7113
 5166TIP3   OH236988   2.808   6.437   1.020 -0.0962  0.2360 -0.6285
 5166TIP3    H136989   2.874   6.368   1.010 -0.1176  0.0500  0.3368
 5166TIP3    H236990   2.799   6.447   1.115 -0.4252  1.2562 -0.7550
 5167TIP3   OH236991   0.358   4.706  11.484  0.0646 -0.5938  0.0878
 5167TIP3    H136992   0.427   4.720  11.420 -1.9146  4.4699 -1.3470
 5167TIP3    H236993   0.377   4.768  11.555 -3.1020  1.4124 -0.6326
 5168TIP3   OH236994   3.132   4.172  17.042 -0.1732  0.1278  0.3534
 5168TIP3    H136995   3.219   4.176  17.002 -0.7621  0.2401 -0.9510
 5168TIP3    H236996   3.107   4.263  17.055 -0.4319  0.1191 -0.0512
 5169TIP3   OH236997   2.710   1.539   2.664  0.0956 -0.3563  0.0030
 5169TIP3    H136998   2.764   1.508   2.591  0.2757  2.5627 -1.2808
 5169TIP3    H236999   2.632   1.485   2.661  0.6695 -1.1602 -1.5518
 5170TIP3   OH237000   2.595   6.176   1.276 -0.1507 -0.1078 -0.0201
 5170TIP3    H137001   2.689   6.193   1.281 -0.0106 -1.1217  1.3298
 5170TIP3    H237002   2.554   6.253   1.315  0.0463  0.7063 -1.3504
 5171TIP3   OH237003   4.878   4.274  16.056 -0.2365  0.0589  0.1791
 5171TIP3    H137004   4.890   4.180  16.048 -0.6888 -0.0110  0.2928
 5171TIP3    H237005   4.868   4.305  15.966 -0.7859 -0.0991  0.1845
 5172TIP3   OH237006   1.760   4.245   4.244 -0.8969 -0.6565 -0.1512
 5172TIP3    H137007   1.757   4.163   4.292 -0.5645 -0.2656  0.5518
 5172TIP3    H237008   1.674   4.285   4.258 -0.4420 -0.0288  1.0771
 5173TIP3   OH237009   3.013   2.721  16.869  0.1860 -0.4049  0.3190
 5173TIP3    H137010   2.949   2.727  16.940  1.8522 -1.6233  2.0284
 5173TIP3    H237011   3.011   2.807  16.827 -2.7621 -0.5002  0.0426
 5174TIP3   OH237012   4.612   6.245  13.606 -0.2619 -0.5951  0.3683
 5174TIP3    H137013   4.693   6.244  13.555 -0.1253 -1.0422  0.5921
 5174TIP3    H237014   4.591   6.153  13.622 -0.1306 -0.4686  1.3720
 5175TIP3   OH237015   5.414   5.730   3.390  0.1790 -0.1303 -0.6836
 5175TIP3    H137016   5.331   5.771   3.415 -1.2545 -2.9777 -0.3763
 5175TIP3    H237017   5.394   5.684   3.309  1.9900  0.4955 -1.5361
 5176TIP3   OH237018   4.577   1.577  10.225 -0.2262 -0.4134 -0.3158
 5176TIP3    H137019   4.597   1.484  10.220 -1.5296 -0.8678  1.5541
 5176TIP3    H237020   4.646   1.614  10.280 -1.2439 -0.8970  1.3856
 5177TIP3   OH237021   0.975   3.835   3.091  0.1933  0.3075  0.0649
 5177TIP3    H137022   1.037   3.765   3.111  0.3696 -0.1432 -1.9475
 5177TIP3    H237023   0.890   3.792   3.087  0.1746  0.3758 -0.2736
 5178TIP3   OH237024   4.540   4.278  15.565 -0.5621 -0.1104  0.6123
 5178TIP3    H137025   4.615   4.315  15.518 -0.3384 -0.1343  0.9521
 5178TIP3    H237026   4.471   4.344  15.554 -1.0807 -0.9024 -1.2663
 5179TIP3   OH237027   4.781   5.826  12.015 -0.2199 -0.2402 -0.0370
 5179TIP3    H137028   4.693   5.849  11.986 -0.2793 -0.6098 -0.1507
 5179TIP3    H237029   4.837   5.894  11.977 -0.3819 -0.3413 -0.4634
 5180TIP3   OH237030   6.632   3.289  13.046  0.2180  0.0120  0.1927
 5180TIP3    H137031   6.726   3.309  13.046  0.1284  0.4474  0.0351
 5180TIP3    H237032   6.620   3.232  13.122  0.7847 -0.9094 -0.3831
 5181TIP3   OH237033   5.854   1.508  15.185 -0.4255  0.1699  0.1005
 5181TIP3    H137034   5.806   1.449  15.244 -0.7745 -1.6171 -1.8450
 5181TIP3    H237035   5.786   1.541  15.125  0.3789 -0.7451 -1.3786
 5182TIP3   OH237036   5.982   0.071   3.396 -0.1324  0.5848 -0.3724
 5182TIP3    H137037   6.017  -0.001   3.343  1.5272  0.6635  0.5377
 5182TIP3    H237038   5.917   0.029   3.453 -0.4441  0.1432 -1.0355
 5183TIP3   OH237039   1.017   1.959   3.020 -0.0349 -0.0555  0.8071
 5183TIP3    H137040   1.064   1.995   3.095  1.2053  1.0289 -0.4258
 5183TIP3    H237041   1.075   1.892   2.985 -0.8518 -0.9405  1.1158
 5184TIP3   OH237042   2.717   5.884  13.598 -0.6526 -0.8725  0.1072
 5184TIP3    H137043   2.758   5.833  13.528 -2.9275 -2.8644  0.1096
 5184TIP3    H237044   2.775   5.872  13.673  1.4839  0.7641 -1.1842
 5185TIP3   OH237045   3.795   2.708   1.229  0.2704 -0.0769 -0.1991
 5185TIP3    H137046   3.811   2.803   1.229  0.7225 -0.1138  1.4178
 5185TIP3    H237047   3.710   2.698   1.187  0.8859  0.8933 -1.7716
 5186TIP3   OH237048   2.337   3.639  14.995  0.3896  0.0588  0.3206
 5186TIP3    H137049   2.418   3.598  15.027  0.1940 -0.1538  0.5544
 5186TIP3    H237050   2.362   3.728  14.972  0.8838 -0.2563 -0.4263
 5187TIP3   OH237051   0.317   3.402   2.026 -0.1527 -0.0386 -0.2793
 5187TIP3    H137052   0.400   3.373   1.989  2.3584  1.5212  3.4788
 5187TIP3    H237053   0.315   3.496   2.009 -2.0151 -0.2874 -1.6772
 5188TIP3   OH237054   2.735   2.067   2.266 -0.4173  0.1500 -0.5932
 5188TIP3    H137055   2.775   1.983   2.287 -1.7743 -0.1925  0.8045
 5188TIP3    H237056   2.719   2.108   2.351 -2.4671  0.4938 -1.0921
 5189TIP3   OH237057   5.278   2.891  14.853 -0.5437  0.2686  0.1942
 5189TIP3    H137058   5.358   2.855  14.891 -0.8684 -1.2512 -0.4891
 5189TIP3    H237059   5.308   2.948  14.782 -0.0569  0.0536  0.2255
 5190TIP3   OH237060   3.748   1.363   3.462  0.1903  0.0022 -0.3747
 5190TIP3    H137061   3.703   1.278   3.459  1.9332 -0.9488 -1.6623
 5190TIP3    H237062   3.684   1.422   3.501 -1.0216 -1.9316  0.7764
 5191TIP3   OH237063   5.390   4.447  13.603  0.0596 -0.1397 -0.2859
 5191TIP3    H137064   5.321   4.436  13.668  1.0872 -2.4552  0.5238
 5191TIP3    H237065   5.447   4.371  13.615  2.0334  0.9889 -1.8042
 5192TIP3   OH237066   1.837   0.757  12.208  0.0490  0.3209  0.1976
 5192TIP3    H137067   1.851   0.813  12.284 -0.7201 -0.6722  1.1021
 5192TIP3    H237068   1.805   0.675  12.245 -0.9281  0.0212 -1.2481
 5193TIP3   OH237069   3.011   3.469  16.812 -0.1044 -0.5534 -0.0175
 5193TIP3    H137070   2.967   3.553  16.821  1.9567  0.6410 -0.5958
 5193TIP3    H237071   3.069   3.479  16.737  3.0328 -1.1046  2.0861
 5194TIP3   OH237072   0.383   0.896   2.252 -0.4344 -0.3736  0.0867
 5194TIP3    H137073   0.403   0.901   2.158  1.5618 -0.4346  0.4590
 5194TIP3    H237074   0.291   0.922   2.258 -0.4270  0.2984 -1.8225
 5195TIP3   OH237075   3.888   6.451  11.805  0.3428 -0.2325  0.1813
 5195TIP3    H137076   3.955   6.513  11.836  0.0787 -0.9229  2.3115
 5195TIP3    H237077   3.924   6.416  11.723  0.7784  2.2229 -0.7708
 5196TIP3   OH237078   5.238   1.485   3.074  0.9368  0.1594  0.1516
 5196TIP3    H137079   5.174   1.552   3.053  0.9287 -0.2243 -1.1499
 5196TIP3    H237080   5.254   1.440   2.991  0.4893 -1.8417  1.0742
 5197TIP3   OH237081   2.188   0.311  16.569  0.0185 -0.4716 -0.6879
 5197TIP3    H137082   2.231   0.355  16.642  0.3708 -1.7960 -0.0689
 5197TIP3    H237083   2.162   0.382  16.510 -0.8507  0.6983  1.0091
 5198TIP3   OH237084   4.682   4.153  11.151  0.3311  0.1346  0.1620
 5198TIP3    H137085   4.741   4.199  11.211  1.8708 -0.1342 -1.0737
 5198TIP3    H237086   4.734   4.080  11.117 -1.4151 -1.3627  0.5580
 5199TIP3   OH237087   1.151   1.331   1.330 -0.1964 -0.2293 -0.1773
 5199TIP3    H137088   1.164   1.308   1.238 -1.1511 -1.5500 -0.0143
 5199TIP3    H237089   1.099   1.411   1.328 -2.4817 -1.6305 -0.8494
 5200TIP3   OH237090   5.438   4.636  13.878 -1.0046 -0.3239  0.2668
 5200TIP3    H137091   5.466   4.545  13.882 -2.3470 -0.8079 -0.5563
 5200TIP3    H237092   5.506   4.685  13.925  1.2475 -1.3831 -1.6859
 5201TIP3   OH237093   6.365   2.493   3.543 -0.1475  0.7024 -0.2366
 5201TIP3    H137094   6.356   2.583   3.513 -1.9841  0.2737 -1.0983
 5201TIP3    H237095   6.344   2.496   3.636 -0.3591  1.1373 -0.2988
 5202TIP3   OH237096   1.724   0.242   0.947 -0.1822  0.2867 -0.1010
 5202TIP3    H137097   1.723   0.216   1.039 -0.2243  0.3414 -0.0862
 5202TIP3    H237098   1.807   0.289   0.936 -0.2805  0.4781 -0.0363
 5203TIP3   OH237099   3.446   6.259   4.692  0.1554  0.1675  0.8294
 5203TIP3    H137100   3.423   6.166   4.691  3.8880 -0.8931  0.2923
 5203TIP3    H237101   3.422   6.290   4.604  2.4478 -1.4207 -0.4597
 5204TIP3   OH237102   1.254   2.865  16.847 -0.2565  0.6967 -0.3716
 5204TIP3    H137103   1.297   2.942  16.886  0.2299  0.6925 -0.8913
 5204TIP3    H237104   1.323   2.821  16.799  0.2813 -1.7918  2.3894
 5205TIP3   OH237105   5.544   4.838  11.014 -0.2332  0.1609  0.2992
 5205TIP3    H137106   5.507   4.782  10.945 -2.0199  2.3624 -0.6600
 5205TIP3    H237107   5.467   4.879  11.054  0.9969  1.8073  1.0557
 5206TIP3   OH237108   6.085   5.921   4.977  0.3138 -0.2078  0.3687
 5206TIP3    H137109   6.140   5.858   4.931 -0.2947 -0.4468 -0.0392
 5206TIP3    H237110   6.104   6.005   4.936  0.0019 -0.3716 -0.1208
 5207TIP3   OH237111   4.222   4.872   2.110  0.0915 -0.0451  0.2321
 5207TIP3    H137112   4.189   4.962   2.120 -2.0068 -0.3367 -2.7908
 5207TIP3    H237113   4.169   4.835   2.039  0.0630 -4.1076  2.1361
 5208TIP3   OH237114   3.853   5.523   0.935  0.0648  0.1962  0.1944
 5208TIP3    H137115   3.775   5.501   0.987 -0.5087  0.5074 -0.5311
 5208TIP3    H237116   3.837   5.612   0.904  0.4987  0.0814 -0.3562
 5209TIP3   OH237117   4.284   3.677  12.098 -0.7071 -0.1736 -0.2991
 5209TIP3    H137118   4.288   3.613  12.169 -0.3603 -0.1548 -0.2993
 5209TIP3    H237119   4.303   3.761  12.141 -1.4604 -0.0267 -0.2430
 5210TIP3   OH237120   0.245   5.700   5.459 -0.2706  0.0064 -0.6277
 5210TIP3    H137121   0.255   5.775   5.400  1.6253 -0.5177 -1.0317
 5210TIP3    H237122   0.334   5.666   5.470 -0.6530 -0.3610  1.9923
 5211TIP3   OH237123   3.634   0.587  12.050  0.5820 -0.2328 -0.0889
 5211TIP3    H137124   3.706   0.635  12.008 -0.3260  0.9283 -0.3794
 5211TIP3    H237125   3.657   0.587  12.143  1.1635 -0.2404 -0.2266
 5212TIP3   OH237126   5.400   5.387   3.398 -0.2280  0.0084 -0.0101
 5212TIP3    H137127   5.401   5.450   3.325  1.1276  2.8632  2.2607
 5212TIP3    H237128   5.309   5.357   3.403 -0.4552  0.0531 -2.5160
 5213TIP3   OH237129   4.484   6.256  12.158  0.2839 -0.1368 -0.1608
 5213TIP3    H137130   4.524   6.309  12.089  1.6161 -1.2573 -0.2946
 5213TIP3    H237131   4.480   6.315  12.233  2.2311  0.0447 -0.1476
 5214TIP3   OH237132   3.211   2.361  15.289 -0.1344 -0.3140 -0.3555
 5214TIP3    H137133   3.162   2.342  15.209  0.9472 -1.8889 -0.6960
 5214TIP3    H237134   3.302   2.339  15.267  0.4682  0.8794  0.7851
 5215TIP3   OH237135   4.783   4.211   0.346 -0.5075 -0.3440  0.5873
 5215TIP3    H137136   4.698   4.169   0.336 -0.4462 -0.1195 -1.3164
 5215TIP3    H237137   4.769   4.301   0.319  0.0829  0.0106  1.4357
 5216TIP3   OH237138   4.987   5.619  11.096 -0.4713 -0.1380 -0.4106
 5216TIP3    H137139   4.954   5.684  11.034  0.8555 -1.0005 -2.1385
 5216TIP3    H237140   5.055   5.572  11.047  0.4313 -1.0955  1.6309
 5217TIP3   OH237141   1.170   0.499  16.526 -0.8534 -0.2937 -0.7580
 5217TIP3    H137142   1.152   0.454  16.443 -2.1124  0.1224 -0.7365
 5217TIP3    H237143   1.191   0.430  16.588  1.5632 -0.5276 -1.7364
 5218TIP3   OH237144   6.009   3.861   2.204  0.2499  0.0352 -0.2566
 5218TIP3    H137145   6.010   3.833   2.113 -2.6596 -2.6543  0.3589
 5218TIP3    H237146   6.078   3.810   2.246 -0.8691 -1.6337 -0.3462
 5219TIP3   OH237147   2.837   0.028  14.782  0.2172  0.1705 -0.1897
 5219TIP3    H137148   2.815   0.099  14.841 -0.5474  0.1331 -0.4203
 5219TIP3    H237149   2.931   0.015  14.794 -0.0755 -0.4862  1.7260
 5220TIP3   OH237150   1.666   2.716  16.423  0.0173 -0.8586  0.3517
 5220TIP3    H137151   1.760   2.730  16.414  0.1403 -1.2961  0.9048
 5220TIP3    H237152   1.635   2.708  16.333  0.5926 -1.2239  0.1747
 5221TIP3   OH237153   1.232   0.984   5.369  0.0647  0.0323  0.1755
 5221TIP3    H137154   1.241   1.053   5.303  1.0611 -1.5658 -1.4479
 5221TIP3    H237155   1.246   1.029   5.452 -1.6890  2.2104 -0.6139
 5222TIP3   OH237156   2.923   4.355   4.265 -0.3602 -0.2898 -0.1574
 5222TIP3    H137157   2.947   4.295   4.336  1.1757  0.8004  0.2913
 5222TIP3    H237158   2.994   4.346   4.201 -0.9898 -0.1865 -0.8865
 5223TIP3   OH237159   1.602   4.797   5.937 -0.8583  0.3451  0.5918
 5223TIP3    H137160   1.565   4.718   5.897 -1.1181  0.6106  0.2985
 5223TIP3    H237161   1.610   4.775   6.030  0.3707 -0.5192  0.3118
 5224TIP3   OH237162   2.102   5.503  10.661  0.1780 -0.4992  0.6909
 5224TIP3    H137163   2.062   5.546  10.736  1.6305 -0.8685  1.7211
 5224TIP3    H237164   2.194   5.529  10.665  0.1078  0.2511 -1.5389
 5225TIP3   OH237165   4.486   4.309  12.947 -0.0472 -0.0919  0.1996
 5225TIP3    H137166   4.506   4.397  12.915  0.0835 -0.3001 -0.2978
 5225TIP3    H237167   4.561   4.256  12.919 -1.2809 -0.9178 -1.7618
 5226TIP3   OH237168   0.850   1.599  14.773 -0.1618  0.3552  1.0931
 5226TIP3    H137169   0.760   1.582  14.746  0.4576  0.1217 -0.9358
 5226TIP3    H237170   0.853   1.694  14.788 -0.7469  0.3542  1.2495
 5227TIP3   OH237171   2.375   5.071  12.211 -0.8300 -0.5620 -0.0621
 5227TIP3    H137172   2.410   5.158  12.233 -0.7570  0.1250 -2.6355
 5227TIP3    H237173   2.448   5.011  12.229 -1.2049 -0.2997  2.7156
 5228TIP3   OH237174   3.290   6.675  12.703  0.4132  0.8211 -0.4678
 5228TIP3    H137175   3.218   6.639  12.651  0.9869 -0.2318 -0.5784
 5228TIP3    H237176   3.334   6.735  12.643  0.9140 -0.1892 -1.1449
 5229TIP3   OH237177   0.805   5.181  10.694  0.1990  0.3764 -0.2516
 5229TIP3    H137178   0.861   5.249  10.655 -0.1317  0.3866 -0.7164
 5229TIP3    H237179   0.859   5.142  10.763  0.2993  1.2899  0.1977
 5230TIP3   OH237180   3.788   2.500   5.806  0.3477  0.0940  0.2333
 5230TIP3    H137181   3.807   2.511   5.899  1.2414 -0.6445  0.1491
 5230TIP3    H237182   3.820   2.581   5.765 -0.6576  0.7116  0.6367
 5231TIP3   OH237183   6.191   4.046  14.441 -0.3011 -0.1057 -0.4110
 5231TIP3    H137184   6.173   3.960  14.403 -0.0976 -0.5329  0.4201
 5231TIP3    H237185   6.277   4.036  14.484 -0.0007  0.6858 -0.8064
 5232TIP3   OH237186   5.595   6.539  13.651  0.6645 -0.3264  0.3517
 5232TIP3    H137187   5.685   6.556  13.622  0.7083  0.1475  0.7686
 5232TIP3    H237188   5.541   6.595  13.596  0.5408 -1.2738 -0.5220
 5233TIP3   OH237189   5.215   5.719  13.975 -0.4590 -0.0266 -0.1594
 5233TIP3    H137190   5.130   5.719  14.019  0.0977 -1.2818  0.9650
 5233TIP3    H237191   5.263   5.647  14.015  0.6850 -0.1612 -1.6780
 5234TIP3   OH237192   1.615   0.501   5.269  0.2990 -0.1359  0.1050
 5234TIP3    H137193   1.702   0.460   5.259  0.8612  1.1701 -0.6406
 5234TIP3    H237194   1.580   0.504   5.180 -1.5080 -2.6149  0.6256
 5235TIP3   OH237195   4.755   5.504   5.221 -0.6674 -0.2743  0.0484
 5235TIP3    H137196   4.682   5.523   5.280 -0.7688 -1.0704  0.1856
 5235TIP3    H237197   4.832   5.537   5.268 -0.5495 -2.2173  1.3436
 5236TIP3   OH237198   3.006   5.449  16.890 -0.1970 -0.1145 -0.1503
 5236TIP3    H137199   2.932   5.501  16.860  0.1759  0.4887 -0.0452
 5236TIP3    H237200   3.046   5.415  16.810 -0.3868 -0.1649 -0.2228
 5237TIP3   OH237201   2.075   5.807   2.389 -0.6163 -1.1507 -0.2141
 5237TIP3    H137202   2.167   5.835   2.392 -1.2959  1.3602 -0.6880
 5237TIP3    H237203   2.053   5.808   2.296 -1.7816  0.7315  0.0441
 5238TIP3   OH237204   5.384   0.698   0.886 -0.8991 -0.1132  0.2984
 5238TIP3    H137205   5.373   0.793   0.886  0.0119  0.0037  0.8427
 5238TIP3    H237206   5.332   0.668   0.960 -2.1769 -0.1822 -0.5972
 5239TIP3   OH237207   4.052   3.898   5.710 -0.5800 -0.2140  0.4018
 5239TIP3    H137208   4.105   3.897   5.789 -0.7719 -0.9305  0.5322
 5239TIP3    H237209   4.094   3.962   5.653  0.9376 -1.3490  0.1680
 5240TIP3   OH237210   4.076   4.017  16.597 -0.1601 -0.8524 -0.2997
 5240TIP3    H137211   4.152   4.068  16.626  0.6542 -0.3608 -3.0256
 5240TIP3    H237212   4.100   3.926  16.614 -0.6546 -0.5558  2.4390
 5241TIP3   OH237213   3.708   5.868   3.626 -0.4139  0.2725  0.0573
 5241TIP3    H137214   3.714   5.832   3.714 -1.5482 -1.7503 -0.6353
 5241TIP3    H237215   3.798   5.867   3.593 -0.0940  0.3261  0.9117
 5242TIP3   OH237216   4.286   4.332   4.779 -0.0979 -0.1653  0.7936
 5242TIP3    H137217   4.235   4.396   4.730  0.0721  0.1266  0.9929
 5242TIP3    H237218   4.361   4.313   4.723 -1.0019 -1.4677 -0.0139
 5243TIP3   OH237219   1.591   6.811   4.549  0.0368  0.1983  0.1083
 5243TIP3    H137220   1.685   6.811   4.533  0.1243 -2.0379  0.2191
 5243TIP3    H237221   1.581   6.859   4.631  1.0717  0.5074  0.0740
 5244TIP3   OH237222   4.774   6.025  11.621  0.2883  0.4324 -0.3606
 5244TIP3    H137223   4.762   5.930  11.619  0.9191  0.3547 -1.3883
 5244TIP3    H237224   4.816   6.045  11.537  0.3081  1.6002 -0.0845
 5245TIP3   OH237225   6.802   1.703   5.064  0.5109 -0.1106 -0.1855
 5245TIP3    H137226   6.791   1.629   5.005 -0.8609 -0.2327  0.1909
 5245TIP3    H237227   6.758   1.677   5.144 -0.3988  1.2765 -0.1987
 5246TIP3   OH237228   2.307   2.328  14.169 -0.0376 -0.1878 -0.3752
 5246TIP3    H137229   2.334   2.249  14.121  0.9996 -0.7387  1.0243
 5246TIP3    H237230   2.312   2.398  14.104  0.7074 -1.0067 -1.2421
 5247TIP3   OH237231   6.796   6.741   1.434  0.1500  0.3982  0.6563
 5247TIP3    H137232   6.772   6.833   1.440  0.8445  0.7404 -1.3647
 5247TIP3    H237233   6.890   6.741   1.416 -0.2531 -0.5573 -1.8720
 5248TIP3   OH237234   6.395   4.318   5.327 -0.5303  0.3750 -0.1682
 5248TIP3    H137235   6.341   4.387   5.290 -0.9207  0.3696  0.3726
 5248TIP3    H237236   6.352   4.237   5.302 -2.0641  0.3877  2.0564
 5249TIP3   OH237237   2.877   4.785   3.273  0.2679  0.4519  0.0831
 5249TIP3    H137238   2.850   4.826   3.355 -0.4661  2.6397 -1.1701
 5249TIP3    H237239   2.801   4.732   3.247  0.4858 -0.2116  0.7663
 5250TIP3   OH237240   5.447   2.762   0.766 -0.0724  0.2357 -0.6152
 5250TIP3    H137241   5.405   2.754   0.680  0.7201  0.7904 -1.0647
 5250TIP3    H237242   5.503   2.684   0.772 -1.4242 -0.7345  0.1669
 5251TIP3   OH237243   2.182   5.481   0.591 -0.0164 -0.0465 -0.2884
 5251TIP3    H137244   2.195   5.563   0.544 -1.0424  0.2391 -0.1030
 5251TIP3    H237245   2.207   5.413   0.529 -1.1074  0.3320 -1.1777
 5252TIP3   OH237246   4.960   0.059   5.201 -0.1390  0.0917 -0.2730
 5252TIP3    H137247   4.935  -0.033   5.187 -0.2957 -0.0604  0.8849
 5252TIP3    H237248   4.962   0.069   5.296 -1.6781  1.7029 -0.3484
 5253TIP3   OH237249   0.091   2.066  14.006 -0.3791  0.0182 -0.8753
 5253TIP3    H137250   0.018   2.082  14.066 -1.1312  1.0426 -2.0193
 5253TIP3    H237251   0.098   2.146  13.955  2.1279  0.2693 -0.2540
 5254TIP3   OH237252   1.484   0.794  14.425 -1.1396  0.0068 -0.2006
 5254TIP3    H137253   1.402   0.838  14.445 -0.9037  0.7823 -0.8921
 5254TIP3    H237254   1.515   0.837  14.345 -0.1785 -0.4368 -0.0733
 5255TIP3   OH237255   0.105   0.635   3.826  0.7391 -0.1649  0.3110
 5255TIP3    H137256   0.163   0.559   3.832 -1.5279 -1.8898  1.8137
 5255TIP3    H237257   0.037   0.608   3.765  0.2904  0.9651  0.2970
 5256TIP3   OH237258   6.516   0.807   4.072 -0.0232  0.2275  0.8732
 5256TIP3    H137259   6.597   0.799   4.021 -0.3315 -1.0558  0.5419
 5256TIP3    H237260   6.541   0.859   4.149  0.8625  0.7079  0.2818
 5257TIP3   OH237261   2.491   3.022  16.593  0.1642  0.6792 -0.0816
 5257TIP3    H137262   2.401   2.990  16.592  0.3406  0.1218  0.8750
 5257TIP3    H237263   2.539   2.957  16.645  0.9195  1.4806  0.2486
 5258TIP3   OH237264   2.944   2.437  13.918  0.2269 -0.0692 -0.0252
 5258TIP3    H137265   2.851   2.417  13.926  0.2761  0.3088  2.3005
 5258TIP3    H237266   2.976   2.377  13.851 -2.1116  1.4784 -2.7455
 5259TIP3   OH237267   2.542   1.273   5.510  0.0440  0.5171  0.1809
 5259TIP3    H137268   2.466   1.271   5.568 -0.6662  0.7554 -0.7188
 5259TIP3    H237269   2.582   1.359   5.526 -0.2542  0.6563  0.1858
 5260TIP3   OH237270   4.655   0.766  16.083 -0.0521 -0.5750  0.0932
 5260TIP3    H137271   4.651   0.821  16.161 -0.2514 -0.6690  0.1508
 5260TIP3    H237272   4.694   0.684  16.113 -1.3072 -1.0913  0.3841
 5261TIP3   OH237273   6.268   0.284  16.414  0.0913  0.2031  0.3444
 5261TIP3    H137274   6.327   0.324  16.478 -0.1985  1.8920 -0.3876
 5261TIP3    H237275   6.233   0.207  16.458  3.7622 -1.6385  0.3893
 5262TIP3   OH237276   0.280   3.620  15.061 -0.0431  0.5076  0.7908
 5262TIP3    H137277   0.249   3.573  15.139  0.2359 -1.2205 -0.0866
 5262TIP3    H237278   0.347   3.680  15.094 -0.6513  0.5557  2.0046
 5263TIP3   OH237279   3.283   0.611   3.690  0.9145 -0.3747 -0.0721
 5263TIP3    H137280   3.227   0.611   3.612  0.5607  0.7628  0.1523
 5263TIP3    H237281   3.234   0.561   3.755  0.3484  0.2397 -0.0148
 5264TIP3   OH237282   4.767   4.311   4.392  0.0028  0.1185 -0.8846
 5264TIP3    H137283   4.682   4.267   4.383 -0.6782  1.1782  0.1085
 5264TIP3    H237284   4.824   4.243   4.429 -0.9002 -0.0994  0.1624
 5265TIP3   OH237285   4.548   3.556  11.066  0.4693 -0.4090 -0.5975
 5265TIP3    H137286   4.509   3.592  10.987 -2.0583 -0.5608  0.4849
 5265TIP3    H237287   4.480   3.500  11.103  1.4766 -0.1809  1.7706
 5266TIP3   OH237288   6.568   5.926   2.303 -0.0854  0.6073  0.0346
 5266TIP3    H137289   6.625   5.849   2.300 -0.9009 -0.0187  0.1781
 5266TIP3    H237290   6.620   5.996   2.263  1.2089  0.3484  1.1749
 5267TIP3   OH237291   6.795   2.161  10.447 -0.1160 -0.6333  0.0805
 5267TIP3    H137292   6.832   2.108  10.376  1.0557  0.3843 -0.1031
 5267TIP3    H237293   6.863   2.225  10.468 -1.0581  0.1034  1.0449
 5268TIP3   OH237294   3.224   5.609   2.355  0.5069 -0.2442 -0.8309
 5268TIP3    H137295   3.138   5.652   2.358  0.8100  0.4083 -1.3852
 5268TIP3    H237296   3.230   5.575   2.266 -0.2715 -2.6013 -0.0712
 5269TIP3   OH237297   0.261   3.472  14.102  0.3081 -0.5050 -0.0244
 5269TIP3    H137298   0.182   3.418  14.108 -0.8980  1.1088 -0.5126
 5269TIP3    H237299   0.302   3.446  14.020  0.0580 -1.0617  0.0238
 5270TIP3   OH237300   3.371   5.117   0.489  0.3502 -0.0576  0.1554
 5270TIP3    H137301   3.370   5.077   0.576  2.1174 -0.8877 -0.1626
 5270TIP3    H237302   3.461   5.147   0.477 -0.0359  0.6825 -1.1188
 5271TIP3   OH237303   1.285   4.840   3.596  0.4228 -0.0621  0.2570
 5271TIP3    H137304   1.233   4.909   3.554  1.1998  0.0633 -0.5112
 5271TIP3    H237305   1.290   4.771   3.531 -0.3197 -0.8555  1.0166
 5272TIP3   OH237306   3.370   1.041   1.968 -0.3365 -0.2699  0.0897
 5272TIP3    H137307   3.428   1.107   2.005  0.2232  0.6648 -2.2826
 5272TIP3    H237308   3.420   0.959   1.974 -0.2330 -0.1343  1.2435
 5273TIP3   OH237309   3.091   0.324   2.871 -0.2193  0.3723  0.0694
 5273TIP3    H137310   3.181   0.338   2.840  0.4888 -1.3411  1.1983
 5273TIP3    H237311   3.076   0.396   2.933  0.9757 -0.1432  1.0129
 5274TIP3   OH237312   0.958   5.754  11.091 -0.7285  0.2247 -0.0663
 5274TIP3    H137313   1.021   5.823  11.069 -0.4029  0.2771  0.9883
 5274TIP3    H237314   0.922   5.727  11.006 -0.3346  1.1883 -0.5569
 5275TIP3   OH237315   6.234   6.614   1.003 -0.5402  0.0311  0.2633
 5275TIP3    H137316   6.240   6.710   1.010 -2.1908  0.1799  0.0623
 5275TIP3    H237317   6.153   6.592   1.050 -1.0841 -1.0715 -1.1239
 5276TIP3   OH237318   4.268   4.585   4.017  0.0279 -0.1776  0.1889
 5276TIP3    H137319   4.350   4.537   4.008 -0.5413 -1.0994 -0.2516
 5276TIP3    H237320   4.281   4.642   4.093  1.7290  1.0759 -0.9556
 5277TIP3   OH237321   6.215   5.629   1.909 -0.5413 -0.4883  0.1439
 5277TIP3    H137322   6.290   5.570   1.917 -0.7942 -0.7650  0.4816
 5277TIP3    H237323   6.254   5.717   1.914 -0.3528 -0.6221  1.5471
 5278TIP3   OH237324   1.748   4.404   0.746  0.6239  0.1059 -0.2179
 5278TIP3    H137325   1.826   4.380   0.696  0.4305 -0.9804 -0.0346
 5278TIP3    H237326   1.763   4.367   0.833 -0.2089 -0.3745 -0.2604
 5279TIP3   OH237327   6.795   3.438  16.938 -0.0786  0.3291 -0.4354
 5279TIP3    H137328   6.883   3.413  16.964 -0.6985  0.4317  1.9281
 5279TIP3    H237329   6.741   3.422  17.015 -1.8716  1.7473 -1.3160
 5280TIP3   OH237330   0.960   6.398  13.228 -0.4809 -0.8056  0.3864
 5280TIP3    H137331   0.918   6.380  13.145 -0.0945 -0.7043  0.1650
 5280TIP3    H237332   0.964   6.313  13.272 -1.4119 -0.7232  0.6563
 5281TIP3   OH237333   1.783   4.791  12.163 -0.0030  0.0713 -0.5337
 5281TIP3    H137334   1.777   4.697  12.179 -1.5046  0.3284  0.6750
 5281TIP3    H237335   1.818   4.827  12.245  0.2903  0.6018 -0.8839
 5282TIP3   OH237336   1.588   0.438  13.751 -0.2184  0.7588  0.3719
 5282TIP3    H137337   1.523   0.398  13.809 -0.1878  0.0434 -0.0704
 5282TIP3    H237338   1.645   0.489  13.809  1.7240 -2.3848  1.4381
 5283TIP3   OH237339   5.333   1.675  10.810 -0.0266  0.3524  0.6139
 5283TIP3    H137340   5.410   1.662  10.865  0.0363  0.0033  0.4501
 5283TIP3    H237341   5.365   1.663  10.720  0.3579  3.1637  0.3087
 5284TIP3   OH237342   2.339   1.959   2.716 -0.3279 -0.6610 -0.3206
 5284TIP3    H137343   2.293   1.901   2.777  0.7508 -0.4788  0.6895
 5284TIP3    H237344   2.417   1.909   2.690  0.7178  0.3950  0.7156
 5285TIP3   OH237345   4.309   5.646  13.319  0.7252  0.1593 -0.0365
 5285TIP3    H137346   4.275   5.732  13.298 -0.6600 -0.3571 -0.0576
 5285TIP3    H237347   4.233   5.588  13.314  1.3612 -0.8504  1.2291
 5286TIP3   OH237348   5.624   4.581   1.914 -0.4481 -0.0654 -0.2374
 5286TIP3    H137349   5.584   4.649   1.967 -0.9613  0.3084 -1.0753
 5286TIP3    H237350   5.551   4.527   1.884 -0.0836 -0.7850  0.1203
 5287TIP3   OH237351   1.287   1.242  11.744  0.5363  0.0476  0.4678
 5287TIP3    H137352   1.200   1.276  11.727  0.8218  1.9921  2.3738
 5287TIP3    H237353   1.293   1.163  11.691 -2.1845  0.1041 -0.0703
 5288TIP3   OH237354   5.269   2.304  11.198 -0.0007 -0.5723  0.5888
 5288TIP3    H137355   5.230   2.250  11.130  1.4799 -0.0092 -0.7805
 5288TIP3    H237356   5.322   2.244  11.250  0.1408 -0.7533  0.2368
 5289TIP3   OH237357   1.466   1.332   1.559  0.2975 -0.4336 -0.4746
 5289TIP3    H137358   1.416   1.250   1.563 -0.7763  0.1934 -0.5966
 5289TIP3    H237359   1.418   1.386   1.496  0.1009  0.8520  0.7377
 5290TIP3   OH237360   1.173   4.603  13.634 -0.0228  0.0874 -0.0105
 5290TIP3    H137361   1.176   4.697  13.618 -1.5530  0.4402  1.5051
 5290TIP3    H237362   1.150   4.595  13.726  2.1059 -1.8031  0.4242
 5291TIP3   OH237363   5.853   0.759  14.885 -0.7716 -0.0607  0.3672
 5291TIP3    H137364   5.794   0.714  14.946  0.1319  0.3146  1.5473
 5291TIP3    H237365   5.937   0.762  14.931  0.2029 -0.6144 -1.2925
 5292TIP3   OH237366   6.782   0.408  16.832 -0.2245 -0.4765 -0.2189
 5292TIP3    H137367   6.868   0.372  16.851  0.6805  0.8779 -1.5266
 5292TIP3    H237368   6.767   0.388  16.739  0.2462  2.2009 -0.9693
 5293TIP3   OH237369   2.431   1.465   1.977 -0.0496  0.2928  0.4807
 5293TIP3    H137370   2.498   1.428   2.035 -1.0836  0.3253  1.7343
 5293TIP3    H237371   2.423   1.556   2.004  0.6942  0.8063 -0.9222
 5294TIP3   OH237372   1.862   4.246  12.304  0.4348 -0.6684 -0.1480
 5294TIP3    H137373   1.874   4.155  12.331  1.2587 -0.9062 -1.2862
 5294TIP3    H237374   1.944   4.271  12.263  0.7853  1.0994  1.4959
 5295TIP3   OH237375   4.031   4.574  12.959  0.0664 -0.4774 -0.0125
 5295TIP3    H137376   4.095   4.599  13.025 -0.3627  0.9333 -0.0956
 5295TIP3    H237377   4.010   4.656  12.913 -1.0947 -1.0719 -0.5963
 5296TIP3   OH237378   1.404   5.373  12.719  0.1807  0.2661 -0.3434
 5296TIP3    H137379   1.476   5.436  12.721 -0.1693  0.7020 -1.3103
 5296TIP3    H237380   1.393   5.352  12.627 -0.0624 -0.8166 -0.0864
 5297TIP3   OH237381   5.762   0.989  15.130  0.0073 -0.3822  0.3778
 5297TIP3    H137382   5.837   0.930  15.124  0.6896  0.3712  1.1177
 5297TIP3    H237383   5.746   0.997  15.225 -0.7512 -0.2031  0.2444
 5298TIP3   OH237384   5.761   2.956   2.734  0.3313 -0.7862  0.0592
 5298TIP3    H137385   5.809   2.903   2.671  2.5473 -1.0822  1.8537
 5298TIP3    H237386   5.669   2.929   2.725  1.0160 -2.9132 -0.9781
 5299TIP3   OH237387   2.783   2.985  15.154  0.3323  0.2644  0.1738
 5299TIP3    H137388   2.844   2.970  15.081 -1.8238 -1.4484 -1.4249
 5299TIP3    H237389   2.716   3.043  15.117 -0.4499 -0.0937  1.0024
 5300TIP3   OH237390   0.541   5.114  10.714 -0.5083  0.0631  0.1043
 5300TIP3    H137391   0.578   5.036  10.757  0.0146 -0.1277 -0.6667
 5300TIP3    H237392   0.611   5.144  10.655 -1.1149  0.4648 -0.4185
 5301TIP3   OH237393   0.358   0.313  11.425  0.4463  0.4328  0.5316
 5301TIP3    H137394   0.288   0.273  11.374  0.4523  0.7728  0.2510
 5301TIP3    H237395   0.431   0.251  11.419  0.6383  0.7170 -0.3461
 5302TIP3   OH237396   2.911   5.287  10.936 -0.6091  0.2988  0.0230
 5302TIP3    H137397   2.996   5.277  10.978 -0.5150 -0.8740 -0.4078
 5302TIP3    H237398   2.931   5.310  10.845 -0.8139  3.0871  0.5796
 5303TIP3   OH237399   5.892   0.350   1.927 -0.9985  0.7960 -0.8186
 5303TIP3    H137400   5.904   0.294   1.850 -0.9634  0.1854 -0.3806
 5303TIP3    H237401   5.799   0.369   1.927 -0.6630  2.7592 -2.3268
 5304TIP3   OH237402   3.985   2.169  16.753 -0.5850  0.2330  0.6831
 5304TIP3    H137403   3.926   2.230  16.797 -0.1776  0.9798  0.2220
 5304TIP3    H237404   3.951   2.162  16.664  1.1252  2.2969 -0.2321
 5305TIP3   OH237405   3.108   5.277  15.928  0.4067  0.6271  0.4627
 5305TIP3    H137406   3.187   5.256  15.978  0.4812  1.7016  0.8176
 5305TIP3    H237407   3.074   5.356  15.969 -0.4201  0.6191 -0.1889
 5306TIP3   OH237408   1.217   1.868  14.933  0.7832 -0.2775  0.0690
 5306TIP3    H137409   1.229   1.949  14.883 -0.8707 -1.6641 -2.8244
 5306TIP3    H237410   1.150   1.890  14.998  1.9165  1.1684  0.8408
 5307TIP3   OH237411   5.073   4.776  16.500  0.0580 -0.0397  0.2542
 5307TIP3    H137412   4.999   4.745  16.448  0.2672 -0.2355  0.0718
 5307TIP3    H237413   5.063   4.731  16.584 -0.2327  0.2141  0.3592
 5308TIP3   OH237414   1.468   5.283  11.042 -0.3306  0.1216 -0.1300
 5308TIP3    H137415   1.545   5.305  10.990 -0.1688 -1.1134 -0.4384
 5308TIP3    H237416   1.398   5.274  10.979 -0.0033 -2.0004 -0.2743
 5309TIP3   OH237417   2.854   5.781  13.371 -0.1479  0.2748 -0.3083
 5309TIP3    H137418   2.944   5.812  13.364 -0.1153  0.4608  0.8111
 5309TIP3    H237419   2.860   5.686  13.358  0.4047  0.0917  1.0928
 5310TIP3   OH237420   4.802   6.525   6.119  0.4130  0.0670  0.5116
 5310TIP3    H137421   4.813   6.469   6.196 -0.1895 -0.4865  0.2065
 5310TIP3    H237422   4.778   6.611   6.156 -1.2888 -0.5419  0.9336
 5311TIP3   OH237423   3.764   6.515  10.797  0.0249  0.4643 -0.2824
 5311TIP3    H137424   3.771   6.446  10.863  3.1977  1.1936  0.3603
 5311TIP3    H237425   3.690   6.569  10.826 -0.7060 -1.0593  0.8044
 5312TIP3   OH237426   4.196   2.617  12.631  0.3626  0.0169 -0.3182
 5312TIP3    H137427   4.173   2.607  12.538  1.5351 -0.5183 -0.5613
 5312TIP3    H237428   4.189   2.712  12.646 -0.2605  0.0629 -0.8301
 5313TIP3   OH237429   6.270   5.208   4.036  0.1993 -0.2061 -0.2396
 5313TIP3    H137430   6.206   5.260   4.084 -0.1011  0.2648 -1.1281
 5313TIP3    H237431   6.219   5.135   3.999  0.0147  0.5286 -1.5034
 5314TIP3   OH237432   1.024   6.510   3.391  0.0103 -0.3527 -0.1538
 5314TIP3    H137433   0.956   6.450   3.360  0.8260 -0.0134 -2.8599
 5314TIP3    H237434   1.080   6.456   3.447 -0.7955 -1.3935 -0.3161
 5315TIP3   OH237435   3.891   0.805  14.206  0.0711 -0.2396  0.3871
 5315TIP3    H137436   3.954   0.733  14.212  0.2263 -0.1071  0.3449
 5315TIP3    H237437   3.923   0.858  14.133  0.2787  0.1884  0.7913
 5316TIP3   OH237438   2.471   6.233  13.662 -0.0745 -0.1773  0.2282
 5316TIP3    H137439   2.475   6.328  13.671  0.3799 -0.1888  0.1718
 5316TIP3    H237440   2.444   6.202  13.748  0.5174 -0.0423  0.4661
 5317TIP3   OH237441   1.045   1.891  16.349  0.1164  0.4742  0.0881
 5317TIP3    H137442   1.048   1.943  16.429  0.7479  1.4869 -0.5645
 5317TIP3    H237443   1.089   1.809  16.371 -2.9283 -0.8310  1.8078
 5318TIP3   OH237444   4.736   3.858  16.244 -0.0110  0.7316  0.1089
 5318TIP3    H137445   4.816   3.808  16.261 -0.3364  0.0051 -0.4532
 5318TIP3    H237446   4.667   3.810  16.289 -0.2630  0.9079 -0.0877
 5319TIP3   OH237447   4.906   2.585  15.936  0.3068 -0.1343  0.7066
 5319TIP3    H137448   4.969   2.547  15.998  0.2300 -1.1009  0.2145
 5319TIP3    H237449   4.821   2.572  15.978  0.1418 -1.8737 -0.1020
 5320TIP3   OH237450   6.384   4.755   5.223  0.3654  0.5623 -0.1344
 5320TIP3    H137451   6.414   4.826   5.166 -2.1037  1.4454 -0.4513
 5320TIP3    H237452   6.337   4.798   5.293 -0.5890 -0.7139  0.0572
 5321TIP3   OH237453   4.988   3.397   4.760 -0.4803  0.9437 -0.6682
 5321TIP3    H137454   4.895   3.419   4.769 -0.0868  2.1476  1.0418
 5321TIP3    H237455   5.003   3.390   4.666 -2.0088  2.1343 -1.0320
 5322TIP3   OH237456   6.412   4.494  11.167 -0.6600  0.5884 -0.5196
 5322TIP3    H137457   6.328   4.485  11.121 -0.0289  2.5591 -2.2180
 5322TIP3    H237458   6.420   4.588  11.183  1.1314  0.4122 -0.1783
 5323TIP3   OH237459   0.994   3.146   5.951  0.2086 -0.0884 -0.1705
 5323TIP3    H137460   1.069   3.181   5.997  1.2519 -1.4508 -0.7552
 5323TIP3    H237461   0.935   3.116   6.020 -0.1065  1.5346  0.2999
 5324TIP3   OH237462   0.761   2.821  15.873  0.3256  0.1218 -0.0730
 5324TIP3    H137463   0.718   2.811  15.788  0.1242  2.2596 -0.2971
 5324TIP3    H237464   0.849   2.854  15.851 -0.7706  3.8790  0.4996
 5325TIP3   OH237465   6.450   3.901  15.523 -0.0670 -0.4367  0.0144
 5325TIP3    H137466   6.521   3.877  15.583  0.1613 -2.1124 -0.8683
 5325TIP3    H237467   6.469   3.853  15.443 -0.9277  0.9607 -1.0645
 5326TIP3   OH237468   4.521   6.462   1.276  0.1380 -0.0564  0.2900
 5326TIP3    H137469   4.505   6.509   1.194  0.8176 -0.2016  0.0607
 5326TIP3    H237470   4.496   6.524   1.345  0.4783  0.4355 -0.0192
 5327TIP3   OH237471   4.765   2.396  15.440  0.5530 -0.4813  0.2028
 5327TIP3    H137472   4.731   2.338  15.371  1.6417 -0.8275 -0.0648
 5327TIP3    H237473   4.688   2.421  15.490 -0.1033 -1.1881 -0.4212
 5328TIP3   OH237474   5.873   5.855   0.988  0.2855  0.3197  0.0960
 5328TIP3    H137475   5.854   5.784   1.049 -0.3852 -1.1959 -1.7698
 5328TIP3    H237476   5.930   5.914   1.037 -0.1274 -0.8745  2.1222
 5329TIP3   OH237477   0.907   4.546  13.522  0.2177  0.4363  0.2500
 5329TIP3    H137478   0.856   4.594  13.587 -0.6279 -1.3532  0.9700
 5329TIP3    H237479   0.973   4.498  13.572  0.2144 -0.1624 -0.2979
 5330TIP3   OH237480   6.473   2.938   2.645 -0.6530  0.1824  0.8878
 5330TIP3    H137481   6.474   2.960   2.738 -1.8280 -0.6914  1.1313
 5330TIP3    H237482   6.524   2.857   2.639 -2.0303 -0.7501  1.0889
 5331TIP3   OH237483   0.650   6.747  11.203  0.1688  0.6547  0.3638
 5331TIP3    H137484   0.665   6.801  11.125 -0.7496  3.1429  1.8117
 5331TIP3    H237485   0.591   6.678  11.172 -0.3124  1.6720 -1.1272
 5332TIP3   OH237486   5.405   3.861  15.447 -0.4263 -0.1974 -0.6315
 5332TIP3    H137487   5.340   3.914  15.493 -0.2915 -0.1575 -0.4859
 5332TIP3    H237488   5.357   3.784  15.418 -0.2289 -0.8271  0.6706
 5333TIP3   OH237489   0.685   4.700  14.860 -0.4870 -0.2080  0.7837
 5333TIP3    H137490   0.615   4.759  14.890 -0.7402 -0.9510  1.6909
 5333TIP3    H237491   0.707   4.647  14.936  1.7894  0.6628  0.8166
 5334TIP3   OH237492   2.526   0.185  13.458 -0.3523  0.5130  0.4242
 5334TIP3    H137493   2.597   0.177  13.395  0.6932  0.3750  1.5865
 5334TIP3    H237494   2.522   0.100  13.501  0.6058  1.3439  2.2433
 5335TIP3   OH237495   1.123   4.202   0.189 -0.2598  0.7771  0.0339
 5335TIP3    H137496   1.175   4.131   0.226 -0.6021  0.1227 -0.6861
 5335TIP3    H237497   1.180   4.241   0.122 -0.8055 -0.2351 -1.0764
 5336TIP3   OH237498   2.760   4.085  13.976 -0.0881 -0.3170 -0.3324
 5336TIP3    H137499   2.762   4.002  14.024  0.9815  0.5279  1.1638
 5336TIP3    H237500   2.842   4.087  13.927 -1.3623 -1.3805 -2.7095
 5337TIP3   OH237501   4.312   2.620   4.621 -0.2959  0.2036  0.0414
 5337TIP3    H137502   4.315   2.702   4.671 -0.3586  0.0969  0.2195
 5337TIP3    H237503   4.401   2.607   4.589 -0.3059  0.3902 -0.0666
 5338TIP3   OH237504   1.277   4.632  11.411  0.0464  0.1842  0.0195
 5338TIP3    H137505   1.223   4.553  11.403 -0.8789  0.9452 -1.6741
 5338TIP3    H237506   1.352   4.604  11.464  0.1759 -2.0610 -1.2307
 5339TIP3   OH237507   5.053   5.684  12.332  0.1335  0.1224 -0.3630
 5339TIP3    H137508   5.046   5.719  12.421 -1.6370 -0.5432 -0.1958
 5339TIP3    H237509   4.962   5.680  12.301  0.6865 -0.0692 -2.0491
 5340TIP3   OH237510   2.800   6.840  15.654 -0.2390 -0.0193  0.1463
 5340TIP3    H137511   2.805   6.924  15.699  2.3157  0.1280 -0.2631
 5340TIP3    H237512   2.764   6.860  15.567 -0.3673  0.5074  0.3211
 5341TIP3   OH237513   2.399   2.593  11.776  0.3360 -0.0115 -0.3261
 5341TIP3    H137514   2.329   2.610  11.839  0.9357 -0.5287  0.5068
 5341TIP3    H237515   2.429   2.679  11.749 -2.0387  0.2943 -2.3731
 5342TIP3   OH237516   6.680   5.096  15.071 -0.9273  0.0247  0.2647
 5342TIP3    H137517   6.756   5.072  15.018  0.5847  3.7496  0.4385
 5342TIP3    H237518   6.630   5.156  15.016 -1.4011  0.9572  1.6467
 5343TIP3   OH237519   4.735   3.886  13.511  0.5098 -0.3883 -0.0724
 5343TIP3    H137520   4.810   3.846  13.555  1.8679  0.2325 -1.7019
 5343TIP3    H237521   4.763   3.975  13.491 -0.2196 -0.4903 -1.7141
 5344TIP3   OH237522   4.051   0.686   2.061  0.4022  0.1739  0.1483
 5344TIP3    H137523   4.001   0.697   1.980  0.2875 -1.0175  0.0304
 5344TIP3    H237524   3.987   0.652   2.124  0.6096  0.5987  0.5951
 5345TIP3   OH237525   0.272   1.856  15.335  0.2473 -0.0319 -0.2751
 5345TIP3    H137526   0.279   1.774  15.385  1.2774  1.0843  1.5363
 5345TIP3    H237527   0.179   1.865  15.315 -0.3255 -0.2382  2.0365
 5346TIP3   OH237528   3.500   4.092   3.316 -0.1467  0.0175 -0.0990
 5346TIP3    H137529   3.445   4.170   3.320  0.0777  0.1389  1.9342
 5346TIP3    H237530   3.439   4.019   3.320 -0.3864  0.0126 -2.4249
 5347TIP3   OH237531   4.980   3.583   1.456 -1.0514 -0.0094  0.8789
 5347TIP3    H137532   5.058   3.527   1.460 -0.7313  0.2730 -0.7464
 5347TIP3    H237533   4.907   3.523   1.445 -0.8114 -0.1717  0.1331
 5348TIP3   OH237534   0.389   0.301  11.088  0.2541 -0.3860  0.2274
 5348TIP3    H137535   0.395   0.241  11.015  4.5239  0.0314 -0.0722
 5348TIP3    H237536   0.444   0.376  11.062  0.0920  0.8074  2.9209
 5349TIP3   OH237537   5.502   0.787  15.013 -0.0326  0.7891  0.2125
 5349TIP3    H137538   5.414   0.777  15.048  0.1684  1.4474  0.9249
 5349TIP3    H237539   5.506   0.877  14.982  0.4753  0.8531  0.4443
 5350TIP3   OH237540   2.981   2.120   0.172 -0.1571  0.4460 -0.2289
 5350TIP3    H137541   2.950   2.084   0.089  1.4033 -0.7024 -0.3632
 5350TIP3    H237542   3.028   2.200   0.147 -0.5273  0.6302 -0.3406
 5351TIP3   OH237543   3.296   1.834  15.174  0.2569 -0.0377  0.1862
 5351TIP3    H137544   3.323   1.760  15.229 -1.5930  0.7569  2.3286
 5351TIP3    H237545   3.368   1.896  15.182  0.0267  0.0767  1.8556
 5352TIP3   OH237546   4.849   2.656   0.693 -0.5068 -0.3173  0.2344
 5352TIP3    H137547   4.909   2.581   0.699  1.7781  1.4115  0.2641
 5352TIP3    H237548   4.894   2.718   0.637 -1.0864  2.1074  2.2746
 5353TIP3   OH237549   2.204   4.800  11.753 -0.1404  0.1784 -0.0680
 5353TIP3    H137550   2.180   4.712  11.783 -0.9411  0.5038  0.2522
 5353TIP3    H237551   2.123   4.837  11.719  0.4873  0.2797 -1.5306
 5354TIP3   OH237552   0.672   0.567  14.323  0.3241 -0.3008 -0.6569
 5354TIP3    H137553   0.680   0.659  14.297  0.1397 -0.0258  0.1983
 5354TIP3    H237554   0.719   0.518  14.256 -1.1263  0.2579 -2.1392
 5355TIP3   OH237555   2.026   5.181  17.040  0.6319  0.1460 -0.1073
 5355TIP3    H137556   2.074   5.261  17.058 -0.4552  1.0488 -1.0395
 5355TIP3    H237557   2.001   5.148  17.126  0.6684  1.0717  0.2748
 5356TIP3   OH237558   5.717   3.948  15.079  0.1738 -0.1274  0.1048
 5356TIP3    H137559   5.767   4.027  15.100  2.1192 -0.9710 -1.1044
 5356TIP3    H237560   5.707   3.903  15.163 -1.1158  1.4277  0.8399
 5357TIP3   OH237561   4.973   2.058   5.257  0.2344  0.2471  0.5443
 5357TIP3    H137562   4.964   2.148   5.286 -3.2462 -0.1001  0.8913
 5357TIP3    H237563   5.051   2.026   5.303  0.9528  2.7434  1.1948
 5358TIP3   OH237564   3.021   3.641  15.824  0.5377 -0.1144 -0.3621
 5358TIP3    H137565   2.964   3.707  15.862  0.9840 -0.4330  0.9243
 5358TIP3    H237566   3.000   3.561  15.872  1.4902 -0.4132 -0.4216
 5359TIP3   OH237567   2.968   1.208   2.284 -0.0024 -0.1799  0.4364
 5359TIP3    H137568   3.044   1.172   2.238  0.3686  1.5169 -0.3652
 5359TIP3    H237569   2.895   1.151   2.259  0.5814 -0.4597 -0.6842
 5360TIP3   OH237570   1.903   5.265  14.506 -0.4391 -0.2783  0.1160
 5360TIP3    H137571   1.873   5.245  14.418  1.6960 -0.1685 -0.6858
 5360TIP3    H237572   1.880   5.358  14.518 -1.1133 -0.4043 -0.1427
 5361TIP3   OH237573   1.261   4.474  15.237 -0.1533  0.2537 -0.5135
 5361TIP3    H137574   1.245   4.446  15.147  4.4415  0.9505 -1.7781
 5361TIP3    H237575   1.307   4.401  15.277 -1.6705  0.1738  1.1811
 5362TIP3   OH237576   2.607   1.176   1.754  0.0585  0.3687 -0.0644
 5362TIP3    H137577   2.617   1.268   1.731  0.4640 -0.6337 -5.0695
 5362TIP3    H237578   2.691   1.151   1.792  0.6226  1.6551 -0.4214
 5363TIP3   OH237579   2.814   3.505  11.839  0.3639  0.1788 -0.3970
 5363TIP3    H137580   2.809   3.576  11.904  1.8720  0.3017 -0.3889
 5363TIP3    H237581   2.797   3.549  11.755  2.4772  0.8249 -0.5370
 5364TIP3   OH237582   5.896   1.237  11.831 -0.5644 -0.0753  0.9784
 5364TIP3    H137583   5.872   1.330  11.826 -0.1547  0.0081  0.4641
 5364TIP3    H237584   5.822   1.196  11.875 -1.3486  0.2774  0.0338
 5365TIP3   OH237585   1.564   5.820  11.487  0.3560  0.0156 -0.2790
 5365TIP3    H137586   1.522   5.844  11.404  0.0725  2.8802  0.5894
 5365TIP3    H237587   1.648   5.782  11.461 -0.4296 -0.7442 -1.8787
 5366TIP3   OH237588   5.568   5.174   5.579 -0.0747 -0.1440 -0.2386
 5366TIP3    H137589   5.553   5.156   5.486 -0.6831  1.6084 -0.5029
 5366TIP3    H237590   5.586   5.268   5.583  1.2150 -0.4128  1.2769
 5367TIP3   OH237591   0.219   6.788   1.349 -0.5135  0.1800  0.2781
 5367TIP3    H137592   0.273   6.731   1.294  1.1389  0.2452  1.7656
 5367TIP3    H237593   0.149   6.818   1.290  0.9521 -0.0420 -1.6851
 5368TIP3   OH237594   3.468   5.896   0.707  0.4904  0.1209 -0.5273
 5368TIP3    H137595   3.538   5.924   0.766 -0.6218  0.9378  0.4676
 5368TIP3    H237596   3.444   5.976   0.660 -0.2271  0.0244 -0.3425
 5369TIP3   OH237597   5.609   3.804   0.477 -0.8969  0.1853  0.3152
 5369TIP3    H137598   5.587   3.886   0.521 -0.8208  0.0406  0.6280
 5369TIP3    H237599   5.576   3.736   0.536  0.7496 -0.0547  1.0253
 5370TIP3   OH237600   5.916   1.156  13.176 -0.0899  0.5480  0.0010
 5370TIP3    H137601   5.980   1.177  13.108  0.9782 -0.6257  0.5718
 5370TIP3    H237602   5.956   1.190  13.257 -1.8501  2.9326 -0.0226
 5371TIP3   OH237603   2.652   5.748   2.392  0.6360  0.0863  0.4704
 5371TIP3    H137604   2.653   5.800   2.312  0.3399  0.7254  0.8783
 5371TIP3    H237605   2.563   5.711   2.396 -0.2406  2.1723  1.8330
 5372TIP3   OH237606   2.354   2.622   3.547 -0.7120  0.2299 -0.7359
 5372TIP3    H137607   2.442   2.634   3.583  0.0964 -2.3774 -1.5796
 5372TIP3    H237608   2.295   2.649   3.618  0.7302  2.1259 -0.1999
 5373TIP3   OH237609   1.974   3.150  10.904 -0.4375 -0.1968  0.1703
 5373TIP3    H137610   1.915   3.204  10.851  0.6179 -0.7307 -1.6538
 5373TIP3    H237611   2.049   3.133  10.846 -0.4101 -3.0233  0.8928
 5374TIP3   OH237612   0.890   0.950  13.847  0.1804  0.0642 -0.4265
 5374TIP3    H137613   0.857   1.022  13.793 -0.5818  0.2881  0.3212
 5374TIP3    H237614   0.964   0.987  13.894 -1.1237  0.8394  1.0967
 5375TIP3   OH237615   3.916   0.850   1.819 -0.4911  0.4284 -0.4944
 5375TIP3    H137616   3.839   0.892   1.857 -0.9113 -0.4377 -0.3439
 5375TIP3    H237617   3.932   0.898   1.738 -1.7002  0.1340 -0.9405
 5376TIP3   OH237618   6.327   1.450  11.885  0.1233  0.1735 -0.0811
 5376TIP3    H137619   6.302   1.431  11.795  2.3679 -0.6540 -0.5952
 5376TIP3    H237620   6.273   1.390  11.938 -1.7496  1.1957 -0.7667
 5377TIP3   OH237621   1.011   5.014   2.699 -0.1581  0.0255 -0.2210
 5377TIP3    H137622   0.928   4.999   2.654 -0.7728  1.8100  0.2479
 5377TIP3    H237623   0.988   5.017   2.792  0.2280  1.6169 -0.1499
 5378TIP3   OH237624   5.524   4.454   4.410  0.4150  0.0621 -0.3066
 5378TIP3    H137625   5.510   4.366   4.377 -0.7937  0.9673 -2.4720
 5378TIP3    H237626   5.561   4.502   4.335 -0.0593  1.6609  0.4210
 5379TIP3   OH237627   5.872   6.834   0.022  0.0213 -0.1186 -0.8504
 5379TIP3    H137628   5.838   6.768  -0.039 -0.3692 -0.1460 -0.6082
 5379TIP3    H237629   5.892   6.786   0.102 -1.3365  0.2207 -0.2802
 5380TIP3   OH237630   5.824   1.887  13.126  0.3787  0.3624 -0.1871
 5380TIP3    H137631   5.860   1.958  13.179  1.4439 -0.4029  0.1426
 5380TIP3    H237632   5.750   1.927  13.081  0.7237  1.5822  0.2751
 5381TIP3   OH237633   0.346   5.892  12.538 -0.1328  0.0256 -0.4489
 5381TIP3    H137634   0.278   5.958  12.548  0.2046  0.4606 -1.0009
 5381TIP3    H237635   0.418   5.922  12.594 -1.2798 -1.7210  2.2082
 5382TIP3   OH237636   3.484   0.970   4.272 -0.0698  0.5744  0.2928
 5382TIP3    H137637   3.443   0.912   4.336  0.6660  0.7250  0.9138
 5382TIP3    H237638   3.468   1.058   4.305 -1.6012  0.7741 -0.8988
 5383TIP3   OH237639   4.864   3.317   1.213  0.0477 -0.4305 -0.5639
 5383TIP3    H137640   4.793   3.345   1.271 -0.3787 -1.9204 -0.3205
 5383TIP3    H237641   4.823   3.252   1.156  1.4885 -2.3093  0.4445
 5384TIP3   OH237642   0.187   4.372  11.577  0.0410  0.5340  0.2382
 5384TIP3    H137643   0.131   4.409  11.646  0.7166 -1.1518  1.7775
 5384TIP3    H237644   0.266   4.345  11.623  1.1043  0.6411 -1.4808
 5385TIP3   OH237645   4.683   3.667   1.726  0.2897 -0.2367 -0.1469
 5385TIP3    H137646   4.732   3.636   1.803 -0.9712 -1.2206  0.3027
 5385TIP3    H237647   4.695   3.762   1.726  1.8065 -0.4069  0.2017
 5386TIP3   OH237648   5.781   3.082  14.316 -0.0488 -0.5048 -0.1570
 5386TIP3    H137649   5.828   3.118  14.241  2.8311  1.2155  2.2444
 5386TIP3    H237650   5.730   3.156  14.350  0.2086 -0.7042  0.6772
 5387TIP3   OH237651   4.989   2.235   3.486  0.0462 -0.3844 -0.3403
 5387TIP3    H137652   4.969   2.322   3.451 -1.4432 -0.5381  0.0379
 5387TIP3    H237653   5.080   2.241   3.513  0.1623  0.8641 -0.9041
 5388TIP3   OH237654   1.566   1.346   4.180 -0.3510  0.4344  0.0603
 5388TIP3    H137655   1.617   1.370   4.257 -0.2175  1.3243 -0.2953
 5388TIP3    H237656   1.618   1.278   4.137 -0.1663  0.3136  0.4689
 5389TIP3   OH237657   4.957   1.760   5.686  0.3159  0.3220  0.1913
 5389TIP3    H137658   4.903   1.687   5.717  0.3571  0.3824  0.4063
 5389TIP3    H237659   4.921   1.781   5.600 -1.5469  1.8612  1.2481
 5390TIP3   OH237660   4.819   6.597   1.230  0.1370 -0.1426 -0.2794
 5390TIP3    H137661   4.735   6.635   1.206  0.1715  0.1529  0.0666
 5390TIP3    H237662   4.872   6.603   1.151 -0.4067 -1.0078 -0.7263
 5391TIP3   OH237663   4.036   0.001   1.783 -0.1892  0.0055  0.9528
 5391TIP3    H137664   4.028  -0.088   1.748  0.1397 -1.2352  3.6951
 5391TIP3    H237665   3.946   0.029   1.798 -0.3311  0.5326 -0.6666
 5392TIP3   OH237666   4.045   6.619   1.607  0.1338 -0.2072  0.5140
 5392TIP3    H137667   3.975   6.659   1.556 -1.9475 -3.1996  0.7574
 5392TIP3    H237668   4.114   6.600   1.543  0.1048  1.3387 -0.0177
 5393TIP3   OH237669   2.882   0.916   3.782  0.1774  0.3595 -0.1094
 5393TIP3    H137670   2.837   0.941   3.863 -0.4887 -3.0108  0.7534
 5393TIP3    H237671   2.975   0.922   3.804  0.0438 -2.2382  1.7103
 5394TIP3   OH237672   3.137   5.387  17.137 -0.2418  0.4313  0.1177
 5394TIP3    H137673   3.177   5.474  17.131  1.3890 -0.3270 -1.0407
 5394TIP3    H237674   3.126   5.360  17.045 -2.1749  0.0059  0.4227
 5395TIP3   OH237675   3.313   6.617   5.447  0.8256 -0.4269  0.7066
 5395TIP3    H137676   3.380   6.637   5.381 -2.2350  2.7688 -1.8083
 5395TIP3    H237677   3.346   6.654   5.528  1.5335  2.5995 -0.8259
 5396TIP3   OH237678   2.079   1.856  13.361 -0.1181 -0.3478  0.1342
 5396TIP3    H137679   2.163   1.898  13.379 -1.0464  0.9950  1.6958
 5396TIP3    H237680   2.017   1.929  13.351 -1.1499 -1.2997 -0.7049
 5397TIP3   OH237681   5.292   1.741  16.005  0.3045  0.0371 -0.0266
 5397TIP3    H137682   5.380   1.725  16.039  0.1519 -2.2603 -0.5148
 5397TIP3    H237683   5.250   1.795  16.071  0.5654 -2.8102  2.7341
 5398TIP3   OH237684   5.347   0.185   3.026  0.3451 -0.5090  0.3005
 5398TIP3    H137685   5.406   0.174   2.951  1.3916  2.6062  0.5501
 5398TIP3    H237686   5.260   0.188   2.987  0.5425 -2.1469 -0.3826
 5399TIP3   OH237687   4.052   0.757  13.441  0.1485 -0.4329  0.3954
 5399TIP3    H137688   4.131   0.802  13.411 -0.7252 -1.1626 -3.5540
 5399TIP3    H237689   4.084   0.672  13.473  1.0477 -0.2257  0.0881
 5400TIP3   OH237690   6.406   0.969   6.358  0.0367  0.1398  0.0492
 5400TIP3    H137691   6.481   1.001   6.308  0.4724 -1.5561 -0.4482
 5400TIP3    H237692   6.359   0.912   6.297 -0.2355 -0.8100  1.1183
 5401TIP3   OH237693   4.693   6.802   1.510 -0.3217  0.1409 -0.0541
 5401TIP3    H137694   4.747   6.819   1.433  0.8289  0.3274  0.7694
 5401TIP3    H237695   4.696   6.883   1.561  1.4837 -0.9075  1.6672
 5402TIP3   OH237696   5.177   5.806  12.603 -0.9077 -0.3595 -0.2589
 5402TIP3    H137697   5.211   5.822  12.691  0.7178  0.1927 -0.9486
 5402TIP3    H237698   5.100   5.751  12.617 -0.3495 -0.7725  1.4683
 5403TIP3   OH237699   1.798   4.939  12.727  0.5856 -0.0948  0.4212
 5403TIP3    H137700   1.847   5.021  12.736  0.7622  0.1054 -1.8425
 5403TIP3    H237701   1.716   4.954  12.775  0.0402  1.9340 -1.0165
 5404TIP3   OH237702   5.774   2.119  15.670 -0.4421  0.3320  0.1613
 5404TIP3    H137703   5.781   2.075  15.585  0.9535  2.1557 -0.7408
 5404TIP3    H237704   5.864   2.123  15.702 -0.7119  1.3496  0.8265
 5405TIP3   OH237705   1.781   6.254  14.354  0.1798 -0.2430  0.2853
 5405TIP3    H137706   1.857   6.311  14.340  0.0539  0.1376  1.0791
 5405TIP3    H237707   1.706   6.311  14.335  0.0772 -0.4701  0.0086
 5406TIP3   OH237708   2.505   5.659   0.238  0.0271 -0.0546 -0.1514
 5406TIP3    H137709   2.428   5.690   0.191 -0.6035 -0.8680  0.3227
 5406TIP3    H237710   2.554   5.739   0.258 -0.7987  0.4992 -0.2705
 5407TIP3   OH237711   6.729   5.132   2.933  0.0369 -1.0155 -0.3265
 5407TIP3    H137712   6.819   5.124   2.964  0.3570  1.3593 -0.5006
 5407TIP3    H237713   6.677   5.145   3.012 -0.3501 -3.2923 -0.1340
 5408TIP3   OH237714   0.813   2.729   0.030 -0.0082 -0.1203 -0.1787
 5408TIP3    H137715   0.906   2.720   0.010  0.2650 -0.0607  1.0027
 5408TIP3    H237716   0.769   2.706  -0.052  0.9817 -2.0227 -0.2415
 5409TIP3   OH237717   3.085   6.830   2.622  0.4877 -0.3017  0.1626
 5409TIP3    H137718   3.088   6.751   2.675 -0.0302  0.1299  0.8542
 5409TIP3    H237719   3.013   6.881   2.659  1.0338  0.6466 -0.0499
 5410TIP3   OH237720   1.653   2.317   1.153  0.0912 -0.4707 -0.4030
 5410TIP3    H137721   1.694   2.257   1.214  1.5383  0.6994 -0.1721
 5410TIP3    H237722   1.717   2.328   1.083  0.2840  1.5124  0.0356
 5411TIP3   OH237723   2.334   0.652   1.376 -0.7176 -0.4024  0.3661
 5411TIP3    H137724   2.341   0.734   1.425 -0.0587  0.4058 -1.0095
 5411TIP3    H237725   2.243   0.649   1.346 -1.0803 -0.8210  1.4589
 5412TIP3   OH237726   1.879   4.961  11.959 -0.6201  0.6812  0.2390
 5412TIP3    H137727   1.974   4.962  11.965 -0.4967 -1.4603 -0.5106
 5412TIP3    H237728   1.851   4.912  12.036 -0.9651 -0.1953 -0.4182
 5413TIP3   OH237729   1.726   2.267   5.039  0.1435 -0.0787  0.1844
 5413TIP3    H137730   1.708   2.221   4.958 -0.4764 -1.2547  0.9633
 5413TIP3    H237731   1.806   2.317   5.021 -1.3084  1.6838 -1.9175
 5414TIP3   OH237732   1.936   6.127   2.920 -0.4568 -0.5277 -0.1252
 5414TIP3    H137733   1.869   6.188   2.952  0.2398  1.5291 -2.3104
 5414TIP3    H237734   1.940   6.143   2.826  2.3372 -1.3738 -0.2334
 5415TIP3   OH237735   3.254   1.035   3.079 -0.2890 -0.3474  0.5201
 5415TIP3    H137736   3.173   0.991   3.052  0.0088  0.5711 -2.1426
 5415TIP3    H237737   3.238   1.128   3.062  1.2135 -0.1185  0.2277
 5416TIP3   OH237738   6.535   6.116  11.394  0.2636  0.0745  0.0030
 5416TIP3    H137739   6.530   6.056  11.468 -0.9452  1.1407  0.8287
 5416TIP3    H237740   6.590   6.188  11.425 -1.1254  1.0501  0.2765
 5417TIP3   OH237741   1.740   4.481  14.079 -0.3012  0.2340 -0.2500
 5417TIP3    H137742   1.753   4.423  14.004 -1.5708  0.9481 -1.0594
 5417TIP3    H237743   1.650   4.463  14.107 -0.4143  1.2019  0.0318
 5418TIP3   OH237744   5.021   0.403  11.750  0.1464  0.3170 -0.2761
 5418TIP3    H137745   5.037   0.479  11.805  0.0914  1.2029 -1.4413
 5418TIP3    H237746   4.946   0.428  11.696  0.2451 -0.4821 -0.7995
 5419TIP3   OH237747   5.617   5.857   3.591  0.0790  0.3695  0.0756
 5419TIP3    H137748   5.640   5.825   3.678  0.2201 -0.8283 -0.3804
 5419TIP3    H237749   5.569   5.785   3.551  0.7571  0.5765 -1.1524
 5420TIP3   OH237750   0.771   2.378  11.048  0.4124 -0.0204 -0.0655
 5420TIP3    H137751   0.706   2.375  11.119  0.0135 -1.1744 -0.4545
 5420TIP3    H237752   0.722   2.412  10.973  1.0114  1.8769  0.3595
 5421TIP3   OH237753   4.427   5.540   2.201  0.3639 -0.3963  0.0812
 5421TIP3    H137754   4.387   5.496   2.126  2.0309  0.4808 -1.4027
 5421TIP3    H237755   4.382   5.625   2.205  1.7256  0.4648 -1.3957
 5422TIP3   OH237756   4.000   4.337  16.724 -0.4189 -0.8771 -0.1859
 5422TIP3    H137757   3.984   4.431  16.712 -0.5203 -0.9065 -0.2783
 5422TIP3    H237758   4.078   4.319  16.672 -0.9407 -1.0336 -0.9262
 5423TIP3   OH237759   2.429   3.628  17.005  0.3470  1.0968 -0.3414
 5423TIP3    H137760   2.483   3.708  17.005  1.5759  0.2952 -0.8582
 5423TIP3    H237761   2.457   3.580  17.083  1.8594 -0.2495 -1.6433
 5424TIP3   OH237762   6.289   0.357  12.334  0.3774  0.5589  0.6769
 5424TIP3    H137763   6.313   0.433  12.281  0.6492  0.2858  0.4077
 5424TIP3    H237764   6.289   0.391  12.424 -0.1710  1.0396  0.5003
 5425TIP3   OH237765   0.434   3.268   5.310  0.0269 -0.1148  0.5831
 5425TIP3    H137766   0.498   3.253   5.240 -0.8158 -0.9998 -0.0170
 5425TIP3    H237767   0.484   3.313   5.378  1.7012 -2.1729  0.8010
 5426TIP3   OH237768   2.913   1.570   5.605  0.1426  0.3471 -0.2669
 5426TIP3    H137769   2.903   1.660   5.574  0.3624  0.6120  0.4162
 5426TIP3    H237770   2.827   1.530   5.591 -0.3659  1.0718  0.7107
 5427TIP3   OH237771   1.387   6.460  10.550  0.6322 -0.7132  0.0803
 5427TIP3    H137772   1.426   6.439  10.636 -1.0939 -1.9385  0.5992
 5427TIP3    H237773   1.352   6.549  10.562  1.7534 -0.2540  0.1243
 5428TIP3   OH237774   1.469   0.057  14.492 -0.5342 -0.3505 -0.1338
 5428TIP3    H137775   1.402   0.024  14.552 -0.4507 -1.6070 -0.7075
 5428TIP3    H237776   1.421   0.079  14.412 -0.3649 -0.6364 -0.3179
 5429TIP3   OH237777   0.809   3.178  13.610 -0.2210  0.1278 -0.3951
 5429TIP3    H137778   0.851   3.228  13.680 -1.2064 -0.3994  0.6006
 5429TIP3    H237779   0.816   3.087  13.639 -0.2618 -0.1410 -1.2041
 5430TIP3   OH237780   3.765   0.406   5.185  0.3396 -0.3609 -0.3726
 5430TIP3    H137781   3.687   0.399   5.240  0.8309  0.5165  0.4755
 5430TIP3    H237782   3.747   0.349   5.111 -1.2655  0.1274 -0.3995
 5431TIP3   OH237783   0.276   2.980   4.840  0.2536  0.4686  0.2536
 5431TIP3    H137784   0.216   2.952   4.909  0.8275  1.4841  1.2030
 5431TIP3    H237785   0.363   2.953   4.871  0.5665  1.3273  0.1622
 5432TIP3   OH237786   3.185   2.435   0.655  0.3389 -0.0449 -0.1756
 5432TIP3    H137787   3.205   2.352   0.612 -0.8509  0.0942 -1.0420
 5432TIP3    H237788   3.158   2.410   0.744  0.3948 -0.5503 -0.2984
 5433TIP3   OH237789   2.845   1.907  14.187 -0.8471  0.2251 -1.2177
 5433TIP3    H137790   2.757   1.870  14.191 -0.4232 -0.7325  1.8581
 5433TIP3    H237791   2.853   1.961  14.266  2.3844 -2.4979  0.5736
 5434TIP3   OH237792   4.559   3.570   4.302 -0.0757 -0.0420  0.4518
 5434TIP3    H137793   4.625   3.525   4.355  0.1952  1.4785  1.4782
 5434TIP3    H237794   4.603   3.587   4.219  0.9554  1.1239  1.1875
 5435TIP3   OH237795   5.467   6.191   2.760  0.3794 -0.8623  0.3484
 5435TIP3    H137796   5.515   6.217   2.838 -1.1076 -0.3402  1.1207
 5435TIP3    H237797   5.534   6.154   2.702  1.8922  0.8179  0.9156
 5436TIP3   OH237798   4.258   0.144   1.764 -0.3175 -0.2686 -0.8182
 5436TIP3    H137799   4.182   0.087   1.776 -0.1524 -0.5600 -1.1500
 5436TIP3    H237800   4.278   0.139   1.671  0.7036 -0.9623 -0.5782
 5437TIP3   OH237801   5.095   0.861   4.444 -0.6308  0.0514  0.1974
 5437TIP3    H137802   5.078   0.772   4.411 -0.2860 -0.4090  1.2382
 5437TIP3    H237803   5.040   0.917   4.389  1.3694 -0.4380 -2.4919
 5438TIP3   OH237804   6.281   4.606  15.364  0.3305  0.8667 -0.2102
 5438TIP3    H137805   6.346   4.574  15.427 -0.4473  1.7412  1.0951
 5438TIP3    H237806   6.333   4.654  15.299  1.0130  1.6868  0.8976
 5439TIP3   OH237807   3.692   1.876   5.228 -0.3808 -0.1092 -0.5580
 5439TIP3    H137808   3.635   1.946   5.195 -0.1066 -0.1522 -1.1355
 5439TIP3    H237809   3.764   1.923   5.271 -0.6099 -0.0495 -0.2351
 5440TIP3   OH237810   4.273   0.671  14.975 -0.1362  0.0519  0.9476
 5440TIP3    H137811   4.314   0.717  14.902 -0.7865 -0.7956  0.0224
 5440TIP3    H237812   4.297   0.579  14.962 -2.9180 -0.6144 -0.0902
 5441TIP3   OH237813   0.759   5.452  14.703 -0.4241 -0.2485  0.0359
 5441TIP3    H137814   0.785   5.534  14.661 -0.4290 -0.2488  0.0324
 5441TIP3    H237815   0.833   5.429  14.759 -0.5516 -0.0726  0.2809
 5442TIP3   OH237816   5.221   2.416   1.045  0.4398  0.4896  0.0890
 5442TIP3    H137817   5.316   2.425   1.052  0.4705  1.2975 -1.1903
 5442TIP3    H237818   5.203   2.330   1.084  1.5568  0.7638  1.2879
 5443TIP3   OH237819   1.936   2.905   5.218  0.0935  0.1167 -0.1134
 5443TIP3    H137820   2.005   2.968   5.196  2.1157 -1.8111  0.3705
 5443TIP3    H237821   1.888   2.893   5.136 -0.1240  1.9726 -0.3099
 5444TIP3   OH237822   3.299   5.095  14.553  0.3941 -0.2348  0.7852
 5444TIP3    H137823   3.308   5.009  14.594 -0.2306 -0.1126  1.1841
 5444TIP3    H237824   3.249   5.078  14.473  0.8861 -0.3458  0.4977
 5445TIP3   OH237825   4.415   6.052  11.219 -0.3785 -0.1036  0.3002
 5445TIP3    H137826   4.370   6.018  11.141 -1.7157  2.3209 -0.0740
 5445TIP3    H237827   4.507   6.028  11.206 -1.0227 -2.4649 -0.4556
 5446TIP3   OH237828   6.330   6.319   3.910 -0.6077  0.0432 -0.4674
 5446TIP3    H137829   6.324   6.224   3.923  0.7908  0.2503  2.6564
 5446TIP3    H237830   6.273   6.355   3.979  0.2725  1.4724 -0.4603
 5447TIP3   OH237831   3.954   0.100  15.845 -0.6521 -0.1753  0.4803
 5447TIP3    H137832   3.905   0.065  15.920 -0.4321 -0.8246  0.3263
 5447TIP3    H237833   3.886   0.128  15.783 -0.8799 -2.5869 -0.4443
 5448TIP3   OH237834   4.970   1.569   3.413 -0.5231  0.3262  0.5688
 5448TIP3    H137835   5.003   1.629   3.480  1.4202 -1.0231  0.9246
 5448TIP3    H237836   5.012   1.598   3.332 -1.1428  0.6249  0.3483
 5449TIP3   OH237837   2.470   4.406   2.109 -0.4158 -0.2423 -0.4342
 5449TIP3    H137838   2.466   4.483   2.166 -2.1464 -0.7070  0.1395
 5449TIP3    H237839   2.555   4.366   2.129  0.3642  1.2982 -0.4965
 5450TIP3   OH237840   1.391   5.575  15.008 -0.2481 -0.2312 -0.3545
 5450TIP3    H137841   1.457   5.636  14.977  0.0103 -0.8397 -1.0260
 5450TIP3    H237842   1.316   5.631  15.031  0.5254  0.4795  0.5739
 5451TIP3   OH237843   1.030   4.058  14.646  0.6126  0.0074  0.5002
 5451TIP3    H137844   1.011   4.026  14.558 -0.0559 -2.1820  1.3784
 5451TIP3    H237845   1.000   4.149  14.646 -0.9353 -0.4576 -1.0472
 5452TIP3   OH237846   4.161   3.148   0.012 -0.0256 -0.4314 -0.2109
 5452TIP3    H137847   4.209   3.115   0.087  0.3715  1.3723  0.3666
 5452TIP3    H237848   4.081   3.096   0.009 -0.5777  0.1939  2.1521
 5453TIP3   OH237849   3.581   1.139   3.486  0.4652  0.1199 -0.5124
 5453TIP3    H137850   3.539   1.149   3.572 -0.6405  1.0132 -1.1367
 5453TIP3    H237851   3.607   1.047   3.482  1.3247  0.2512  1.1330
 5454TIP3   OH237852   0.809   2.161  12.839  0.4497 -0.5690 -0.0410
 5454TIP3    H137853   0.727   2.121  12.866  0.1723  0.6923  1.0426
 5454TIP3    H237854   0.824   2.128  12.750 -1.7517 -0.0072 -0.6607
 5455TIP3   OH237855   5.946   1.772   5.596 -0.3604  0.1108  0.3460
 5455TIP3    H137856   6.010   1.706   5.568  0.4872  0.9494  0.2699
 5455TIP3    H237857   5.942   1.761   5.691 -0.3190 -0.1326  0.3216
 5456TIP3   OH237858   4.141   0.156   4.095  0.3225 -0.1629  0.3073
 5456TIP3    H137859   4.236   0.145   4.103  0.4343  0.4240 -0.1875
 5456TIP3    H237860   4.127   0.190   4.007 -0.3376 -0.1143  0.4217
 5457TIP3   OH237861   6.122   3.726   6.164  0.3530  0.7209  0.4752
 5457TIP3    H137862   6.032   3.722   6.132  0.9499  0.2482 -1.2442
 5457TIP3    H237863   6.119   3.684   6.250 -0.8058 -0.7499 -0.2392
 5458TIP3   OH237864   0.993   1.198   4.182  0.7593 -0.2559 -0.1308
 5458TIP3    H137865   1.035   1.191   4.096 -0.0809  1.7757 -0.7686
 5458TIP3    H237866   0.902   1.223   4.162  0.1108 -1.2744  1.3188
 5459TIP3   OH237867   0.376   2.068   3.915  0.0158 -0.1612  0.2375
 5459TIP3    H137868   0.324   2.030   3.985 -1.3476 -0.1737 -0.7367
 5459TIP3    H237869   0.317   2.131   3.873  0.3927 -0.9598 -1.5853
 5460TIP3   OH237870   0.510   3.208  15.567  0.4830 -0.2885  0.7171
 5460TIP3    H137871   0.602   3.203  15.543  0.2661 -1.5722  0.0979
 5460TIP3    H237872   0.473   3.124  15.541 -1.2175  0.7689 -0.5375
 5461TIP3   OH237873   5.743   6.408   4.755 -0.1037  0.5070 -0.1405
 5461TIP3    H137874   5.827   6.382   4.717  0.0292  2.3377 -1.2209
 5461TIP3    H237875   5.697   6.326   4.771  1.3718 -0.4713 -0.7556
 5462TIP3   OH237876   4.545   3.685   0.426 -0.1300  0.6180  0.0351
 5462TIP3    H137877   4.500   3.688   0.510 -0.0767 -1.4892  0.1898
 5462TIP3    H237878   4.491   3.738   0.368 -1.8632 -0.3841  0.6545
 5463TIP3   OH237879   4.172   5.345   1.287  0.5485 -0.4731 -0.1402
 5463TIP3    H137880   4.197   5.430   1.250  1.8872 -0.9980 -0.4963
 5463TIP3    H237881   4.129   5.299   1.215 -0.6510  0.0529  0.1943
 5464TIP3   OH237882   4.102   5.226   2.457  0.7311  0.3681  0.2606
 5464TIP3    H137883   4.192   5.207   2.484  0.1313 -0.4958  1.7600
 5464TIP3    H237884   4.047   5.183   2.523 -0.7884  0.9736 -0.5554
 5465TIP3   OH237885   5.265   3.389  14.966  0.1640  0.2264 -0.7165
 5465TIP3    H137886   5.349   3.432  14.982  0.1579  0.1941 -0.5945
 5465TIP3    H237887   5.234   3.426  14.883 -0.0992  0.8481 -0.3428
 5466TIP3   OH237888   1.658   2.285  10.429 -0.6772  0.7274  0.2411
 5466TIP3    H137889   1.656   2.346  10.502 -0.8697 -0.0230  0.8796
 5466TIP3    H237890   1.747   2.251  10.429 -0.0965  2.1412 -1.0959
 5467TIP3   OH237891   4.927   4.745  13.362  0.2790  0.7042  0.3987
 5467TIP3    H137892   4.989   4.811  13.393  1.2186 -1.3160  3.3085
 5467TIP3    H237893   4.875   4.723  13.439 -0.4089 -1.4696 -0.5998
 5468TIP3   OH237894   3.470   3.792   5.166 -0.0241 -0.1121  0.0512
 5468TIP3    H137895   3.464   3.883   5.194 -1.0783 -0.0151 -0.4603
 5468TIP3    H237896   3.412   3.786   5.090  0.6358 -1.0280 -0.3942
 5469TIP3   OH237897   6.726   2.686  14.774 -0.3759  0.0995  0.6799
 5469TIP3    H137898   6.769   2.758  14.727 -0.6313 -0.1532  0.0526
 5469TIP3    H237899   6.776   2.608  14.750 -0.0289  0.0743  1.4528
 5470TIP3   OH237900   4.062   0.430  15.103 -0.2073 -0.3397  0.0250
 5470TIP3    H137901   4.059   0.439  15.008  0.0512 -0.5375 -0.0013
 5470TIP3    H237902   3.994   0.366  15.123 -0.8895  0.3857  0.0594
 5471TIP3   OH237903   3.047   4.788  12.179 -0.3195  0.2431 -0.3227
 5471TIP3    H137904   3.142   4.805  12.181 -0.4912  1.2694  1.5727
 5471TIP3    H237905   3.032   4.730  12.254 -1.2462  0.3542 -0.4181
 5472TIP3   OH237906   5.812   6.236  11.608 -0.6260 -0.1591 -0.8335
 5472TIP3    H137907   5.807   6.324  11.571 -0.7655 -0.0203 -0.4849
 5472TIP3    H237908   5.724   6.219  11.642 -0.2877  0.0419  0.1769
 5473TIP3   OH237909   5.022   0.900  10.985 -0.3660 -0.2460 -0.3517
 5473TIP3    H137910   5.113   0.888  11.015 -0.7132  0.4312  1.0512
 5473TIP3    H237911   4.990   0.974  11.035 -1.1428  0.7218 -2.1831
 5474TIP3   OH237912   4.173   3.352   4.954  0.1439  0.1922 -0.1526
 5474TIP3    H137913   4.216   3.426   4.912 -0.9286  0.1458 -1.3579
 5474TIP3    H237914   4.180   3.371   5.048 -0.8021  2.2064 -0.4559
 5475TIP3   OH237915   5.003   1.740   0.799  0.1043  0.5180  0.1016
 5475TIP3    H137916   5.066   1.704   0.738  1.2496  0.4248  1.2876
 5475TIP3    H237917   4.920   1.699   0.775  0.7924 -0.5846 -0.4880
 5476TIP3   OH237918   0.191   5.808   0.071 -0.1912  0.9294  0.4349
 5476TIP3    H137919   0.204   5.852   0.155 -0.8646 -0.5094  1.3241
 5476TIP3    H237920   0.220   5.718   0.086  0.2914  0.7946 -1.0726
 5477TIP3   OH237921   2.204   2.523  12.491 -0.4306  0.3210 -0.0794
 5477TIP3    H137922   2.131   2.505  12.432 -1.6146  2.1809  0.7377
 5477TIP3    H237923   2.167   2.514  12.579 -0.1593  2.8690  0.3629
 5478TIP3   OH237924   3.797   6.075   2.415 -0.4963 -0.2314  0.6880
 5478TIP3    H137925   3.777   6.168   2.405  0.5029 -0.1008 -0.4876
 5478TIP3    H237926   3.890   6.073   2.437 -0.6480 -0.9436  1.3034
 5479TIP3   OH237927   1.036   0.609  15.402  0.1046  0.2423  0.3088
 5479TIP3    H137928   1.124   0.594  15.436  0.6159  0.8083 -0.6987
 5479TIP3    H237929   1.009   0.693  15.439  0.6644  0.8629 -0.6273
 5480TIP3   OH237930   5.708   6.502  10.854 -0.3182  0.3198 -0.1605
 5480TIP3    H137931   5.629   6.529  10.807 -0.3918  0.3172 -0.0364
 5480TIP3    H237932   5.773   6.568  10.829  0.4087 -1.1415 -2.4106
 5481TIP3   OH237933   1.082   2.837   3.435  0.1280 -0.3062 -0.3655
 5481TIP3    H137934   1.054   2.752   3.401  1.2268 -0.4008 -1.0723
 5481TIP3    H237935   1.140   2.872   3.367  1.6179 -0.0731  0.9815
 5482TIP3   OH237936   4.598   2.335  17.056  0.1192 -0.2707  0.3389
 5482TIP3    H137937   4.510   2.340  17.093  1.9792  0.9233  5.3853
 5482TIP3    H237938   4.625   2.244  17.069  0.4211 -0.0771  1.1550
 5483TIP3   OH237939   3.105   6.488  16.921  0.2419 -0.0830  0.0611
 5483TIP3    H137940   3.089   6.398  16.892  1.4188 -0.7156  1.2591
 5483TIP3    H237941   3.107   6.483  17.016  0.9860  1.0802  0.1291
 5484TIP3   OH237942   4.404   4.464  10.940  0.1025 -0.2964  0.3256
 5484TIP3    H137943   4.427   4.536  10.998  0.8917  1.0916 -1.6317
 5484TIP3    H237944   4.328   4.496  10.890  0.6134 -0.7057 -0.7407
 5485TIP3   OH237945   0.854   0.163   0.087 -0.1565 -0.3703 -0.2250
 5485TIP3    H137946   0.793   0.191   0.019  0.4834 -0.1203 -0.6995
 5485TIP3    H237947   0.811   0.186   0.169 -0.1145  1.0456 -0.5806
 5486TIP3   OH237948   1.135   3.397   1.720  0.1480  0.5221  0.3717
 5486TIP3    H137949   1.181   3.381   1.638 -0.0941  1.3233  0.0737
 5486TIP3    H237950   1.158   3.322   1.775  0.6938  0.2194 -0.2549
 5487TIP3   OH237951   6.652   2.326  11.672  0.4399 -0.0336 -0.7493
 5487TIP3    H137952   6.633   2.273  11.594  0.0611 -0.4780 -0.3627
 5487TIP3    H237953   6.576   2.314  11.728  0.7346  0.2408 -0.2837
 5488TIP3   OH237954   5.299   2.711  10.349 -1.0935 -0.6982 -0.0072
 5488TIP3    H137955   5.214   2.752  10.363 -2.3571 -2.9151 -0.7174
 5488TIP3    H237956   5.301   2.637  10.409 -0.7332 -2.0878 -1.6431
 5489TIP3   OH237957   3.463   1.924  16.052 -0.7033  0.2385 -0.4078
 5489TIP3    H137958   3.489   2.016  16.054  0.9013 -0.1807 -0.8464
 5489TIP3    H237959   3.368   1.927  16.037 -1.0989  1.8318  1.8230
 5490TIP3   OH237960   1.439   6.757   3.225  0.2000 -0.0469  0.7990
 5490TIP3    H137961   1.357   6.718   3.256 -0.4922  0.7286 -0.0052
 5490TIP3    H237962   1.442   6.843   3.266  0.9391 -0.3196  1.3297
 5491TIP3   OH237963   6.537   0.048  11.261 -0.0497 -0.0758  0.3008
 5491TIP3    H137964   6.548   0.138  11.290  0.3034 -0.5216  1.6031
 5491TIP3    H237965   6.517   0.055  11.167 -2.2317  1.4483  0.8267
 5492TIP3   OH237966   6.046   4.878  11.433  0.5258 -0.2273  0.7006
 5492TIP3    H137967   6.000   4.794  11.432  0.9897 -0.5574 -2.0391
 5492TIP3    H237968   6.135   4.857  11.460 -0.0145 -0.1138  2.7279
 5493TIP3   OH237969   1.412   4.250   1.753  0.0369 -0.1774 -0.5851
 5493TIP3    H137970   1.448   4.258   1.842  1.9547  0.9483 -1.3994
 5493TIP3    H237971   1.392   4.340   1.728  0.9392 -0.2956 -1.8180
 5494TIP3   OH237972   4.105   0.149  15.230  0.1287 -0.5972 -0.0728
 5494TIP3    H137973   4.012   0.135  15.251 -0.2329  0.4050 -0.8878
 5494TIP3    H237974   4.130   0.072  15.180 -0.3454 -0.7633 -0.0645
 5495TIP3   OH237975   4.424   2.700   1.309 -1.0330 -0.3240 -0.0450
 5495TIP3    H137976   4.345   2.719   1.257 -1.1184  0.8479  0.4828
 5495TIP3    H237977   4.496   2.711   1.248 -1.2294 -0.8925 -0.3981
 5496TIP3   OH237978   4.010   4.972   1.143 -0.0666 -0.2530  0.3448
 5496TIP3    H137979   4.072   5.014   1.084  0.3352 -2.0594 -0.5834
 5496TIP3    H237980   3.927   4.972   1.095  0.0728 -1.0253  0.1000
 5497TIP3   OH237981   3.391   1.967  13.010  0.3034  0.5341  0.0520
 5497TIP3    H137982   3.466   2.000  13.060  1.7978 -1.1009 -0.9830
 5497TIP3    H237983   3.357   1.895  13.064 -0.8121  1.5054  0.6963
 5498TIP3   OH237984   3.161   6.138   4.404 -0.3553 -0.1014 -0.2830
 5498TIP3    H137985   3.247   6.139   4.446 -0.3571 -0.1508 -0.2776
 5498TIP3    H237986   3.169   6.199   4.331 -0.3422 -0.0395 -0.2293
 5499TIP3   OH237987   5.616   1.765  11.848  0.0932 -0.1529 -0.1342
 5499TIP3    H137988   5.673   1.826  11.802  0.3881  0.5921  1.1705
 5499TIP3    H237989   5.629   1.785  11.941 -1.2846 -0.8661  0.2443
 5500TIP3   OH237990   1.003   5.700  11.545 -0.2755 -0.3667 -0.4565
 5500TIP3    H137991   1.001   5.604  11.539 -0.2771 -0.5715  1.8330
 5500TIP3    H237992   0.943   5.729  11.477 -1.3678 -2.0607 -0.2867
 5501TIP3   OH237993   0.073   1.045   3.323 -0.4529  0.3908  0.1025
 5501TIP3    H137994   0.059   0.975   3.260 -2.1670 -1.0776  1.9743
 5501TIP3    H237995  -0.007   1.097   3.319 -0.0728  1.0048  0.2472
 5502TIP3   OH237996   5.936   5.931   6.225 -0.5882  0.1627  0.0354
 5502TIP3    H137997   5.912   5.981   6.302 -0.8759 -0.1616  0.1609
 5502TIP3    H237998   5.897   5.979   6.152  0.1289  0.7564  0.0342
 5503TIP3   OH237999   5.614   4.120   1.435  0.6466  0.0443 -0.7907
 5503TIP3    H138000   5.625   4.027   1.453  0.5116  0.4844  2.0288
 5503TIP3    H238001   5.526   4.128   1.400  0.9095 -0.9434 -1.7078
 5504TIP3   OH238002   4.298   2.684  10.827 -0.0837  0.3457 -0.3241
 5504TIP3    H138003   4.321   2.774  10.804  1.5473  0.5677  1.8647
 5504TIP3    H238004   4.318   2.633  10.749  3.7108  1.2209 -0.1128
 5505TIP3   OH238005   0.342   5.559   3.828 -0.4159 -0.7019 -0.5050
 5505TIP3    H138006   0.402   5.486   3.816  0.8569  0.2216  0.0552
 5505TIP3    H238007   0.297   5.566   3.744  2.1909  0.2433 -1.9539
 5506TIP3   OH238008   2.840   6.491   1.277  0.6784  0.0340 -0.1170
 5506TIP3    H138009   2.828   6.506   1.371 -0.4214 -0.9532 -0.0658
 5506TIP3    H238010   2.916   6.544   1.253  0.7480  0.5920  1.2509
 5507TIP3   OH238011   3.535   0.163  13.322 -0.5179 -0.4245 -0.2637
 5507TIP3    H138012   3.589   0.158  13.401  1.5311 -1.9243 -1.6448
 5507TIP3    H238013   3.512   0.256  13.315  1.0687  0.1155  0.9375
 5508TIP3   OH238014   6.699   3.839  12.815 -0.4372  0.2691 -0.1408
 5508TIP3    H138015   6.672   3.813  12.727 -0.4083  0.4834 -0.2122
 5508TIP3    H238016   6.703   3.756  12.864 -1.9239  0.2940  0.0729
 5509TIP3   OH238017   6.065   6.517   4.836  0.4296  0.3032 -0.1479
 5509TIP3    H138018   6.133   6.540   4.774  0.1303  2.4353  0.2533
 5509TIP3    H238019   6.016   6.447   4.793  1.7637 -0.0204 -1.1984
 5510TIP3   OH238020   6.349   0.646  13.698  0.0994  0.0935 -0.1926
 5510TIP3    H138021   6.300   0.587  13.756 -1.2803  1.9058  0.5878
 5510TIP3    H238022   6.284   0.677  13.635  0.6163  1.3282 -0.1300
 5511TIP3   OH238023   1.385   3.812  14.989 -1.1623 -0.6303  0.4955
 5511TIP3    H138024   1.412   3.864  15.065 -1.1943 -1.3925  1.0354
 5511TIP3    H238025   1.394   3.721  15.018 -1.3998 -0.9222 -0.3382
 5512TIP3   OH238026   5.605   2.829   1.035 -0.7756 -0.6940  0.0916
 5512TIP3    H138027   5.590   2.906   0.979 -0.9358 -1.4490 -0.9342
 5512TIP3    H238028   5.521   2.816   1.080 -0.6696 -0.1282  0.4632
 5513TIP3   OH238029   4.356   0.478   2.448  0.3335  0.1475 -0.0064
 5513TIP3    H138030   4.312   0.485   2.363 -0.0520 -2.1180 -0.0323
 5513TIP3    H238031   4.439   0.435   2.429  1.0646  1.2708  0.5388
 5514TIP3   OH238032   5.573   4.816  13.662 -0.1856 -0.0046  0.0057
 5514TIP3    H138033   5.578   4.761  13.740 -1.8068 -0.9001 -0.4719
 5514TIP3    H238034   5.590   4.755  13.589 -0.4909  0.4513 -0.4472
 5515TIP3   OH238035   1.697   3.654  11.696 -0.3670 -0.2638  0.1033
 5515TIP3    H138036   1.606   3.629  11.704 -0.5017 -0.1330 -0.9781
 5515TIP3    H238037   1.745   3.585  11.742 -0.9452 -0.7770 -0.0495
 5516TIP3   OH238038   2.119   4.579   1.548 -0.1089  0.1992  0.2511
 5516TIP3    H138039   2.086   4.653   1.498  0.1848  0.5952  0.6392
 5516TIP3    H238040   2.214   4.591   1.549  0.1802 -1.3588 -1.5647
 5517TIP3   OH238041   1.008   5.293   2.845  0.1092 -0.0473  0.3019
 5517TIP3    H138042   1.032   5.206   2.878 -1.2971 -0.8546 -0.6683
 5517TIP3    H238043   1.051   5.354   2.905  1.6882 -1.3903  0.6090
 5518TIP3   OH238044   0.905   5.753   5.983  0.2241  0.4790 -0.0956
 5518TIP3    H138045   0.897   5.672   5.933  1.1706  0.4518 -0.2328
 5518TIP3    H238046   0.905   5.822   5.916  0.5527  0.5072 -0.0695
 5519TIP3   OH238047   1.785   3.005  12.722 -0.8133 -0.3130  0.0729
 5519TIP3    H138048   1.826   2.931  12.767  0.0414  0.2361  0.2247
 5519TIP3    H238049   1.855   3.043  12.669 -0.9391  1.0297  0.8222
 5520TIP3   OH238050   2.552   3.657   4.740  0.3106 -0.1342  0.3313
 5520TIP3    H138051   2.614   3.724   4.709  0.4252 -0.8175 -1.0114
 5520TIP3    H238052   2.469   3.704   4.748  0.4673  0.2695 -0.2634
 5521TIP3   OH238053   6.661   6.532   5.022 -0.2824 -0.7195 -0.2350
 5521TIP3    H138054   6.695   6.611   5.065  1.5028 -0.6468 -1.6524
 5521TIP3    H238055   6.663   6.465   5.090  0.3979 -0.0939  0.3781
 5522TIP3   OH238056   0.329   1.470  10.826  0.4985  0.4968  0.2515
 5522TIP3    H138057   0.346   1.426  10.743 -0.3450  1.4795 -0.4615
 5522TIP3    H238058   0.416   1.497  10.857  0.7642  0.6397 -0.6045
 5523TIP3   OH238059   3.571   1.134  11.090 -0.0141  0.5049  0.4477
 5523TIP3    H138060   3.650   1.085  11.068 -0.2711  1.0533 -1.9579
 5523TIP3    H238061   3.603   1.219  11.120  0.3297  0.2304  0.8705
 5524TIP3   OH238062   4.402   6.542  14.689 -0.0833 -0.3920 -0.5212
 5524TIP3    H138063   4.443   6.477  14.633  1.7681  1.1084 -1.0233
 5524TIP3    H238064   4.473   6.578  14.741 -1.1157  0.8744  0.0918
 5525TIP3   OH238065   3.788   3.961   6.451  0.0509  0.0453 -0.5047
 5525TIP3    H138066   3.720   3.938   6.513  1.9720 -0.0958  1.6655
 5525TIP3    H238067   3.850   3.888   6.455  1.8747  1.5454 -0.0474
 5526TIP3   OH238068   1.267   2.968   1.913 -0.1105 -0.1011  0.1548
 5526TIP3    H138069   1.190   2.933   1.958 -0.3504  0.0296 -0.1485
 5526TIP3    H238070   1.255   3.063   1.914  0.4116 -0.0373  0.7458
 5527TIP3   OH238071   5.836   6.241   0.775 -0.0668 -0.4334  0.0689
 5527TIP3    H138072   5.931   6.255   0.769 -0.1829  0.8520  0.7962
 5527TIP3    H238073   5.827   6.155   0.816  0.8002 -0.3467  0.4686
 5528TIP3   OH238074   3.702   1.923   4.222  0.5791  0.2705 -0.2392
 5528TIP3    H138075   3.651   1.875   4.287  2.1959  2.0963  2.6142
 5528TIP3    H238076   3.639   1.983   4.181 -0.5471 -1.1732 -0.6725
 5529TIP3   OH238077   0.504   5.632   3.056  0.3468 -0.7067 -0.2099
 5529TIP3    H138078   0.501   5.675   3.142 -0.8320 -2.6034  0.7707
 5529TIP3    H238079   0.563   5.687   3.004 -3.0764  3.6725 -0.0308
 5530TIP3   OH238080   0.669   4.074   5.377  0.0681 -0.9115 -0.2736
 5530TIP3    H138081   0.626   4.006   5.430  1.0127 -0.7343  0.7738
 5530TIP3    H238082   0.710   4.132   5.441 -0.0603  0.2210 -1.1796
 5531TIP3   OH238083   5.646   4.749   3.490 -1.2369  0.5639 -0.2292
 5531TIP3    H138084   5.642   4.662   3.450 -0.8039  0.3074  0.2795
 5531TIP3    H238085   5.688   4.803   3.423  2.9843 -0.6534  1.1414
 5532TIP3   OH238086   4.957   6.525   3.320  0.6378 -0.1710  0.0548
 5532TIP3    H138087   4.994   6.598   3.370  1.0954  0.1339 -0.7097
 5532TIP3    H238088   4.985   6.541   3.230 -0.7336 -0.3512 -0.4248
 5533TIP3   OH238089   1.342   1.676  13.975  0.3627  0.3623  0.5959
 5533TIP3    H138090   1.436   1.667  13.958  0.2613  0.9235 -0.3409
 5533TIP3    H238091   1.322   1.766  13.948 -0.5326  0.0885  0.3403
 5534TIP3   OH238092   0.801   5.321  12.577  0.4139 -0.0780  0.4631
 5534TIP3    H138093   0.841   5.277  12.502 -0.6622  3.1661 -2.3019
 5534TIP3    H238094   0.790   5.252  12.642 -0.1005 -3.6085 -2.9326
 5535TIP3   OH238095   3.953   1.000  11.218 -0.5694  0.3987 -0.0095
 5535TIP3    H138096   3.870   1.043  11.242 -1.2892 -0.1689 -1.3682
 5535TIP3    H238097   3.957   1.009  11.123  0.3744 -0.5889 -0.0769
 5536TIP3   OH238098   4.328   5.004  16.613  0.5912  0.8036  0.5932
 5536TIP3    H138099   4.285   4.923  16.585 -0.3475  1.4634  0.0748
 5536TIP3    H238100   4.309   5.010  16.707 -0.2696  0.9676  0.4142
 5537TIP3   OH238101   1.560   3.310   3.470  0.3502 -0.4246 -0.4973
 5537TIP3    H138102   1.603   3.382   3.426 -0.1490 -0.3983 -0.9589
 5537TIP3    H238103   1.605   3.301   3.554 -1.9481  2.9259  1.3254
 5538TIP3   OH238104   5.228   6.671  12.622 -0.7391  0.3631 -0.4960
 5538TIP3    H138105   5.168   6.643  12.553  0.5623  0.7765 -1.8535
 5538TIP3    H238106   5.241   6.764  12.606 -1.1073  0.6763  0.8907
 5539TIP3   OH238107   0.269   4.996  14.587  0.0406 -0.0149 -0.0120
 5539TIP3    H138108   0.309   4.911  14.608  0.2618  0.0027 -0.3608
 5539TIP3    H238109   0.236   4.986  14.498 -0.5507  0.0400  0.1957
 5540TIP3   OH238110   2.093   5.926   3.993  0.3806  0.6904 -0.2031
 5540TIP3    H138111   2.089   5.864   4.065 -0.8463 -1.1714 -1.7606
 5540TIP3    H238112   2.165   5.894   3.938 -0.0350  0.8437 -0.8479
 5541TIP3   OH238113   2.900   0.285  16.419 -0.0469  0.1615 -0.3416
 5541TIP3    H138114   2.927   0.360  16.366 -0.8899 -0.2606 -1.4185
 5541TIP3    H238115   2.806   0.276  16.400 -0.2889 -0.2283  0.9634
 5542TIP3   OH238116   2.013   1.824  13.027 -0.3004 -0.3729 -0.0925
 5542TIP3    H138117   1.963   1.780  13.095 -1.2132 -1.5557 -1.4679
 5542TIP3    H238118   2.045   1.904  13.068 -0.6081 -1.1629  1.7727
 5543TIP3   OH238119   1.099   5.568  17.122 -0.2221 -0.2781 -0.6397
 5543TIP3    H138120   1.146   5.503  17.070 -0.5567 -0.1685 -1.0813
 5543TIP3    H238121   1.169   5.619  17.165  0.0374 -1.0700 -0.1035
 5544TIP3   OH238122   3.103   6.225  11.722 -0.3137  0.2809 -0.3473
 5544TIP3    H138123   3.139   6.195  11.805  2.0091  0.2955 -1.2797
 5544TIP3    H238124   3.023   6.174  11.710 -1.1440  0.8413  2.2386
 5545TIP3   OH238125   1.296   2.581  12.324 -0.4020  0.2634  0.0805
 5545TIP3    H138126   1.311   2.675  12.335 -1.4122  0.4662 -0.1280
 5545TIP3    H238127   1.379   2.547  12.291 -1.2931  1.9266 -4.7903
 5546TIP3   OH238128   6.801   5.904  15.631  0.3068 -0.3668  0.3083
 5546TIP3    H138129   6.725   5.848  15.623  0.0412  0.0702 -0.3468
 5546TIP3    H238130   6.822   5.905  15.725 -0.4753 -0.5072  0.4848
 5547TIP3   OH238131   1.261   6.323   1.759  0.1698 -0.4217  0.1609
 5547TIP3    H138132   1.355   6.333   1.743  0.1600  0.2773  0.5154
 5547TIP3    H238133   1.246   6.369   1.841 -0.5093 -0.4177  0.0374
 5548TIP3   OH238134   6.257   4.619   4.941  0.1583 -0.1848  0.3757
 5548TIP3    H138135   6.342   4.581   4.964 -0.2242 -0.9651  0.5219
 5548TIP3    H238136   6.224   4.565   4.869 -0.7783 -0.6747  1.1548
 5549TIP3   OH238137   3.588   3.116   6.436  0.0606 -0.0626  0.1821
 5549TIP3    H138138   3.492   3.115   6.437  0.0087 -1.9127 -1.3398
 5549TIP3    H238139   3.613   3.093   6.525 -0.9312 -0.7178  0.3084
 5550TIP3   OH238140   3.838   0.964   1.057  0.6283  0.1852 -0.0353
 5550TIP3    H138141   3.901   0.898   1.029 -0.4430  0.1200 -2.5552
 5550TIP3    H238142   3.814   0.939   1.146  2.8885 -0.7205  0.3794
 5551TIP3   OH238143   4.152   3.751   3.319  0.2363  0.3336 -0.1149
 5551TIP3    H138144   4.104   3.758   3.237  1.5128 -0.3708 -0.9639
 5551TIP3    H238145   4.206   3.672   3.308 -0.2913 -0.3538  1.7963
 5552TIP3   OH238146   0.566   4.898  14.311  0.5994 -0.2664  0.0392
 5552TIP3    H138147   0.662   4.894  14.313  0.5650 -1.3036  0.2921
 5552TIP3    H238148   0.546   4.991  14.309  1.5867  0.1987  3.5830
 5553TIP3   OH238149   2.399   1.666  13.057 -0.5204 -0.2682 -0.4200
 5553TIP3    H138150   2.426   1.721  13.131 -0.9607  0.0690 -0.5042
 5553TIP3    H238151   2.470   1.603  13.047  1.0549  1.6003 -1.6891
 5554TIP3   OH238152   3.167   5.433   4.041  0.0210  0.2571 -0.0375
 5554TIP3    H138153   3.153   5.484   4.121 -0.9184 -1.5972  1.0421
 5554TIP3    H238154   3.079   5.410   4.012  0.4267 -1.1492 -0.2142
 5555TIP3   OH238155   0.386   6.525   4.855  0.5009 -0.3190 -0.2883
 5555TIP3    H138156   0.473   6.498   4.882  0.0999 -1.8140 -0.4217
 5555TIP3    H238157   0.367   6.472   4.777  0.1752  1.2750 -1.3496
 5556TIP3   OH238158   0.754   2.910   5.691 -0.1035  0.1236 -0.3652
 5556TIP3    H138159   0.758   2.838   5.753  1.3414 -0.5136 -1.1423
 5556TIP3    H238160   0.673   2.895   5.642 -0.8601  0.2094  0.8134
 5557TIP3   OH238161   3.763   4.198  10.857 -0.2722 -0.0906  0.0250
 5557TIP3    H138162   3.852   4.194  10.822 -1.3182 -0.4429 -2.8589
 5557TIP3    H238163   3.720   4.268  10.807 -1.1370  1.5033  2.7572
 5558TIP3   OH238164   6.160   3.609   4.156 -0.3446  0.2982 -0.0541
 5558TIP3    H138165   6.219   3.592   4.083 -0.1875  0.3069  0.0693
 5558TIP3    H238166   6.140   3.522   4.191 -0.5905  0.2779 -0.2386
 5559TIP3   OH238167   1.458   4.538  14.927  0.0401  0.1832 -0.0106
 5559TIP3    H138168   1.454   4.443  14.940  1.6759  0.1516  0.3458
 5559TIP3    H238169   1.440   4.549  14.833 -2.3362 -0.2654  0.3108
 5560TIP3   OH238170   2.940   5.011   0.787 -0.0197  0.2716  0.3361
 5560TIP3    H138171   2.945   5.104   0.765  0.1526 -0.2810 -2.3654
 5560TIP3    H238172   3.015   4.995   0.844  1.5118  1.3190 -1.2774
 5561TIP3   OH238173   1.826   2.783  16.969 -0.5033 -0.5008 -0.1930
 5561TIP3    H138174   1.845   2.709  17.027 -0.6547 -0.5961 -0.2644
 5561TIP3    H238175   1.871   2.763  16.888 -0.6090 -0.5533 -0.2389
 5562TIP3   OH238176   1.124   5.715   6.513  0.5523 -0.3289 -0.5319
 5562TIP3    H138177   1.188   5.712   6.442  0.6016 -0.4031 -0.4849
 5562TIP3    H238178   1.136   5.632   6.559 -1.1834 -1.4248 -1.9119
 5563TIP3   OH238179   4.272   1.584  16.519 -0.2102 -0.2900  0.1490
 5563TIP3    H138180   4.255   1.574  16.425 -0.6139  0.7298  0.1094
 5563TIP3    H238181   4.298   1.675  16.530  1.9238 -0.9094  0.7366
 5564TIP3   OH238182   1.128   5.044   5.352  0.6818 -0.0337  0.2099
 5564TIP3    H138183   1.042   5.051   5.393  0.2711 -1.8446 -0.2601
 5564TIP3    H238184   1.190   5.045   5.425  0.4139  2.4910  0.4960
 5565TIP3   OH238185   6.598   5.633   2.294 -0.2536 -0.1359 -0.4964
 5565TIP3    H138186   6.630   5.602   2.209 -0.7240  1.4792 -1.3174
 5565TIP3    H238187   6.503   5.621   2.289 -0.0989 -2.5629  0.9300
 5566TIP3   OH238188   1.914   4.490  10.955  0.1017 -0.4253  0.2791
 5566TIP3    H138189   1.965   4.410  10.964 -3.2999 -3.1156 -1.6444
 5566TIP3    H238190   1.961   4.541  10.889  1.5668 -1.5132  0.4224
 5567TIP3   OH238191   0.547   5.077  11.029 -0.0217  0.2483 -0.0187
 5567TIP3    H138192   0.584   5.152  10.983 -1.8183  0.0503 -1.9084
 5567TIP3    H238193   0.587   5.000  10.988 -1.9694  0.0536 -1.7008
 5568TIP3   OH238194   4.409   5.941  12.469 -0.2528 -0.1109 -0.5669
 5568TIP3    H138195   4.318   5.969  12.467 -0.5790 -0.9063  1.0911
 5568TIP3    H238196   4.419   5.887  12.390 -2.0106 -2.1458  0.4728
 5569TIP3   OH238197   2.067   0.515  15.757 -0.6789 -0.0964 -0.2707
 5569TIP3    H138198   2.019   0.597  15.746 -0.6892  0.1447  1.3572
 5569TIP3    H238199   1.999   0.448  15.759 -0.8565  0.0956  0.5790
 5570TIP3   OH238200   4.653   3.087   0.337 -0.0070 -0.1179 -0.2814
 5570TIP3    H138201   4.629   3.008   0.288  0.5956  0.1682 -1.0600
 5570TIP3    H238202   4.702   3.140   0.274  2.6625 -0.6554  1.1966
 5571TIP3   OH238203   3.017   0.377  10.721  0.0624  0.2247 -0.2915
 5571TIP3    H138204   3.020   0.471  10.738 -0.8255  0.8579 -3.0784
 5571TIP3    H238205   2.973   0.340  10.797  2.2186  1.7227  1.8220
 5572TIP3   OH238206   1.539   1.989  14.457 -0.0348  0.3754  0.1423
 5572TIP3    H138207   1.519   2.081  14.441  1.0950  0.7027  0.5252
 5572TIP3    H238208   1.561   1.954  14.371 -2.9857 -0.2300 -0.4614
 5573TIP3   OH238209   4.347   4.300   1.547 -0.2044  0.1916 -0.4897
 5573TIP3    H138210   4.299   4.350   1.481 -0.8562 -0.6040 -0.6428
 5573TIP3    H238211   4.372   4.364   1.613 -0.0235  0.9069 -1.2366
 5574TIP3   OH238212   2.807   4.802  13.850 -0.3962  0.2954 -0.1814
 5574TIP3    H138213   2.897   4.769  13.859 -0.1872  1.0706  0.7502
 5574TIP3    H238214   2.771   4.794  13.938 -1.4883 -0.6529 -0.6894
 5575TIP3   OH238215   5.078   6.172   3.037 -0.2189 -0.5149  0.0011
 5575TIP3    H138216   5.109   6.159   2.947 -1.5276 -1.1413 -0.3933
 5575TIP3    H238217   5.155   6.158   3.092  0.1883 -2.1126 -0.9197
 5576TIP3   OH238218   2.210   2.949  12.130  0.0350 -0.3250 -0.1555
 5576TIP3    H138219   2.242   2.883  12.191 -0.2531 -2.5005 -2.2234
 5576TIP3    H238220   2.136   2.907  12.086 -0.2061  1.4052 -1.5010
 5577TIP3   OH238221   0.423   2.806   5.790  0.4288  0.2024  0.0753
 5577TIP3    H138222   0.510   2.773   5.813 -0.6115 -1.0964  2.5093
 5577TIP3    H238223   0.382   2.734   5.742 -0.9925 -1.3268  3.3145
 5578TIP3   OH238224   5.091   1.702   5.339  0.0690 -0.4517  0.5990
 5578TIP3    H138225   5.047   1.754   5.271  0.3075 -0.6588  0.2891
 5578TIP3    H238226   5.035   1.626   5.350  0.7529 -1.1081 -0.3579
 5579TIP3   OH238227   5.054   1.190  13.904 -0.1412 -0.4780  0.0644
 5579TIP3    H138228   5.104   1.193  13.985 -0.4015 -0.0300  0.2137
 5579TIP3    H238229   5.072   1.274  13.862 -2.0708  0.4386  0.9273
 5580TIP3   OH238230   4.488   2.773   1.710  0.1988 -0.6953 -0.5462
 5580TIP3    H138231   4.501   2.679   1.724  3.1248 -0.3443 -0.2552
 5580TIP3    H238232   4.511   2.813   1.794  0.7860  0.3923 -1.2044
 5581TIP3   OH238233   3.920   2.797   3.943  0.4615 -0.1503 -0.1555
 5581TIP3    H138234   3.909   2.885   3.978 -0.2591 -0.5793  0.7573
 5581TIP3    H238235   3.881   2.801   3.856 -0.6359  0.1592  0.3305
 5582TIP3   OH238236   5.154   0.256  13.345 -0.0275 -0.1354 -0.0577
 5582TIP3    H138237   5.174   0.291  13.432 -0.3757 -0.3050  0.0910
 5582TIP3    H238238   5.222   0.293  13.288 -0.2807  0.6329  0.1347
 5583TIP3   OH238239   0.261   2.501  15.384 -0.0707 -0.0530  0.2326
 5583TIP3    H138240   0.325   2.566  15.355 -0.3837  0.4071  0.5408
 5583TIP3    H238241   0.228   2.462  15.304  0.8716 -0.5733  0.0809
 5584TIP3   OH238242   6.476   1.114  12.811  0.1918  0.2209  0.4436
 5584TIP3    H138243   6.407   1.052  12.834  0.8191 -0.8521 -0.4616
 5584TIP3    H238244   6.432   1.179  12.756 -0.1941 -0.2534  0.1746
 5585TIP3   OH238245   6.125   1.241   4.284 -0.2039 -0.3602 -0.2660
 5585TIP3    H138246   6.181   1.301   4.234  0.0563  0.0531  0.5018
 5585TIP3    H238247   6.062   1.207   4.220 -0.1271  0.4652 -0.7914
 5586TIP3   OH238248   0.543   6.418  10.994  0.6735  0.0440 -0.2234
 5586TIP3    H138249   0.604   6.388  10.927  0.4357 -0.3964 -0.2401
 5586TIP3    H238250   0.461   6.373  10.974  0.2358  0.9003 -0.4160
 5587TIP3   OH238251   6.713   4.633  10.396  0.6991 -0.0445  0.2231
 5587TIP3    H138252   6.789   4.633  10.338 -0.9564 -0.9086 -2.1433
 5587TIP3    H238253   6.714   4.547  10.438  1.8893  0.5702  1.5119
 5588TIP3   OH238254   0.414   4.544   2.769 -0.3792  0.3339 -0.4191
 5588TIP3    H138255   0.449   4.516   2.684 -1.5892 -0.1558 -0.7854
 5588TIP3    H238256   0.339   4.486   2.783 -0.8400  1.1244  0.4752
 5589TIP3   OH238257   1.866   0.889   4.191  0.4259  0.4387  0.4847
 5589TIP3    H138258   1.779   0.853   4.173  0.7213 -0.3311  0.5951
 5589TIP3    H238259   1.850   0.959   4.254 -0.0911  0.1574  0.6734
 5590TIP3   OH238260   2.807   4.847  12.623 -0.4810 -0.6070  0.0057
 5590TIP3    H138261   2.752   4.779  12.663  0.5088 -0.7815  1.1306
 5590TIP3    H238262   2.851   4.889  12.697 -0.6284  0.8875 -0.7239
 5591TIP3   OH238263   3.575   2.614  17.006 -0.1621  0.1983 -0.0913
 5591TIP3    H138264   3.503   2.677  17.008 -0.0520  0.3860 -1.3747
 5591TIP3    H238265   3.535   2.531  17.033 -0.7164  0.4363 -0.1584
 5592TIP3   OH238266   0.489   6.573  13.071 -0.0329 -0.1297 -0.3513
 5592TIP3    H138267   0.516   6.511  13.003  0.8073 -0.5732  0.3751
 5592TIP3    H238268   0.568   6.623  13.091  0.0353 -0.7649  1.0911
 5593TIP3   OH238269   5.513   3.788   2.939  0.0402 -0.0078  0.3663
 5593TIP3    H138270   5.555   3.857   2.887 -1.1576 -0.1139 -0.7883
 5593TIP3    H238271   5.574   3.714   2.932 -0.2905 -0.1587 -1.2818
 5594TIP3   OH238272   1.208   0.396   4.982 -0.3234 -0.4396  0.0802
 5594TIP3    H138273   1.228   0.308   5.011 -0.0768 -0.3607  0.1516
 5594TIP3    H238274   1.290   0.444   4.993 -0.7965  0.1269  1.2539
 5595TIP3   OH238275   2.303   3.865   2.017  0.0580 -0.6927  0.9996
 5595TIP3    H138276   2.326   3.957   2.027  1.5031 -0.7788 -0.8030
 5595TIP3    H238277   2.226   3.866   1.960  1.0012 -0.5914 -0.3247
 5596TIP3   OH238278   1.434   1.473   2.528  0.6134 -0.2476  0.4501
 5596TIP3    H138279   1.380   1.435   2.459 -0.7895 -1.6089  2.1973
 5596TIP3    H238280   1.394   1.442   2.609  2.5851  0.7551  1.8782
 5597TIP3   OH238281   6.771   0.616  14.800 -0.0752  0.3074  0.5644
 5597TIP3    H138282   6.740   0.618  14.890 -1.8003  1.7377 -0.0106
 5597TIP3    H238283   6.719   0.682  14.755  1.1352  0.0172 -1.3706
 5598TIP3   OH238284   4.606   4.336   3.667 -1.2717 -0.2030  0.1197
 5598TIP3    H138285   4.668   4.273   3.704 -2.4898 -1.0743  0.7206
 5598TIP3    H238286   4.606   4.317   3.573 -1.3366 -0.8312  0.2446
 5599TIP3   OH238287   1.201   0.125  13.296 -0.3557 -0.5679  0.0212
 5599TIP3    H138288   1.122   0.134  13.349  0.5511  0.5267  1.2500
 5599TIP3    H238289   1.190   0.189  13.226  0.2309  0.9501  1.2582
 5600TIP3   OH238290   4.524   2.123   0.738  0.4673 -0.2210 -0.6696
 5600TIP3    H138291   4.604   2.147   0.692 -0.6630  1.2704 -1.9493
 5600TIP3    H238292   4.475   2.204   0.746 -0.1122 -0.7206  1.8219
 5601TIP3   OH238293   4.368   3.166  15.157 -0.3795 -0.8741 -0.5381
 5601TIP3    H138294   4.302   3.101  15.176  1.7423 -2.5762  1.6171
 5601TIP3    H238295   4.377   3.217  15.237  0.4122 -0.1838 -1.0329
 5602TIP3   OH238296   4.038   3.225  13.039  0.6106 -0.4358 -0.4228
 5602TIP3    H138297   3.965   3.278  13.006  0.1707 -0.4902  0.4404
 5602TIP3    H238298   3.997   3.143  13.067  0.8574 -0.1149  0.9245
 5603TIP3   OH238299   5.628   3.278  14.437  0.1769 -0.0901 -0.4132
 5603TIP3    H138300   5.540   3.259  14.469  0.1928  0.7649  0.1589
 5603TIP3    H238301   5.617   3.351  14.376  0.4611 -0.1330 -0.5192
 5604TIP3   OH238302   0.187   6.739  16.200  0.6531 -0.5314 -0.4586
 5604TIP3    H138303   0.252   6.804  16.229 -1.5866  0.9753  1.6388
 5604TIP3    H238304   0.203   6.663  16.255 -0.8408  0.7727  1.9572
 5605TIP3   OH238305   6.645   1.892   4.815 -0.2662  0.4137 -0.3467
 5605TIP3    H138306   6.566   1.934   4.850 -1.3264 -0.3568 -1.7291
 5605TIP3    H238307   6.625   1.799   4.815  0.4841  0.2396 -1.1265
 5606TIP3   OH238308   6.772   4.684   1.882  0.4281  0.0213  0.3200
 5606TIP3    H138309   6.721   4.726   1.951  1.3946  0.5706  0.7032
 5606TIP3    H238310   6.832   4.751   1.851  0.1799 -0.2885 -0.9023
 5607TIP3   OH238311   0.003   4.422   6.531  0.3973 -0.1095  0.2380
 5607TIP3    H138312   0.043   4.472   6.460  0.3304 -0.1260  0.1885
 5607TIP3    H238313   0.064   4.349   6.546  0.3399 -0.1873  0.0982
 5608TIP3   OH238314   3.831   4.621  15.561  0.3202  0.3433 -0.5944
 5608TIP3    H138315   3.774   4.690  15.527 -0.9063 -1.2255 -1.9018
 5608TIP3    H238316   3.772   4.561  15.607  1.5077  0.6580  1.4228
 5609TIP3   OH238317   3.650   1.024  13.696  0.2863 -0.3026  0.0719
 5609TIP3    H138318   3.611   1.081  13.763 -0.2123 -0.0309 -0.4452
 5609TIP3    H238319   3.685   1.084  13.631 -0.3575 -0.5734 -0.5420
 5610TIP3   OH238320   0.183   6.107  12.580 -0.0826  0.3364 -0.4654
 5610TIP3    H138321   0.243   6.181  12.587  2.0874 -1.4596  1.3778
 5610TIP3    H238322   0.099   6.141  12.611  0.8847  1.9663  0.5006
 5611TIP3   OH238323   4.523   5.690  16.212 -0.2691  0.7405 -0.0527
 5611TIP3    H138324   4.505   5.739  16.292 -0.4222 -0.0255  0.3922
 5611TIP3    H238325   4.523   5.756  16.142 -0.0752  1.4181  0.5849
 5612TIP3   OH238326   5.786   0.945  14.382 -0.1859 -0.0041  0.4162
 5612TIP3    H138327   5.826   0.911  14.463  0.5062  0.0303  0.0948
 5612TIP3    H238328   5.767   0.866  14.330  0.0641  0.0159  0.2941
 5613TIP3   OH238329   5.857   0.613  11.790 -0.0141  0.5683  0.3065
 5613TIP3    H138330   5.851   0.518  11.782  0.1194  0.6701 -1.4835
 5613TIP3    H238331   5.818   0.646  11.709  0.2807  2.0349  0.7351
 5614TIP3   OH238332   4.212   4.456   5.845 -0.4363 -0.1729 -0.1938
 5614TIP3    H138333   4.129   4.492   5.875 -1.3186 -1.6335 -0.7698
 5614TIP3    H238334   4.252   4.418   5.924 -0.7046 -0.1876 -0.0653
 5615TIP3   OH238335   3.722   4.207   2.874  0.1001 -0.3224 -0.2123
 5615TIP3    H138336   3.670   4.134   2.908 -0.3121 -0.3392 -0.8664
 5615TIP3    H238337   3.757   4.250   2.952  1.4744 -2.0281  0.1724
 5616TIP3   OH238338   2.662   6.026  16.053 -0.1147  0.2901 -0.5642
 5616TIP3    H138339   2.739   5.983  16.014  1.5743  1.3069  1.4231
 5616TIP3    H238340   2.632   5.966  16.120  0.4161  0.8751  0.2174
 5617TIP3   OH238341   4.233   0.608   0.006  0.0161  0.1902  0.3616
 5617TIP3    H138342   4.245   0.691   0.052  0.5643  0.2588  0.1134
 5617TIP3    H238343   4.147   0.576   0.034 -0.1528  0.7909  0.5338
 5618TIP3   OH238344   2.527   5.796  15.391  0.6260 -0.6115 -0.5717
 5618TIP3    H138345   2.449   5.817  15.340  0.4389 -0.8670 -0.3882
 5618TIP3    H238346   2.597   5.790  15.325  0.6309  0.2796 -0.6629
 5619TIP3   OH238347   5.873   5.719  16.426 -0.5865  0.7076 -0.7100
 5619TIP3    H138348   5.924   5.761  16.357  0.7294 -0.9264 -0.7931
 5619TIP3    H238349   5.910   5.632  16.434 -0.8163  0.7634  1.9525
 5620TIP3   OH238350   4.630   3.045   5.288  0.4760 -0.2505  0.3924
 5620TIP3    H138351   4.575   3.117   5.319  2.3347  1.7690 -0.7348
 5620TIP3    H238352   4.571   2.970   5.286 -1.0790  0.6955  3.4992
 5621TIP3   OH238353   1.622   4.071  15.448 -0.6770 -0.5231 -0.2317
 5621TIP3    H138354   1.562   4.003  15.418 -0.6410 -0.4981 -0.3627
 5621TIP3    H238355   1.699   4.024  15.480 -1.6840 -0.6837  2.1105
 5622TIP3   OH238356   1.775   6.245   1.414  0.0252  0.0156 -0.5539
 5622TIP3    H138357   1.862   6.282   1.422  0.4579 -1.2214  0.9302
 5622TIP3    H238358   1.761   6.235   1.319  1.5082  0.1895 -0.8083
 5623TIP3   OH238359   2.773   0.039  12.750 -0.3282 -0.1390  0.4548
 5623TIP3    H138360   2.734   0.037  12.838 -1.0169  0.2706  0.1677
 5623TIP3    H238361   2.722  -0.025  12.700  2.2447 -2.9956  1.1957
 5624TIP3   OH238362   3.903   3.973   3.207  0.9960  0.2630 -0.4144
 5624TIP3    H138363   3.857   4.032   3.266  1.9166 -0.0194  0.6111
 5624TIP3    H238364   3.993   4.006   3.206  1.2910 -0.5384 -0.5994
 5625TIP3   OH238365   2.872   5.406  12.394 -0.2553  0.0952 -0.6362
 5625TIP3    H138366   2.847   5.336  12.455  0.0420  1.6132  1.3575
 5625TIP3    H238367   2.839   5.486  12.436  0.6874  1.3054 -2.1007
 5626TIP3   OH238368   5.651   5.878   4.465 -0.4994  0.1330  0.7467
 5626TIP3    H138369   5.740   5.897   4.433 -1.1307 -0.4933 -1.6375
 5626TIP3    H238370   5.664   5.823   4.542  1.1723  1.0681  1.1856
 5627TIP3   OH238371   0.788   6.209  11.252  0.4833  0.3354 -0.1146
 5627TIP3    H138372   0.706   6.198  11.300  0.0792  0.7358 -0.7062
 5627TIP3    H238373   0.765   6.194  11.161  0.8569  1.4163 -0.4063
 5628TIP3   OH238374   6.527   1.994  15.898 -0.0876 -0.2680 -0.5200
 5628TIP3    H138375   6.462   1.949  15.952 -0.3766  0.1148 -0.5424
 5628TIP3    H238376   6.516   2.087  15.919  0.4976 -0.2039 -0.4796
 5629TIP3   OH238377   2.307   2.974   0.594 -0.2619  0.0450  0.2372
 5629TIP3    H138378   2.286   3.041   0.530 -1.5657 -1.0986 -0.5929
 5629TIP3    H238379   2.402   2.966   0.591 -0.2200  0.7561 -0.7804
 5630TIP3   OH238380   0.853   6.004   5.249 -0.0322 -0.1541 -0.3190
 5630TIP3    H138381   0.843   6.018   5.343 -1.1086  0.6604 -0.5350
 5630TIP3    H238382   0.883   6.088   5.216  0.6223 -0.5224 -0.6691
 5631TIP3   OH238383   3.389   5.718  16.679  0.3728 -0.2533 -0.6738
 5631TIP3    H138384   3.387   5.813  16.666 -0.0018 -0.1532  0.0837
 5631TIP3    H238385   3.318   5.686  16.623  0.0921 -0.0225 -0.4587
 5632TIP3   OH238386   4.729   5.942  16.078  0.0301 -0.2063 -0.4985
 5632TIP3    H138387   4.822   5.920  16.078 -0.0762 -0.6701 -0.1092
 5632TIP3    H238388   4.696   5.907  15.995  0.4283  0.9741 -1.1752
 5633TIP3   OH238389   5.211   5.769   0.983 -0.1391  0.0385 -0.0454
 5633TIP3    H138390   5.284   5.709   0.974 -1.0639 -0.9058 -1.7204
 5633TIP3    H238391   5.237   5.829   1.054  1.3910 -1.4504  0.7104
 5634TIP3   OH238392   6.783   3.384   0.486 -0.3918  0.3279 -0.3922
 5634TIP3    H138393   6.726   3.307   0.475  0.5072 -0.3856 -0.1629
 5634TIP3    H238394   6.871   3.347   0.494 -0.2808  1.0262  3.8670
 5635TIP3   OH238395   1.712   5.125  13.988  0.0877  0.4430 -0.0807
 5635TIP3    H138396   1.691   5.095  13.900  1.3496  0.8473 -0.5362
 5635TIP3    H238397   1.648   5.194  14.006  0.0865  0.6527 -0.8511
 5636TIP3   OH238398   2.701   0.818  17.080 -0.4558  0.2421 -0.0082
 5636TIP3    H138399   2.794   0.825  17.099 -0.1292 -2.0408 -0.4871
 5636TIP3    H238400   2.692   0.847  16.989 -0.5123  1.9973  0.5222
 5637TIP3   OH238401   3.795   3.446  15.299 -0.5994  0.0590 -0.3009
 5637TIP3    H138402   3.803   3.367  15.353  1.1178  1.5629  1.8276
 5637TIP3    H238403   3.858   3.431  15.227  1.8450  0.5328  1.6059
 5638TIP3   OH238404   0.954   3.101  16.413  0.0789  0.7800  1.2313
 5638TIP3    H138405   1.022   3.057  16.465 -0.4686 -1.7093  0.0122
 5638TIP3    H238406   0.890   3.032  16.396 -1.2825  2.3168 -0.1268
 5639TIP3   OH238407   4.198   2.671  13.850 -0.5304 -0.8118 -0.0781
 5639TIP3    H138408   4.148   2.709  13.922  1.2000  0.7104  0.4145
 5639TIP3    H238409   4.219   2.583  13.879  0.2166 -0.1922  1.3842
 5640TIP3   OH238410   1.331   0.528   5.370 -0.4608 -0.1371 -0.4890
 5640TIP3    H138411   1.325   0.609   5.419 -1.3850  0.1949 -1.1207
 5640TIP3    H238412   1.425   0.511   5.364 -0.2940 -1.3602  3.1978
 5641TIP3   OH238413   6.138   6.066  15.327  0.4426  0.0708 -0.5374
 5641TIP3    H138414   6.157   5.983  15.370 -0.8216  0.0314 -0.0234
 5641TIP3    H238415   6.223   6.110  15.322  0.7520 -0.2627  1.2779
 5642TIP3   OH238416   5.016   0.909   2.659 -0.1247  0.1695 -0.3144
 5642TIP3    H138417   4.964   0.937   2.735 -0.2615 -0.8384 -0.0193
 5642TIP3    H238418   4.951   0.872   2.599 -0.0335  1.0981 -0.9952
 5643TIP3   OH238419   5.511   3.819   2.019  0.7206  0.9124  0.3742
 5643TIP3    H138420   5.465   3.858   1.944 -0.9584  0.0784  0.9125
 5643TIP3    H238421   5.442   3.803   2.083  1.7145 -0.7700  1.0818
 5644TIP3   OH238422   1.051   3.952   0.906 -0.4420  0.2245 -0.3794
 5644TIP3    H138423   1.049   4.044   0.931 -1.7540  0.0122  0.3725
 5644TIP3    H238424   0.974   3.940   0.851  0.9043  0.0496 -2.3309
 5645TIP3   OH238425   2.973   1.261   1.057 -0.3040 -0.9709  0.5322
 5645TIP3    H138426   2.921   1.200   1.110 -1.4187 -1.0902 -0.6365
 5645TIP3    H238427   2.984   1.217   0.973  2.1053 -1.1197  0.8685
 5646TIP3   OH238428   2.141   5.930  15.651  0.0876  0.1015  0.2061
 5646TIP3    H138429   2.094   5.849  15.674  0.1350 -0.2033 -0.7393
 5646TIP3    H238430   2.076   5.982  15.603  0.2467  0.3514  0.2621
 5647TIP3   OH238431   4.514   2.704   3.152  0.2316  0.0044  0.0123
 5647TIP3    H138432   4.486   2.702   3.243 -0.3339 -1.4617 -0.1725
 5647TIP3    H238433   4.574   2.630   3.143 -1.8800 -1.6422 -1.4493
 5648TIP3   OH238434   6.714   1.938  11.482 -0.0277  0.2798 -0.3219
 5648TIP3    H138435   6.729   1.844  11.470 -1.0566  0.2709 -1.9237
 5648TIP3    H238436   6.800   1.975  11.500  0.2368 -1.0938  1.5381
 5649TIP3   OH238437   0.205   4.427   0.167  0.3442  0.3815  0.0820
 5649TIP3    H138438   0.245   4.418   0.253  2.1112  1.1145 -0.6158
 5649TIP3    H238439   0.276   4.457   0.110 -0.8086  0.0880 -1.6020
 5650TIP3   OH238440   4.456   3.797   4.996  0.2005 -0.3891 -0.7683
 5650TIP3    H138441   4.467   3.702   4.988  1.1623 -0.5462  1.6942
 5650TIP3    H238442   4.372   3.814   4.952  0.5983 -2.1630 -2.3555
 5651TIP3   OH238443   3.463   2.561  12.005  0.1691  0.2049  0.0384
 5651TIP3    H138444   3.555   2.563  12.031 -0.2072  0.4946  1.4878
 5651TIP3    H238445   3.425   2.640  12.045 -0.2896  1.2907 -2.3707
 5652TIP3   OH238446   1.723   4.013  13.309  0.6438  0.1099  0.0132
 5652TIP3    H138447   1.726   4.087  13.370 -0.7808 -0.7776  1.2307
 5652TIP3    H238448   1.806   3.967  13.323  0.7327  0.4417  0.6173
 5653TIP3   OH238449   4.860   4.592  11.295 -0.1751  0.7316  0.4510
 5653TIP3    H138450   4.861   4.641  11.378  0.5961 -0.2665  1.0493
 5653TIP3    H238451   4.916   4.643  11.237 -0.7588  1.4644  0.5061
 5654TIP3   OH238452   5.660   5.863   6.451  0.1026  0.1969 -0.0687
 5654TIP3    H138453   5.714   5.941   6.463 -0.2759  0.8097 -2.0064
 5654TIP3    H238454   5.571   5.893   6.467  0.1099 -0.3422  1.1269
 5655TIP3   OH238455   1.426   0.210  12.845  0.0133 -0.2352 -0.3291
 5655TIP3    H138456   1.406   0.166  12.762  0.7435  0.2381 -0.7664
 5655TIP3    H238457   1.342   0.244  12.874 -0.1314  0.2280 -1.2546
 5656TIP3   OH238458   5.480   3.139   3.992 -0.0869  0.0315 -0.0226
 5656TIP3    H138459   5.417   3.149   3.920 -0.3531 -2.2821 -0.2208
 5656TIP3    H238460   5.458   3.208   4.054 -0.9232  1.0645 -1.4266
 5657TIP3   OH238461   6.847   5.657  12.002  0.2210  0.3008 -1.0178
 5657TIP3    H138462   6.830   5.724  12.069  1.5108 -0.9942  0.6769
 5657TIP3    H238463   6.940   5.665  11.983  0.2588 -0.6224 -1.2515
 5658TIP3   OH238464   3.365   0.149  16.825  0.3045 -0.2841 -0.3286
 5658TIP3    H138465   3.334   0.213  16.761  4.0077  0.8833 -1.2105
 5658TIP3    H238466   3.372   0.199  16.906  1.2709 -0.0832 -0.5230
 5659TIP3   OH238467   0.858   2.189   1.593 -0.4407 -0.0076  0.1509
 5659TIP3    H138468   0.934   2.244   1.574 -0.1421  0.0834  1.5140
 5659TIP3    H238469   0.890   2.099   1.582 -0.6424  0.0394 -1.0187
 5660TIP3   OH238470   6.341   6.421  15.448  1.1103 -0.6602 -0.6049
 5660TIP3    H138471   6.405   6.467  15.393  1.0221 -3.0978 -2.9186
 5660TIP3    H238472   6.316   6.344  15.397 -2.2520 -0.8506  1.0557
 5661TIP3   OH238473   0.017   6.628   3.699  0.3211 -0.1211  0.3231
 5661TIP3    H138474  -0.045   6.586   3.639 -0.7229  2.7911 -0.8536
 5661TIP3    H238475   0.011   6.721   3.677  2.4318  0.6856  2.7231
 5662TIP3   OH238476   0.957   4.876   4.026  0.6072  0.1960 -1.3920
 5662TIP3    H138477   0.925   4.794   4.064  1.9075 -0.4500 -1.6249
 5662TIP3    H238478   1.049   4.880   4.052  0.8421  1.0380 -2.2956
 5663TIP3   OH238479   2.557   5.966   0.343  0.1686  0.4364  0.0160
 5663TIP3    H138480   2.493   6.037   0.349  0.0038  0.5700 -2.5315
 5663TIP3    H238481   2.621   5.996   0.279  0.0253 -1.7563 -1.2337
 5664TIP3   OH238482   1.787   4.774  14.208 -0.2916 -0.0119  0.0857
 5664TIP3    H138483   1.819   4.798  14.295  0.3228 -2.2298  0.5467
 5664TIP3    H238484   1.828   4.689  14.191  0.6990  0.9718 -2.9822
 5665TIP3   OH238485   3.409   4.811  15.620  0.0704 -0.2487 -0.2758
 5665TIP3    H138486   3.482   4.839  15.565 -0.4772  2.3097  0.1464
 5665TIP3    H238487   3.331   4.839  15.572 -0.5086 -0.4649  0.5128
 5666TIP3   OH238488   1.704   2.213   0.328  0.1696  0.5807  0.5002
 5666TIP3    H138489   1.746   2.279   0.272  0.3361 -0.4295 -0.5868
 5666TIP3    H238490   1.716   2.247   0.417  1.0858  1.5469  0.0315
 5667TIP3   OH238491   6.630   5.636  13.168  0.2899  0.0031  0.3122
 5667TIP3    H138492   6.577   5.617  13.246  0.8691  2.2223  1.3335
 5667TIP3    H238493   6.567   5.665  13.102 -0.0376 -0.2271  0.5225
 5668TIP3   OH238494   5.382   6.647   0.125  0.1730 -0.3535  0.0907
 5668TIP3    H138495   5.326   6.570   0.115 -0.8470  0.2437  0.9999
 5668TIP3    H238496   5.384   6.687   0.039 -1.4733  0.0499  0.2065
 5669TIP3   OH238497   4.081   0.983   2.005  0.3308  0.2754 -0.0855
 5669TIP3    H138498   4.141   0.999   1.933  0.6732 -2.3882 -0.4945
 5669TIP3    H238499   4.007   0.937   1.966  0.4437 -1.0826  1.1992
 5670TIP3   OH238500   2.310   2.595   5.133 -0.4049  0.5165  0.0394
 5670TIP3    H138501   2.303   2.564   5.223 -1.1364  0.3836 -0.0565
 5670TIP3    H238502   2.234   2.652   5.121 -0.9458 -0.3488 -0.8244
 5671TIP3   OH238503   4.920   1.677  15.586  0.1282  0.2391  0.6436
 5671TIP3    H138504   4.940   1.738  15.515  0.4948 -0.7841 -0.1590
 5671TIP3    H238505   4.994   1.686  15.646  0.0617  0.7579  0.6490
 5672TIP3   OH238506   2.454   2.157   1.740  0.1073 -0.1564 -0.1811
 5672TIP3    H138507   2.527   2.170   1.680 -0.2529 -0.6895 -0.7363
 5672TIP3    H238508   2.425   2.067   1.724 -0.5434 -0.0162  0.1782
 5673TIP3   OH238509   5.240   4.965   4.932  0.0793  0.4682  0.6270
 5673TIP3    H138510   5.273   4.923   5.011  1.1071 -1.8340 -0.9218
 5673TIP3    H238511   5.294   5.044   4.922  2.4233 -1.0740  0.3702
 5674TIP3   OH238512   4.822   6.138   3.585  0.1447  0.4317 -0.6921
 5674TIP3    H138513   4.758   6.204   3.558  0.2711  0.2254 -1.5235
 5674TIP3    H238514   4.903   6.165   3.544  0.4123  0.2442 -0.2957
 5675TIP3   OH238515   3.523   0.752  16.629 -0.2478 -0.1171  0.0752
 5675TIP3    H138516   3.561   0.725  16.545 -0.1695  0.7397 -0.1744
 5675TIP3    H238517   3.491   0.841  16.613 -1.1067 -0.3120  0.6813
 5676TIP3   OH238518   6.223   3.637  16.782 -0.4566  0.2203 -0.3492
 5676TIP3    H138519   6.140   3.685  16.773 -0.1578  0.7435 -0.3956
 5676TIP3    H238520   6.202   3.563  16.838 -1.2494 -0.3594 -1.3602
 5677TIP3   OH238521   4.589   6.649  11.271  0.5012  1.0741 -0.2092
 5677TIP3    H138522   4.567   6.694  11.189  0.2652  1.1408 -0.1094
 5677TIP3    H238523   4.509   6.653  11.323 -0.4307 -1.8066 -1.2504
 5678TIP3   OH238524   3.448   0.512   3.201  0.0485  0.2753  0.1574
 5678TIP3    H138525   3.432   0.421   3.175 -0.0508  0.1947  0.4913
 5678TIP3    H238526   3.390   0.525   3.277 -0.6480  0.9166 -0.4750
 5679TIP3   OH238527   5.086   3.610   0.719 -0.4451 -0.2467 -0.5032
 5679TIP3    H138528   5.144   3.536   0.734  0.4169  0.3327 -0.8821
 5679TIP3    H238529   5.034   3.585   0.643 -0.6097 -0.7177 -0.2377
 5680TIP3   OH238530   0.498   6.078  16.800 -0.2436 -1.1229  0.1209
 5680TIP3    H138531   0.490   6.147  16.866  0.4875  1.1444 -1.9930
 5680TIP3    H238532   0.432   6.013  16.825 -1.9951  1.0183  1.4592
 5681TIP3   OH238533   4.890   5.293   5.126  0.5487  0.3792  0.1446
 5681TIP3    H138534   4.863   5.381   5.154 -0.0035  0.3836 -0.3888
 5681TIP3    H238535   4.893   5.242   5.207  0.8472  0.8768  0.4566
 5682TIP3   OH238536   0.478   6.704  14.939  0.3861 -0.2169  0.1702
 5682TIP3    H138537   0.429   6.760  14.879  1.3304  0.2241 -0.2167
 5682TIP3    H238538   0.565   6.746  14.945  0.6067 -0.7733  1.1049
 5683TIP3   OH238539   6.256   0.459   5.545 -0.4612  0.5313 -0.3156
 5683TIP3    H138540   6.281   0.374   5.511 -2.0068  0.5179 -1.5171
 5683TIP3    H238541   6.161   0.455   5.555 -0.5942  2.1419 -0.5358
 5684TIP3   OH238542   1.803   1.774  11.773 -0.2685  0.1115 -0.2711
 5684TIP3    H138543   1.738   1.829  11.729 -1.3824  0.0377  1.2128
 5684TIP3    H238544   1.784   1.685  11.742 -0.1984  0.2274 -0.6452
 5685TIP3   OH238545   5.299   1.215  11.183  0.0148 -0.2387  0.1122
 5685TIP3    H138546   5.313   1.302  11.219  4.4374 -0.8160  0.3214
 5685TIP3    H238547   5.287   1.230  11.089 -0.9830  0.6333  0.3592
 5686TIP3   OH238548   3.954   3.054   4.011  0.0495 -0.0815 -0.1367
 5686TIP3    H138549   3.866   3.085   4.035 -0.3440 -1.6020  0.5376
 5686TIP3    H238550   4.013   3.125   4.036 -0.9436  0.8248 -0.2814
 5687TIP3   OH238551   5.516   1.785  15.329 -0.1351  0.1410 -0.6247
 5687TIP3    H138552   5.537   1.762  15.419  1.4675  3.4187  0.0039
 5687TIP3    H238553   5.433   1.742  15.312  0.4329 -2.1130  1.7301
 5688TIP3   OH238554   2.977   4.835  11.428 -0.5068 -0.2467 -0.1188
 5688TIP3    H138555   2.886   4.826  11.399 -0.3308 -0.6048 -0.5720
 5688TIP3    H238556   2.979   4.919  11.474 -1.1790 -0.4563  0.3175
 5689TIP3   OH238557   0.763   3.480  13.084  0.4149  0.3238 -0.4091
 5689TIP3    H138558   0.737   3.506  13.172  0.0741 -0.1477 -0.3651
 5689TIP3    H238559   0.858   3.465  13.090  0.0514 -2.1573  0.5473
 5690TIP3   OH238560   5.866   3.127  11.062  0.1359 -0.4101  0.2059
 5690TIP3    H138561   5.777   3.100  11.083  0.1721 -0.6328  0.0800
 5690TIP3    H238562   5.883   3.202  11.119 -0.4402  0.1707 -0.3819
 5691TIP3   OH238563   3.323   4.773  17.087 -0.2033  0.0851 -0.2229
 5691TIP3    H138564   3.336   4.687  17.127 -0.1975  0.5733  0.8520
 5691TIP3    H238565   3.349   4.836  17.154 -1.4334  0.9665 -0.5249
 5692TIP3   OH238566   0.779   6.416  13.672  0.0537  0.3258  0.2355
 5692TIP3    H138567   0.736   6.443  13.753 -0.4721 -1.0476  0.4353
 5692TIP3    H238568   0.831   6.340  13.696 -0.6448 -0.5230 -0.8321
 5693TIP3   OH238569   5.309   1.492   3.338  0.0025 -0.0902 -0.2009
 5693TIP3    H138570   5.367   1.568   3.330 -0.9103  0.6555  0.0999
 5693TIP3    H238571   5.272   1.481   3.251 -1.2353  0.9497  0.1642
 5694TIP3   OH238572   6.554   2.346  15.082 -0.3014 -0.3753  0.0435
 5694TIP3    H138573   6.492   2.401  15.033  0.2431 -0.5517 -0.8802
 5694TIP3    H238574   6.639   2.388  15.066 -0.1710 -0.1551  1.2638
 5695TIP3   OH238575   5.801   3.901   1.752 -0.4035  0.3295 -0.0510
 5695TIP3    H138576   5.756   3.975   1.793 -0.6750 -0.1861  0.5935
 5695TIP3    H238577   5.778   3.825   1.806  1.2468  0.0429  0.3289
 5696TIP3   OH238578   2.167   5.570   3.855 -0.3463  0.0998 -0.3788
 5696TIP3    H138579   2.198   5.586   3.765 -0.1295 -4.7819 -1.4791
 5696TIP3    H238580   2.243   5.588   3.910  0.4660  0.3866 -1.5570
 5697TIP3   OH238581   1.013   1.536   4.750  0.6408 -0.0426  0.3206
 5697TIP3    H138582   1.032   1.605   4.687 -0.1681  0.1022  0.2206
 5697TIP3    H238583   1.096   1.521   4.795  0.8379  0.9723  0.3193
 5698TIP3   OH238584   4.196   2.349  12.659 -0.4045 -0.0307 -0.2812
 5698TIP3    H138585   4.180   2.437  12.692 -0.2351 -0.4711  1.0202
 5698TIP3    H238586   4.114   2.324  12.617 -0.1491  1.0918 -1.5239
 5699TIP3   OH238587   5.360   5.025  14.141  0.2068  0.1086  0.3825
 5699TIP3    H138588   5.317   5.075  14.210  1.2761  0.1355  1.0594
 5699TIP3    H238589   5.412   5.089  14.093 -0.6088  0.1088 -0.5413
 5700TIP3   OH238590   3.869   1.886  14.625  0.2176  0.6243  0.6139
 5700TIP3    H138591   3.954   1.929  14.637 -0.1926  2.2016 -1.6337
 5700TIP3    H238592   3.852   1.891  14.532 -1.4961 -1.4400  0.7355
 5701TIP3   OH238593   6.693   3.169  13.362  0.2575 -0.2714 -0.1591
 5701TIP3    H138594   6.690   3.248  13.415  0.8927 -0.3850  0.0525
 5701TIP3    H238595   6.621   3.115  13.396 -1.4630  0.9982 -1.6001
 5702TIP3   OH238596   5.635   3.985  16.580 -0.0505  0.3001 -0.0588
 5702TIP3    H138597   5.699   3.926  16.539  0.8140  1.0733  0.1309
 5702TIP3    H238598   5.626   4.057  16.517  2.1751  2.1013  1.4805
 5703TIP3   OH238599   4.153   2.676  10.476 -0.2075  0.7067  0.1550
 5703TIP3    H138600   4.205   2.746  10.515 -0.7218  0.8068  0.6864
 5703TIP3    H238601   4.210   2.637  10.411  0.3272  1.1815  0.3279
 5704TIP3   OH238602   0.865   5.483   3.987 -0.5894 -0.2749  0.5305
 5704TIP3    H138603   0.788   5.428   3.972 -0.5272 -0.0882 -0.5710
 5704TIP3    H238604   0.911   5.441   4.060 -0.0743 -2.2103 -0.8426
 5705TIP3   OH238605   3.173   5.601  16.554  0.0785 -0.0783 -0.3347
 5705TIP3    H138606   3.082   5.615  16.581  0.5330  3.6687 -0.2785
 5705TIP3    H238607   3.170   5.603  16.458  0.0369 -1.0005 -0.3689
 5706TIP3   OH238608   0.383   4.476  14.098 -0.9984  0.4292  0.2243
 5706TIP3    H138609   0.367   4.567  14.123 -2.4021 -0.0383  1.1589
 5706TIP3    H238610   0.326   4.425  14.155  0.2933 -1.1037  0.2099
 5707TIP3   OH238611   5.865   3.711   0.720 -0.7845 -0.5553  0.4955
 5707TIP3    H138612   5.806   3.710   0.644 -0.3195  0.6557  0.0882
 5707TIP3    H238613   5.822   3.768   0.783 -0.3984 -0.2297  0.4739
 5708TIP3   OH238614   6.734   0.129   4.685 -0.3248 -0.1952  0.2777
 5708TIP3    H138615   6.759   0.109   4.775 -1.6557  1.3160  1.0169
 5708TIP3    H238616   6.639   0.142   4.688 -0.1486  1.8099 -0.9230
 5709TIP3   OH238617   0.711   5.305  10.965  0.2279 -0.4060  0.0487
 5709TIP3    H138618   0.788   5.310  11.021  0.4277  1.7939 -0.3201
 5709TIP3    H238619   0.746   5.304  10.876 -0.0872  2.1931 -0.1919
 5710TIP3   OH238620   6.679   3.925   4.614 -0.1142  0.2261  0.3771
 5710TIP3    H138621   6.725   3.938   4.697  2.5694  1.2178 -1.1361
 5710TIP3    H238622   6.688   3.831   4.597  2.3894  0.5174 -0.3355
 5711TIP3   OH238623   2.830   6.227  13.246  0.0585  0.4784 -0.2561
 5711TIP3    H138624   2.772   6.187  13.311  1.1566 -0.1434  0.3764
 5711TIP3    H238625   2.795   6.198  13.162  0.4367 -1.3242  0.1661
 5712TIP3   OH238626   3.014   2.281   1.882 -0.2212 -0.0415 -0.9851
 5712TIP3    H138627   2.953   2.265   1.809  0.1164 -0.7787 -1.1150
 5712TIP3    H238628   2.972   2.350   1.933 -1.7414 -1.2911 -0.4458
 5713TIP3   OH238629   1.408   1.550   5.658 -0.2663 -0.3667  0.3871
 5713TIP3    H138630   1.495   1.538   5.620 -0.4923 -2.2005  0.3401
 5713TIP3    H238631   1.423   1.604   5.735  0.6707  0.6226 -0.4464
 5714TIP3   OH238632   5.192   0.826   1.572  0.5340 -0.4505 -0.2357
 5714TIP3    H138633   5.120   0.764   1.554  1.2627 -1.5513  0.5176
 5714TIP3    H238634   5.221   0.854   1.485 -2.1268  1.6754 -0.5881
 5715TIP3   OH238635   3.873   0.255  13.417  0.6777  0.0282  0.3531
 5715TIP3    H138636   3.838   0.182  13.367 -1.6886  0.5486  1.1135
 5715TIP3    H238637   3.913   0.215  13.495 -0.0165 -0.4971  0.4400
 5716TIP3   OH238638   2.413   0.031  16.759  0.0479 -0.0902  0.1932
 5716TIP3    H138639   2.430   0.085  16.682  1.3580 -2.2299 -1.0892
 5716TIP3    H238640   2.379   0.093  16.824  0.2911  2.0321 -1.5849
 5717TIP3   OH238641   3.184   3.848   2.421  0.0554 -0.7836  0.1164
 5717TIP3    H138642   3.183   3.823   2.328 -0.1916 -3.2526  0.7342
 5717TIP3    H238643   3.264   3.901   2.430 -0.1410 -0.1215 -1.5592
 5718TIP3   OH238644   2.521   2.496  14.017 -0.1131  0.0974  0.0902
 5718TIP3    H138645   2.445   2.542  13.980 -0.7259  0.3751  1.5931
 5718TIP3    H238646   2.575   2.565  14.055 -0.5914 -0.3059  1.5806
 5719TIP3   OH238647   4.677   2.232  11.404  0.2721 -0.0336 -0.3239
 5719TIP3    H138648   4.763   2.274  11.402 -0.0020  0.5467 -0.0371
 5719TIP3    H238649   4.621   2.288  11.351 -0.1492  0.0824  0.2353
 5720TIP3   OH238650   2.249   5.856   5.279 -0.5284  0.8289 -0.2899
 5720TIP3    H138651   2.202   5.799   5.341  2.3047 -1.5922 -0.1488
 5720TIP3    H238652   2.266   5.800   5.203  0.3253  2.2316 -1.1685
 5721TIP3   OH238653   6.405   2.038   3.301  0.3378 -0.2672 -0.6174
 5721TIP3    H138654   6.486   1.988   3.303  0.0031 -1.0805 -3.2482
 5721TIP3    H238655   6.337   1.976   3.329  0.3811 -0.1792 -0.3179
 5722TIP3   OH238656   2.181   3.025   6.083  0.1670  0.0938  0.0425
 5722TIP3    H138657   2.129   3.104   6.099 -0.3215 -0.4790  1.4334
 5722TIP3    H238658   2.141   2.959   6.138  1.6458 -0.6947  0.2170
 5723TIP3   OH238659   4.832   6.693   4.853  0.0102  0.2449 -0.3755
 5723TIP3    H138660   4.749   6.684   4.901  0.1014  0.7946 -0.1060
 5723TIP3    H238661   4.816   6.766   4.793 -0.7291 -1.5979 -2.5245
 5724TIP3   OH238662   1.498   1.058  15.752  0.4368 -0.5497 -0.0224
 5724TIP3    H138663   1.438   1.024  15.819 -0.9320  2.7690  0.6575
 5724TIP3    H238664   1.552   0.983  15.727 -1.6658 -2.8737  1.8983
 5725TIP3   OH238665   3.434   3.187   0.327  0.1616 -0.5147  0.3366
 5725TIP3    H138666   3.498   3.249   0.362 -0.1354 -0.3986  0.6753
 5725TIP3    H238667   3.455   3.182   0.233  0.1220  0.1847  0.2820
 5726TIP3   OH238668   3.273   2.909   1.497 -0.2081 -0.1972  0.0472
 5726TIP3    H138669   3.270   2.857   1.417  1.3713  0.1383 -0.2691
 5726TIP3    H238670   3.349   2.874   1.545 -0.4745  0.3365  0.8870
 5727TIP3   OH238671   4.438   6.539   5.444  0.4791  0.1323  0.2271
 5727TIP3    H138672   4.534   6.539   5.440  0.4832  1.6492  0.0049
 5727TIP3    H238673   4.410   6.589   5.368 -0.6560 -3.1671 -1.7098
 5728TIP3   OH238674   3.203   3.468  12.682 -0.4292 -0.0915 -0.8296
 5728TIP3    H138675   3.110   3.486  12.693 -0.6853 -1.4589 -0.5667
 5728TIP3    H238676   3.241   3.480  12.770 -0.4999 -0.2632 -0.7746
 5729TIP3   OH238677   3.396   4.806   3.384  0.1864 -0.3684 -0.1798
 5729TIP3    H138678   3.451   4.884   3.386  0.3441 -0.4800 -0.1439
 5729TIP3    H238679   3.311   4.837   3.351  0.1634 -0.1305  0.1039
 5730TIP3   OH238680   3.185   1.432  15.068  0.4862 -0.0239 -0.1936
 5730TIP3    H138681   3.114   1.494  15.049 -0.7550 -0.8110  1.6079
 5730TIP3    H238682   3.183   1.423  15.163  2.6760 -0.5093 -0.1591
 5731TIP3   OH238683   2.710   0.804   0.217  0.1399  0.6572  0.0046
 5731TIP3    H138684   2.803   0.785   0.226 -0.2942 -1.2538  1.2055
 5731TIP3    H238685   2.695   0.808   0.123  1.3077  0.2595 -0.2117
 5732TIP3   OH238686   1.303   6.232  14.749  0.1932  0.5767  0.1010
 5732TIP3    H138687   1.351   6.237  14.831  0.3031 -1.3251  0.1923
 5732TIP3    H238688   1.324   6.146  14.714 -0.6584  0.9536 -1.4282
 5733TIP3   OH238689   2.300   6.642   5.342 -0.3857  0.2798 -0.2924
 5733TIP3    H138690   2.243   6.603   5.276 -0.7422 -1.6814  1.0855
 5733TIP3    H238691   2.252   6.633   5.424  0.4989  1.6658  0.4290
 5734TIP3   OH238692   1.187   1.639  14.580  0.4808  0.0291 -0.2521
 5734TIP3    H138693   1.261   1.700  14.584 -0.3604  1.1002 -0.7467
 5734TIP3    H238694   1.110   1.694  14.573 -0.3295 -1.0899 -0.4261
 5735TIP3   OH238695   1.260   0.940   4.073 -0.0136 -0.0219  0.0970
 5735TIP3    H138696   1.285   1.029   4.048 -0.7394  0.6048  1.4859
 5735TIP3    H238697   1.211   0.907   3.998  0.3929  0.6791 -0.4973
 5736TIP3   OH238698   2.106   0.263   4.532 -0.1164  0.1992  0.0831
 5736TIP3    H138699   2.136   0.276   4.623  0.2477 -0.1384  0.0172
 5736TIP3    H238700   2.050   0.338   4.514  0.4826  0.7107  0.3085
 5737TIP3   OH238701   0.666   5.543   5.194 -0.2493 -0.1659  0.3765
 5737TIP3    H138702   0.590   5.575   5.243 -1.4818 -1.0884 -0.8516
 5737TIP3    H238703   0.705   5.477   5.251 -0.6761 -0.0437  0.8197
 5738TIP3   OH238704   3.355   4.076  12.711 -0.4333 -0.2195 -0.1483
 5738TIP3    H138705   3.408   4.007  12.751  0.8910  1.6030  1.4196
 5738TIP3    H238706   3.287   4.095  12.775  0.0318  0.8474  0.0422
 5739TIP3   OH238707   3.601   2.370   2.004 -0.5174 -0.0763 -0.1807
 5739TIP3    H138708   3.579   2.461   2.025  0.3440 -0.2661  1.7656
 5739TIP3    H238709   3.691   2.359   2.036 -0.7918 -1.7462  0.0987
 5740TIP3   OH238710   1.547   1.236   2.834 -0.2400  0.4500 -0.2242
 5740TIP3    H138711   1.568   1.329   2.848  2.4053 -0.2178  1.0950
 5740TIP3    H238712   1.587   1.215   2.750  1.9104 -0.1014  0.8567
 5741TIP3   OH238713   4.389   0.860   3.349 -0.0354  0.1161  0.4600
 5741TIP3    H138714   4.360   0.890   3.435  0.0201  0.0811  0.4909
 5741TIP3    H238715   4.483   0.878   3.348 -0.3092  1.7500 -0.2551
 5742TIP3   OH238716   4.538   5.217  14.332  0.2962 -0.8424 -0.1839
 5742TIP3    H138717   4.512   5.150  14.394 -0.8182 -0.1283  0.1380
 5742TIP3    H238718   4.604   5.268  14.378 -0.6822 -0.1835  0.5060
 5743TIP3   OH238719   6.016   5.998   5.921  0.6970  0.3708  0.4054
 5743TIP3    H138720   5.924   6.023   5.929 -0.0651 -2.2474  0.5732
 5743TIP3    H238721   6.034   6.005   5.827 -0.2174 -0.7694  0.1223
 5744TIP3   OH238722   6.438   2.193   5.405 -0.0457  0.2778  0.2954
 5744TIP3    H138723   6.361   2.150   5.369 -0.9545  0.8727  1.4352
 5744TIP3    H238724   6.474   2.129   5.466  1.2867 -0.5929 -1.3473
 5745TIP3   OH238725   0.000   5.887  15.903  0.0840  0.1573  0.3192
 5745TIP3    H138726   0.079   5.941  15.899  1.4230 -1.7429 -0.3947
 5745TIP3    H238727   0.015   5.829  15.977 -0.1991 -0.8527 -0.4046
 5746TIP3   OH238728   4.199   5.974   3.875 -0.1632 -0.2535 -0.2908
 5746TIP3    H138729   4.247   5.928   3.806 -1.0856 -1.6359 -0.0479
 5746TIP3    H238730   4.116   5.998   3.834  0.1682  0.9220 -0.3079
 5747TIP3   OH238731   1.120   5.487  12.461  0.2069 -0.5573 -0.6785
 5747TIP3    H138732   1.123   5.398  12.495  0.5874 -0.8429 -1.4367
 5747TIP3    H238733   1.137   5.477  12.367 -0.0119  0.2867 -0.8123
 5748TIP3   OH238734   1.145   3.323  13.665 -0.1016 -0.1173 -0.1897
 5748TIP3    H138735   1.070   3.303  13.722 -0.7940  0.4625 -0.8764
 5748TIP3    H238736   1.142   3.418  13.654  1.4783  0.0824  0.7597
 5749TIP3   OH238737   4.192   2.024   1.441  0.0879 -0.1527  0.2026
 5749TIP3    H138738   4.159   2.036   1.530 -1.0467  1.4620 -0.3952
 5749TIP3    H238739   4.286   2.011   1.451 -0.1152 -0.6107  1.6628
 5750TIP3   OH238740   3.115   0.416   3.434 -0.0503  0.3403  0.2011
 5750TIP3    H138741   3.151   0.438   3.348 -0.5931  0.0872 -0.0931
 5750TIP3    H238742   3.118   0.321   3.439 -3.7707 -0.0450 -1.2633
 5751TIP3   OH238743   2.793   0.801  16.546 -0.0733 -0.2074  0.3097
 5751TIP3    H138744   2.788   0.708  16.568 -3.1907 -0.4895 -1.0991
 5751TIP3    H238745   2.881   0.827  16.574  0.4202 -3.2049  2.0298
 5752TIP3   OH238746   1.690   6.774  16.909  0.0210 -0.3008 -0.3483
 5752TIP3    H138747   1.659   6.686  16.889  1.3846 -0.6481 -1.0691
 5752TIP3    H238748   1.695   6.819  16.825  0.2315  0.1647 -0.0963
 5753TIP3   OH238749   2.152   5.285   1.891 -0.0700  0.4512  0.5576
 5753TIP3    H138750   2.057   5.276   1.882  0.1308 -2.0978  0.0989
 5753TIP3    H238751   2.168   5.272   1.984 -0.0513 -1.4750  0.3286
 5754TIP3   OH238752   0.814   3.932   5.800  0.6373  0.5540 -0.7273
 5754TIP3    H138753   0.836   3.904   5.711  0.6655 -1.4507 -0.1469
 5754TIP3    H238754   0.719   3.933   5.802  0.5330 -2.2228 -0.0659
 5755TIP3   OH238755   5.052   5.875   4.901  0.2488 -0.1811 -0.1775
 5755TIP3    H138756   5.139   5.871   4.942 -0.0660 -1.0688  0.4375
 5755TIP3    H238757   5.031   5.784   4.881 -1.7645 -0.3851  2.3722
 5756TIP3   OH238758   2.959   6.331   2.148 -0.0629 -0.4597 -0.3107
 5756TIP3    H138759   2.930   6.245   2.181 -0.7576 -0.5361 -1.1108
 5756TIP3    H238760   2.879   6.375   2.122  0.0875  1.1773  1.7552
 5757TIP3   OH238761   2.458   5.587  12.394  0.1537  0.0408  0.2421
 5757TIP3    H138762   2.427   5.656  12.336  0.4343 -0.9793 -1.1740
 5757TIP3    H238763   2.389   5.577  12.460 -0.3258  0.9816 -0.1034
 5758TIP3   OH238764   6.270   3.911  12.706 -0.2868 -0.0680 -0.7172
 5758TIP3    H138765   6.292   3.819  12.690  1.3567  0.6357 -3.0406
 5758TIP3    H238766   6.194   3.928  12.650 -0.4669  0.0341 -0.4424
 5759TIP3   OH238767   4.269   6.384   4.682 -0.1979 -0.5927 -0.6079
 5759TIP3    H138768   4.342   6.383   4.745 -1.0246 -1.6589  0.3962
 5759TIP3    H238769   4.227   6.468   4.695 -1.0494 -1.2415  1.1607
 5760TIP3   OH238770   1.294   4.824   2.041  0.2474  0.5378 -0.3072
 5760TIP3    H138771   1.267   4.788   1.957  2.4023  0.4532 -1.0416
 5760TIP3    H238772   1.259   4.763   2.106  0.6484 -0.8130 -1.3100
 5761TIP3   OH238773   4.734   1.084   5.218 -0.0968 -0.1368 -0.6554
 5761TIP3    H138774   4.724   1.102   5.312  0.8052  1.0651 -0.7738
 5761TIP3    H238775   4.653   1.117   5.179 -0.0700  0.2205 -0.4142
 5762TIP3   OH238776   1.647   2.927  12.107 -0.0137  0.6232  0.2174
 5762TIP3    H138777   1.631   2.834  12.091 -2.9842  1.2575 -1.1872
 5762TIP3    H238778   1.631   2.969  12.023  0.7380  2.4826  0.9476
 5763TIP3   OH238779   4.925   2.723  16.629 -0.1977  0.3801 -0.3693
 5763TIP3    H138780   5.015   2.690  16.633 -0.3544 -0.3437 -2.1288
 5763TIP3    H238781   4.935   2.818  16.621  0.4409  0.2655 -1.0581
 5764TIP3   OH238782   1.172   2.605   4.697 -0.2715  0.0444  0.0162
 5764TIP3    H138783   1.238   2.664   4.734  0.0676  0.0464 -0.5770
 5764TIP3    H238784   1.135   2.560   4.773  3.9330 -3.7701  0.2529
 5765TIP3   OH238785   5.468   5.992  11.623 -0.1152  0.1000 -0.0436
 5765TIP3    H138786   5.488   6.085  11.630  1.7525 -0.3248  0.9987
 5765TIP3    H238787   5.401   5.977  11.690  1.2099  0.3200  1.3894
 5766TIP3   OH238788   0.616   2.798   3.281  0.4533  0.2818 -0.1206
 5766TIP3    H138789   0.669   2.740   3.227  1.7152  2.0969 -0.9066
 5766TIP3    H238790   0.671   2.874   3.298 -1.4158  1.6694  0.1404
 5767TIP3   OH238791   0.715   6.697   4.487  0.0873  0.4470 -0.2259
 5767TIP3    H138792   0.709   6.720   4.394  2.2454 -2.1477 -1.1479
 5767TIP3    H238793   0.780   6.627   4.490 -0.1027  0.2450  3.2522
 5768TIP3   OH238794   3.386   6.483   0.409 -0.0004 -0.6831 -0.0744
 5768TIP3    H138795   3.294   6.463   0.427 -0.2177  0.8603  0.6013
 5768TIP3    H238796   3.387   6.509   0.317 -0.6161  1.3089  0.4500
 5769TIP3   OH238797   0.725   1.421   2.376 -0.1032 -0.5207 -0.1572
 5769TIP3    H138798   0.660   1.350   2.381 -0.4418 -0.1453  1.0321
 5769TIP3    H238799   0.689   1.481   2.311 -1.1665 -0.1186  0.7791
 5770TIP3   OH238800   0.074   4.803   5.769  0.1133 -0.0895  0.1959
 5770TIP3    H138801   0.030   4.875   5.724 -0.4189 -1.4709 -1.6105
 5770TIP3    H238802   0.047   4.812   5.860 -0.8385  1.3236 -0.1865
 5771TIP3   OH238803   2.884   1.940   3.260  0.0650  0.0461 -0.1783
 5771TIP3    H138804   2.920   1.875   3.320  0.6595  0.5505  0.0177
 5771TIP3    H238805   2.884   1.897   3.174 -1.5457 -0.9839  0.2772
 5772TIP3   OH238806   0.992   2.003   1.150 -0.3883 -0.2003  0.2431
 5772TIP3    H138807   0.908   1.973   1.186 -0.2297 -0.3917  0.4528
 5772TIP3    H238808   0.979   2.097   1.138  0.1240  0.2035  2.4444
 5773TIP3   OH238809   0.379   3.656  11.621  0.7672 -0.5739 -0.1610
 5773TIP3    H138810   0.293   3.684  11.590  1.6963 -0.1882 -2.5960
 5773TIP3    H238811   0.389   3.567  11.587  0.6630 -1.3406  1.6583
 5774TIP3   OH238812   6.439   2.831   2.242  0.0802 -0.0221 -0.6487
 5774TIP3    H138813   6.402   2.747   2.216  0.0556 -0.1287 -0.2841
 5774TIP3    H238814   6.450   2.879   2.160 -0.9600  0.0492 -0.7584
 5775TIP3   OH238815   6.185   0.668   0.136  0.4527 -0.6079 -0.6700
 5775TIP3    H138816   6.124   0.595   0.144 -0.4789 -0.0252 -2.0549
 5775TIP3    H238817   6.133   0.746   0.156  0.5706 -0.0550 -2.3142
 5776TIP3   OH238818   5.432   1.754   0.262 -0.5064 -0.2776  0.5522
 5776TIP3    H138819   5.400   1.814   0.330  0.5333  2.3674 -1.0956
 5776TIP3    H238820   5.527   1.762   0.267 -0.3966  0.4278 -1.4649
 5777TIP3   OH238821   3.166   0.766   5.051  0.3477 -0.4044  0.0393
 5777TIP3    H138822   3.192   0.777   5.143  2.2101  0.2447 -0.5215
 5777TIP3    H238823   3.118   0.847   5.031  2.1699  0.6745 -0.2279
 5778TIP3   OH238824   4.929   0.406  17.009  0.5060  0.7048  0.0573
 5778TIP3    H138825   4.997   0.377  16.949 -0.6160  1.6665 -1.7695
 5778TIP3    H238826   4.877   0.328  17.028 -0.3204  0.7519 -1.8731
 5779TIP3   OH238827   2.218   1.869   1.412 -0.0739 -0.4504  0.2238
 5779TIP3    H138828   2.235   1.775   1.424 -0.3211 -0.5234  0.0276
 5779TIP3    H238829   2.122   1.875   1.410 -0.0515 -0.2936 -0.5218
 5780TIP3   OH238830   0.325   1.512   3.188  0.6728 -0.0636  0.2045
 5780TIP3    H138831   0.403   1.459   3.171  1.0942 -0.4830  2.9838
 5780TIP3    H238832   0.254   1.449   3.196  0.6490  0.0359  0.7811
 5781TIP3   OH238833   2.196   6.028  12.839 -0.0230 -0.6957 -0.0545
 5781TIP3    H138834   2.266   5.979  12.883  0.4561 -0.6349 -0.7294
 5781TIP3    H238835   2.215   6.018  12.746 -0.4381  0.0179 -0.2229
 5782TIP3   OH238836   0.659   5.815   0.689  0.7762 -0.7414  0.2808
 5782TIP3    H138837   0.645   5.891   0.633 -0.6386 -1.8825 -1.0233
 5782TIP3    H238838   0.712   5.756   0.635  1.1070 -1.0503  0.9333
 5783TIP3   OH238839   0.800   2.617  16.335 -0.1848  0.2649  0.2156
 5783TIP3    H138840   0.892   2.633  16.316 -0.3877  0.3412 -0.7271
 5783TIP3    H238841   0.785   2.526  16.310 -0.9789  0.9907 -2.1686
 5784TIP3   OH238842   0.933   0.534  16.874 -0.1082  0.6288 -0.2383
 5784TIP3    H138843   0.882   0.563  16.950  0.8700  0.6053  0.4531
 5784TIP3    H238844   0.994   0.469  16.909  0.8341  1.1203 -0.8920
 5785TIP3   OH238845   1.784   4.605  11.402 -0.0060  0.0237 -0.5249
 5785TIP3    H138846   1.758   4.514  11.393  0.1886 -0.1184  0.2406
 5785TIP3    H238847   1.707   4.655  11.378  0.2707 -0.3007 -2.2230
 5786TIP3   OH238848   6.661   6.761  12.317 -0.0349  0.2301 -0.6863
 5786TIP3    H138849   6.579   6.761  12.366  1.4385 -0.4779  1.9475
 5786TIP3    H238850   6.692   6.852  12.322  0.4553  0.0176  0.3708
 5787TIP3   OH238851   3.413   2.105   5.514 -0.7009 -0.3813 -0.3893
 5787TIP3    H138852   3.493   2.061   5.543 -1.4383 -1.7535 -0.3350
 5787TIP3    H238853   3.356   2.107   5.591 -0.0650  2.3028  0.1101
 5788TIP3   OH238854   6.849   3.513  12.484  0.2744  0.9768 -0.1756
 5788TIP3    H138855   6.919   3.568  12.449  0.5743  0.4804 -0.3629
 5788TIP3    H238856   6.793   3.494  12.409  1.4137 -0.8396 -0.6230
 5789TIP3   OH238857   4.964   4.100   5.931 -0.4220 -0.1472 -0.6638
 5789TIP3    H138858   4.983   4.156   5.856 -0.8033  0.9326  0.0199
 5789TIP3    H238859   4.915   4.156   5.991 -0.1854 -1.0081  0.3674
 5790TIP3   OH238860   0.851   4.677   2.428 -0.5735 -0.0619 -0.4369
 5790TIP3    H138861   0.784   4.614   2.405  1.3306 -2.5879  0.4915
 5790TIP3    H238862   0.897   4.694   2.345  1.7154 -3.5324 -0.0721
 5791TIP3   OH238863   4.986   5.691   0.100  0.5913 -0.1524 -0.0356
 5791TIP3    H138864   5.023   5.611   0.063 -0.6424  0.1330 -2.0275
 5791TIP3    H238865   4.893   5.689   0.075  0.6221  2.1130 -0.5969
 5792TIP3   OH238866   0.862   5.346  11.885 -0.2712  0.3100  0.2770
 5792TIP3    H138867   0.833   5.427  11.844  0.4186 -0.1011 -1.0548
 5792TIP3    H238868   0.822   5.349  11.972 -1.5390  1.3252 -0.2961
 5793TIP3   OH238869   3.759   4.641  16.895  0.1713  0.2578  0.1259
 5793TIP3    H138870   3.820   4.702  16.936  0.1634 -0.5559  1.4277
 5793TIP3    H238871   3.703   4.611  16.967 -0.4517 -0.5398 -0.6605
 5794TIP3   OH238872   4.467   6.596   2.905  0.7210 -0.2652 -0.2358
 5794TIP3    H138873   4.411   6.657   2.857  1.3786 -0.5397 -1.4039
 5794TIP3    H238874   4.545   6.588   2.850  0.3842 -2.6324 -0.4609
 5795TIP3   OH238875   1.836   5.963  13.682 -0.1341  0.3995  0.2360
 5795TIP3    H138876   1.796   6.042  13.646 -0.5952  0.8061  1.6085
 5795TIP3    H238877   1.762   5.903  13.696  0.1164  0.0186 -0.0466
 5796TIP3   OH238878   6.588   3.857  15.224  0.1488 -0.3817 -0.3297
 5796TIP3    H138879   6.523   3.920  15.254 -0.1439 -0.8084 -0.0675
 5796TIP3    H238880   6.636   3.903  15.155  0.1218  0.2267  0.0503
 5797TIP3   OH238881   1.067   2.107   5.537 -0.0720  0.6822 -0.3892
 5797TIP3    H138882   1.086   2.071   5.450 -3.1337 -1.6518 -0.2271
 5797TIP3    H238883   1.016   2.186   5.519  0.3268  0.8850 -0.6709
 5798TIP3   OH238884   0.116   1.252   4.555 -0.1408  0.4753 -0.2280
 5798TIP3    H138885   0.094   1.177   4.499  0.1059  0.9109 -0.9355
 5798TIP3    H238886   0.194   1.290   4.513  0.9353 -0.0236  1.2277
 5799TIP3   OH238887   4.244   3.469   1.963 -0.5792  0.4878  0.2584
 5799TIP3    H138888   4.294   3.414   1.902  0.0665  0.9741  0.3299
 5799TIP3    H238889   4.256   3.558   1.929 -0.2495  0.7612  1.0597
 5800TIP3   OH238890   3.560   4.189  16.124  0.7643 -0.4040  0.4217
 5800TIP3    H138891   3.511   4.271  16.121 -0.5165 -1.1234  1.0075
 5800TIP3    H238892   3.623   4.196  16.052  0.0640  0.7062 -0.1068
 5801TIP3   OH238893   6.602   0.581   1.707 -0.1359 -0.7398  0.3225
 5801TIP3    H138894   6.591   0.612   1.618  0.4358  1.4328  0.9522
 5801TIP3    H238895   6.679   0.524   1.704 -0.8412 -1.6786 -0.7565
 5802TIP3   OH238896   3.762   6.374  12.048 -0.0789  0.1102  0.2598
 5802TIP3    H138897   3.670   6.380  12.022 -0.4162 -2.4204  0.5889
 5802TIP3    H238898   3.811   6.400  11.971 -1.0725 -0.4075 -0.5693
 5803TIP3   OH238899   4.935   6.764  11.688  0.6665  0.4003  0.0128
 5803TIP3    H138900   5.003   6.812  11.736  0.5706 -0.0896  0.6530
 5803TIP3    H238901   4.856   6.816  11.701  0.9895  1.2184 -1.1151
 5804TIP3   OH238902   2.649   6.682   3.843  0.3948 -0.3342 -0.2164
 5804TIP3    H138903   2.730   6.697   3.795  0.7702 -0.2794  0.4219
 5804TIP3    H238904   2.652   6.743   3.917 -0.8470  0.6016 -0.9013
 5805TIP3   OH238905   4.940   0.173  11.228 -0.4320 -0.0805  0.1026
 5805TIP3    H138906   5.008   0.203  11.169 -0.8191 -0.8051 -0.7378
 5805TIP3    H238907   4.970   0.087  11.259 -0.5213  0.0197  0.4831
 5806TIP3   OH238908   0.380   5.118  17.094  0.6826 -0.4106  0.3140
 5806TIP3    H138909   0.392   5.063  17.017  0.6593 -0.8140  0.5995
 5806TIP3    H238910   0.341   5.060  17.159 -0.0913  0.1407  0.3566
 5807TIP3   OH238911   3.961   1.963   4.120  0.1962 -0.4650  0.8639
 5807TIP3    H138912   3.996   2.028   4.181 -0.1478  0.6435 -0.1004
 5807TIP3    H238913   3.867   1.962   4.137  0.1279 -0.3067  0.5042
 5808TIP3   OH238914   1.007   1.357  14.750  0.1678  1.2546 -0.1534
 5808TIP3    H138915   0.926   1.407  14.758 -0.2164  0.5753  0.3426
 5808TIP3    H238916   0.994   1.302  14.673 -0.8219 -0.5331  1.1959
 5809TIP3   OH238917   0.407   6.282  12.681 -0.2714 -0.2145 -0.4909
 5809TIP3    H138918   0.359   6.247  12.757 -1.9188 -0.2390 -1.4812
 5809TIP3    H238919   0.441   6.366  12.711 -3.5226  1.2777 -0.5317
 5810TIP3   OH238920   0.484   4.543  12.329 -0.4905  0.0303  0.0482
 5810TIP3    H138921   0.559   4.592  12.364 -0.8453  1.3197 -0.9330
 5810TIP3    H238922   0.408   4.596  12.352 -0.8097  0.4258 -1.7892
 5811TIP3   OH238923   2.672   6.409   4.877  0.1254  0.4656 -0.3407
 5811TIP3    H138924   2.764   6.411   4.902 -0.2337 -1.0709  1.2509
 5811TIP3    H238925   2.640   6.324   4.906 -1.9654  1.2125 -0.2671
 5812TIP3   OH238926   2.023   4.695  10.776 -0.0086  0.2964  0.6293
 5812TIP3    H138927   2.020   4.779  10.730 -0.5389 -0.5986 -1.0739
 5812TIP3    H238928   2.112   4.663  10.763 -0.5456 -0.6436 -1.2104
 5813TIP3   OH238929   4.735   5.553  15.793  0.9751 -0.1213 -0.2562
 5813TIP3    H138930   4.751   5.509  15.877  0.7358  0.7691  0.2701
 5813TIP3    H238931   4.820   5.590  15.769  1.0635 -0.4507 -0.4513
 5814TIP3   OH238932   6.316   6.221  10.563 -0.0878 -0.4492  0.6006
 5814TIP3    H138933   6.231   6.253  10.530  0.2389 -1.2348 -1.1363
 5814TIP3    H238934   6.306   6.126  10.566  0.5317 -0.5062  1.0106
 5815TIP3   OH238935   2.585   4.425  15.228  0.1221 -0.6813  0.0925
 5815TIP3    H138936   2.608   4.346  15.276 -0.3283 -0.0675  1.3668
 5815TIP3    H238937   2.567   4.490  15.296  0.4844  0.5205 -0.9223
 5816TIP3   OH238938   1.039   5.557  15.914 -0.2478  0.2975 -0.1046
 5816TIP3    H138939   1.114   5.532  15.968 -1.0450  1.0645  1.4516
 5816TIP3    H238940   0.965   5.511  15.954 -0.6996 -0.0537 -1.3053
 5817TIP3   OH238941   1.025   1.780   5.120 -0.0052 -0.2287  0.1278
 5817TIP3    H138942   1.085   1.804   5.049  0.5177 -0.7768  0.3677
 5817TIP3    H238943   1.016   1.685   5.111 -0.3349 -0.2292  0.4855
 5818TIP3   OH238944   6.665   6.170   5.652 -0.2040  0.2113 -0.4468
 5818TIP3    H138945   6.636   6.176   5.743 -1.6007 -2.3685 -0.6389
 5818TIP3    H238946   6.585   6.181   5.600  0.4915  1.0883 -1.3828
 5819TIP3   OH238947   5.765   6.713   3.280  0.0068 -0.0753  0.2002
 5819TIP3    H138948   5.855   6.680   3.289 -0.4139 -1.1743  0.5400
 5819TIP3    H238949   5.744   6.749   3.366 -1.0126 -2.8533  1.2353
 5820TIP3   OH238950   5.383   6.214  12.178 -0.4668 -0.1513  0.3714
 5820TIP3    H138951   5.319   6.266  12.130  0.9184 -0.3320 -1.8183
 5820TIP3    H238952   5.360   6.123  12.160  0.6098 -0.2176 -0.8041
 5821TIP3   OH238953   6.064   4.534  14.861 -0.1554 -0.6040 -0.3149
 5821TIP3    H138954   6.134   4.590  14.826 -0.4319  0.7095  1.1086
 5821TIP3    H238955   6.091   4.517  14.951 -1.6674 -0.0636  0.2638
 5822TIP3   OH238956   1.657   6.008  12.927 -0.3279  0.3098  0.3131
 5822TIP3    H138957   1.585   5.944  12.932  0.2782 -0.3002  1.9277
 5822TIP3    H238958   1.730   5.959  12.890  0.4694 -0.3174  2.5782
 5823TIP3   OH238959   4.283   1.810  13.580  0.4209  0.0811  0.1866
 5823TIP3    H138960   4.275   1.780  13.670  0.4297  0.1993  0.2264
 5823TIP3    H238961   4.195   1.834  13.554  0.6638  1.7075  0.7472
 5824TIP3   OH238962   2.765   3.781  13.134  0.2822 -0.0138 -0.1182
 5824TIP3    H138963   2.749   3.862  13.182 -0.2530  0.2958 -0.7979
 5824TIP3    H238964   2.725   3.795  13.048  0.8972 -0.6922 -0.5346
 5825TIP3   OH238965   0.930   5.122  14.031  0.6842 -0.3510 -0.3621
 5825TIP3    H138966   0.847   5.080  14.010  0.5359 -0.3464  0.2000
 5825TIP3    H238967   0.917   5.160  14.118  0.2577  2.2708 -1.4849
 5826TIP3   OH238968   5.094   0.458  16.571  0.0907 -0.4584 -0.6287
 5826TIP3    H138969   5.057   0.392  16.512  1.2859 -0.1989 -1.7190
 5826TIP3    H238970   5.188   0.441  16.570  0.3399  0.7945 -0.3457
 5827TIP3   OH238971   6.386   0.651   4.346 -0.4434  0.0928 -0.4181
 5827TIP3    H138972   6.293   0.629   4.342 -0.4880 -0.4684  2.0495
 5827TIP3    H238973   6.427   0.577   4.393  1.0079  0.9361 -0.2741
 5828TIP3   OH238974   4.109   5.116   0.637  0.0213 -0.1827 -0.3367
 5828TIP3    H138975   4.145   5.118   0.548 -1.0865  1.1408 -0.7835
 5828TIP3    H238976   4.154   5.187   0.682 -0.5848  0.1966 -0.3228
 5829TIP3   OH238977   3.319   4.760  13.362  0.1702 -0.5540 -0.4821
 5829TIP3    H138978   3.331   4.756  13.267  2.9070  0.8717 -0.2829
 5829TIP3    H238979   3.333   4.852  13.384 -0.9415 -0.7552  1.2933
 5830TIP3   OH238980   1.413   4.885  13.181  0.5642 -0.7023 -0.1236
 5830TIP3    H138981   1.418   4.876  13.086  1.3498 -0.5959 -0.0961
 5830TIP3    H238982   1.502   4.869  13.212  0.2257 -1.1658  0.6347
 5831TIP3   OH238983   2.265   4.500   5.956  0.0766  0.0004 -0.6814
 5831TIP3    H138984   2.203   4.536   6.020 -1.7613  0.0475 -2.3970
 5831TIP3    H238985   2.350   4.532   5.985 -0.9661  1.9932  0.4132
 5832TIP3   OH238986   1.986   6.639   1.420  0.1514  0.2043  1.0542
 5832TIP3    H138987   1.960   6.575   1.354 -0.1386  1.5381 -0.1684
 5832TIP3    H238988   2.070   6.607   1.453 -0.9824 -1.9411  2.0576
 5833TIP3   OH238989   6.058   6.332   5.918  0.2182  0.0551 -0.5186
 5833TIP3    H138990   5.995   6.323   5.990 -0.3267 -1.2751 -1.1351
 5833TIP3    H238991   6.144   6.329   5.961 -0.1066 -0.5729  0.1110
 5834TIP3   OH238992   6.167   3.058  13.631  0.1682  0.4018 -0.1317
 5834TIP3    H138993   6.162   2.999  13.556 -0.7963 -1.0893  1.0381
 5834TIP3    H238994   6.234   3.019  13.688 -1.4719 -0.4352  1.3117
 5835TIP3   OH238995   6.406   5.911  14.351 -0.1825 -0.4450 -0.0485
 5835TIP3    H138996   6.397   5.849  14.423  0.2581 -1.2331 -0.6467
 5835TIP3    H238997   6.417   5.856  14.273 -0.8836  0.3748 -0.7600
 5836TIP3   OH238998   3.282   0.623  13.915 -0.1608 -0.3289  0.0442
 5836TIP3    H138999   3.249   0.709  13.890 -0.6335 -0.2045  1.0547
 5836TIP3    H239000   3.203   0.570  13.926  0.0518 -0.5197  0.7201
 5837TIP3   OH239001   1.202   3.308   1.028 -0.2167  0.0179  0.4348
 5837TIP3    H139002   1.242   3.224   1.006  0.2707  1.0004 -2.9636
 5837TIP3    H239003   1.223   3.365   0.954 -2.5219  2.4763  1.5136
 5838TIP3   OH239004   3.234   6.387  13.580 -0.2026 -0.1688 -0.2228
 5838TIP3    H139005   3.253   6.309  13.632  1.4555 -0.6913 -1.5268
 5838TIP3    H239006   3.257   6.460  13.637 -1.4133 -0.6083  0.8743
 5839TIP3   OH239007   6.023   3.369   3.371 -0.0549  0.1973  0.0644
 5839TIP3    H139008   6.108   3.405   3.347 -0.1773  0.7557  0.4421
 5839TIP3    H239009   5.971   3.375   3.291  0.8333 -1.9763 -0.7435
 5840TIP3   OH239010   6.216   0.689   3.809 -0.1831 -0.6542  0.1831
 5840TIP3    H139011   6.256   0.751   3.748  0.8691 -0.1546  1.3214
 5840TIP3    H239012   6.200   0.741   3.888  0.1065 -1.6710  0.9306
 5841TIP3   OH239013   1.841   2.099   5.902  0.0577 -0.0569 -0.0253
 5841TIP3    H139014   1.874   2.107   5.813 -0.9622  0.6405 -0.3591
 5841TIP3    H239015   1.747   2.109   5.894  0.0246  0.8818  1.2290
 5842TIP3   OH239016   3.337   3.278  12.008  0.7299  0.8200 -0.0266
 5842TIP3    H139017   3.244   3.296  11.998  0.4337 -0.6269 -0.1227
 5842TIP3    H239018   3.348   3.262  12.102  0.2451 -1.9621 -0.3528
 5843TIP3   OH239019   1.391   3.696   1.450 -0.2122 -0.2774 -0.1877
 5843TIP3    H139020   1.315   3.651   1.415  0.4659 -0.2628 -1.7680
 5843TIP3    H239021   1.409   3.766   1.387 -1.4354  2.5083  2.3386
 5844TIP3   OH239022   2.057   0.392  13.606 -0.4557  0.0008  0.2507
 5844TIP3    H139023   2.109   0.319  13.641 -0.9733 -0.7065 -0.4107
 5844TIP3    H239024   1.970   0.354  13.593 -0.6785  0.6933 -0.2894
 5845TIP3   OH239025   3.919   5.122   2.636  0.0827  0.1883  0.1334
 5845TIP3    H139026   3.849   5.169   2.680  0.8931  1.2120  0.3673
 5845TIP3    H239027   3.956   5.065   2.703 -2.0895 -2.3039 -0.5866
 5846TIP3   OH239028   6.358   0.960  12.560  0.1257  0.0498  0.0921
 5846TIP3    H139029   6.276   0.987  12.518  0.0715  0.0345  0.1888
 5846TIP3    H239030   6.379   0.875  12.521 -0.8863 -0.8487  1.4046
 5847TIP3   OH239031   6.666   6.667   4.742 -0.2665  0.0599  0.2895
 5847TIP3    H139032   6.681   6.714   4.825  1.0240  1.4579 -0.6905
 5847TIP3    H239033   6.606   6.596   4.766 -1.4159  1.5181  2.0655
 5848TIP3   OH239034   2.107   3.101  13.961  0.3169 -0.3769  0.2075
 5848TIP3    H139035   2.099   3.148  14.044  0.5785 -0.2431  0.1568
 5848TIP3    H239036   2.065   3.158  13.897  1.0022 -0.0154  0.0721
 5849TIP3   OH239037   0.176   2.265  15.204 -0.9627 -0.2984 -0.6455
 5849TIP3    H139038   0.084   2.239  15.205 -0.6149 -1.7301  1.8819
 5849TIP3    H239039   0.207   2.246  15.292  1.9995 -0.7105 -1.6736
 5850TIP3   OH239040   0.488   2.192   4.301  0.6966  0.1031  0.3746
 5850TIP3    H139041   0.582   2.175   4.293  0.3534 -2.4385  0.7001
 5850TIP3    H239042   0.453   2.113   4.344 -1.4432  1.4270  1.2479
 5851TIP3   OH239043   1.096   4.855  15.359 -0.2843  0.0969 -0.2955
 5851TIP3    H139044   1.077   4.782  15.299 -2.3823 -0.4336  0.9332
 5851TIP3    H239045   1.160   4.819  15.421 -2.3376 -1.2560  1.1577
 5852TIP3   OH239046   4.435   3.607   3.373  0.2093  0.4535  0.6710
 5852TIP3    H139047   4.414   3.514   3.362  0.4330  0.5398 -0.6467
 5852TIP3    H239048   4.466   3.613   3.464 -2.1433 -0.2748  1.5970
 5853TIP3   OH239049   3.216   5.076  16.782  0.0358  0.1326 -0.7110
 5853TIP3    H139050   3.200   5.048  16.873 -0.4925  1.3158 -0.4129
 5853TIP3    H239051   3.307   5.104  16.782  0.2462 -0.5321 -0.7343
 5854TIP3   OH239052   5.437   3.242  15.499 -0.4057 -0.0847 -0.7487
 5854TIP3    H139053   5.344   3.220  15.504 -0.3731 -0.1136 -0.0898
 5854TIP3    H239054   5.482   3.159  15.510 -0.2921  0.1654  1.0713
 5855TIP3   OH239055   3.635   3.161   2.641  0.0703  0.3509 -0.5706
 5855TIP3    H139056   3.711   3.111   2.670 -0.8488 -1.3379 -0.9680
 5855TIP3    H239057   3.566   3.140   2.705 -0.2195  1.4835 -0.4788
 5856TIP3   OH239058   0.265   3.641   1.328 -0.5135  0.0719  0.0935
 5856TIP3    H139059   0.191   3.637   1.388 -0.6186  0.5156 -0.0085
 5856TIP3    H239060   0.229   3.682   1.249  0.7187  4.0242  1.3562
 5857TIP3   OH239061   5.823   0.001  12.661  0.6012 -0.4762 -0.6924
 5857TIP3    H139062   5.744  -0.032  12.617 -0.6609  1.5979 -0.1031
 5857TIP3    H239063   5.848  -0.070  12.720 -3.3975  0.2763  2.3431
 5858TIP3   OH239064   1.491   1.008  10.876  0.6614  0.5037  0.5376
 5858TIP3    H139065   1.540   1.088  10.857  1.0808  0.2136  0.3877
 5858TIP3    H239066   1.409   1.039  10.913  0.4358  1.0358 -0.3737
 5859TIP3   OH239067   6.514   4.462   1.126  0.0424 -0.0631 -0.0621
 5859TIP3    H139068   6.443   4.414   1.168  0.8784 -0.4754  0.9305
 5859TIP3    H239069   6.594   4.419   1.157  0.7169  0.0372 -1.5880
 5860TIP3   OH239070   0.179   2.676  14.048  0.6686  0.6441 -0.5030
 5860TIP3    H139071   0.128   2.675  13.967  0.6283 -0.5218 -0.4710
 5860TIP3    H239072   0.134   2.741  14.103 -1.5444 -1.1502 -0.0344
 5861TIP3   OH239073   4.556   6.433   3.239 -0.2370 -0.1437 -0.3644
 5861TIP3    H139074   4.605   6.435   3.157  0.5713 -0.1325  0.1143
 5861TIP3    H239075   4.516   6.346   3.242  1.4798 -0.9588  0.2278
 5862TIP3   OH239076   1.838   1.835   2.564  0.3094 -0.4413  0.5350
 5862TIP3    H139077   1.851   1.908   2.625 -1.0187 -0.0405  0.3695
 5862TIP3    H239078   1.790   1.770   2.614  0.1192 -0.5468  0.2160
 5863TIP3   OH239079   5.914   1.400  12.730 -0.8133  0.7924 -0.2638
 5863TIP3    H139080   5.940   1.422  12.641 -2.2619  2.9176 -0.2193
 5863TIP3    H239081   5.819   1.409  12.731 -0.9137  0.0300  1.3208
 5864TIP3   OH239082   1.846   1.081  12.902  0.0333  0.8419 -0.0794
 5864TIP3    H139083   1.796   1.147  12.855 -2.0323  1.5785  2.8515
 5864TIP3    H239084   1.798   1.068  12.984 -0.0841 -4.8000 -0.6319
 5865TIP3   OH239085   3.616   6.208   3.067 -0.3815  0.1769  0.4450
 5865TIP3    H139086   3.634   6.137   3.129 -1.0047  0.9139  1.5009
 5865TIP3    H239087   3.621   6.288   3.120 -0.3847  0.8763 -0.5775
 5866TIP3   OH239088   4.514   0.339  16.935  0.1692  0.2113  0.1112
 5866TIP3    H139089   4.501   0.372  17.023 -1.7741 -0.7568  0.2390
 5866TIP3    H239090   4.483   0.409  16.878  1.3356  0.7977  0.1706
 5867TIP3   OH239091   4.499   5.147  11.411  0.3728  0.1147  0.2270
 5867TIP3    H139092   4.457   5.219  11.363 -1.0855 -0.2595  0.8803
 5867TIP3    H239093   4.495   5.073  11.352  0.2472  0.1199  0.2290
 5868TIP3   OH239094   3.738   0.818  11.454 -0.0351 -0.7079 -0.3485
 5868TIP3    H139095   3.775   0.901  11.426  0.1235 -0.7045 -0.1289
 5868TIP3    H239096   3.808   0.754  11.441 -0.0808 -0.7687 -0.3006
 5869TIP3   OH239097   1.620   1.021   5.387 -0.0680 -0.3581 -0.3526
 5869TIP3    H139098   1.664   1.074   5.320 -0.2218 -1.4023 -1.3276
 5869TIP3    H239099   1.556   0.970   5.338  0.4400 -1.8276  0.4466
 5870TIP3   OH239100   0.263   0.353   4.820 -0.4374  0.1879 -0.3135
 5870TIP3    H139101   0.224   0.306   4.747  2.2929 -1.2400 -1.0155
 5870TIP3    H239102   0.244   0.298   4.897  0.1230 -0.5021 -0.6484
 5871TIP3   OH239103   1.020   2.340  12.039 -0.0094  0.1593 -0.3826
 5871TIP3    H139104   0.997   2.265  11.985  0.8359 -2.1558  2.2453
 5871TIP3    H239105   0.937   2.385  12.054 -0.9598 -1.5435 -0.2587
 5872TIP3   OH239106   2.349   1.866  16.990  0.0807 -0.0963  0.5979
 5872TIP3    H139107   2.307   1.795  17.039 -1.1480 -0.4086 -0.8443
 5872TIP3    H239108   2.439   1.835  16.977 -0.4813 -1.4988 -0.1517
 5873TIP3   OH239109   3.299   2.901  10.802 -0.4220  0.0228  0.0169
 5873TIP3    H139110   3.327   2.919  10.712  0.4628  1.3076  0.5120
 5873TIP3    H239111   3.316   2.807  10.814 -1.5751 -0.4178 -1.4750
 5874TIP3   OH239112   2.686   3.544  15.575 -0.4521  0.4185 -0.3902
 5874TIP3    H139113   2.652   3.474  15.520  0.6505 -0.9868  0.6298
 5874TIP3    H239114   2.644   3.531  15.660  0.2850  0.5531  0.0093
 5875TIP3   OH239115   5.310   3.611  10.532  1.0353  0.2280 -0.6097
 5875TIP3    H139116   5.291   3.519  10.514  0.1972 -0.7297  3.8078
 5875TIP3    H239117   5.229   3.657  10.510  0.3397 -0.6636 -0.0046
 5876TIP3   OH239118   1.053   2.633  15.756  1.3472  0.4448  0.8074
 5876TIP3    H139119   1.014   2.718  15.774 -1.6015 -0.7425  0.5565
 5876TIP3    H239120   1.070   2.596  15.843  1.2587  0.6947  0.9326
 5877TIP3   OH239121   0.924   5.409   5.975  0.5975 -0.1041 -0.8086
 5877TIP3    H139122   0.859   5.410   6.045 -0.0115  2.3520 -1.3448
 5877TIP3    H239123   0.879   5.448   5.900  1.6753 -1.4174 -2.1994
 5878TIP3   OH239124   5.842   4.377   3.431 -0.3847 -0.4538 -0.6004
 5878TIP3    H139125   5.811   4.458   3.391  1.3090 -0.5960 -2.3206
 5878TIP3    H239126   5.908   4.343   3.370  0.9871 -1.6691  1.4413
 5879TIP3   OH239127   6.450   3.261  12.148 -0.2472  0.1240 -0.3693
 5879TIP3    H139128   6.524   3.237  12.092  0.4527  2.4002 -0.5102
 5879TIP3    H239129   6.396   3.317  12.092  0.2183  2.0547  1.0186
 5880TIP3   OH239130   3.528   4.061  10.966 -0.4162  0.6395  0.2118
 5880TIP3    H139131   3.585   4.101  10.900 -0.4666  1.5026  0.6754
 5880TIP3    H239132   3.452   4.118  10.970 -0.2201  0.8516  1.3194
 5881TIP3   OH239133   4.244   3.654  16.490  0.1304 -0.2357  0.4704
 5881TIP3    H139134   4.152   3.635  16.506  0.2321 -0.0769  1.2685
 5881TIP3    H239135   4.290   3.573  16.509  0.1628 -0.2985  0.1287
 5882TIP3   OH239136   5.039   1.409  15.711  0.0146 -0.0991  0.4109
 5882TIP3    H139137   5.043   1.335  15.772  2.9104  0.2915  0.8634
 5882TIP3    H239138   4.981   1.472  15.753  0.0280 -0.8386  1.5871
 5883TIP3   OH239139   1.316   0.135   1.413 -0.1637  0.0329  0.1742
 5883TIP3    H139140   1.257   0.193   1.462  1.3781 -0.4908  2.7875
 5883TIP3    H239141   1.313   0.052   1.460  2.2499 -0.1671  0.0661
 5884TIP3   OH239142   0.665   5.557   0.233 -0.3382  0.0860  0.6301
 5884TIP3    H139143   0.747   5.588   0.194 -0.4060 -0.5072 -0.0075
 5884TIP3    H239144   0.687   5.471   0.270 -0.7071 -0.1576  0.2986
 5885TIP3   OH239145   0.676   2.287   1.083 -0.5258 -0.3488  0.2212
 5885TIP3    H139146   0.670   2.382   1.090  1.2404 -0.2282  0.5921
 5885TIP3    H239147   0.650   2.267   0.993  0.6944  0.6709 -0.3843
 5886TIP3   OH239148   3.531   2.257   0.316 -0.0268  0.4787 -0.0860
 5886TIP3    H139149   3.465   2.207   0.270  1.2441 -1.6295  0.2566
 5886TIP3    H239150   3.507   2.249   0.409 -0.0224  0.8336 -0.0518
 5887TIP3   OH239151   1.601   5.125   5.064  0.3384  0.3934  0.3122
 5887TIP3    H139152   1.660   5.192   5.100  0.2399  2.7460 -3.3789
 5887TIP3    H239153   1.657   5.073   5.006 -0.2888 -0.5321  0.5202
 5888TIP3   OH239154   2.913   1.471  16.706  0.0978 -0.2534  1.0153
 5888TIP3    H139155   2.939   1.394  16.757 -0.9759  0.5596  2.8882
 5888TIP3    H239156   2.820   1.484  16.727 -0.2557  0.4547 -0.7672
 5889TIP3   OH239157   4.963   4.100  16.557 -0.2754 -0.2623 -0.0366
 5889TIP3    H139158   5.001   4.186  16.575 -0.0370 -0.4695  0.4823
 5889TIP3    H239159   4.915   4.111  16.475  0.7288  0.0668 -0.5969
 5890TIP3   OH239160   4.351   4.139  12.708 -0.3142 -0.4084 -0.0991
 5890TIP3    H139161   4.408   4.204  12.750 -1.1092  0.7714 -0.7859
 5890TIP3    H239162   4.393   4.055  12.726 -0.1596  0.1147  2.2946
 5891TIP3   OH239163   0.198   3.678  16.095 -0.1536  0.3639 -0.2374
 5891TIP3    H139164   0.268   3.653  16.154 -0.5622  0.7005  0.3948
 5891TIP3    H239165   0.119   3.642  16.135 -0.6186  1.7683  0.1499
 5892TIP3   OH239166   4.866   4.217  14.794 -0.4922 -0.3274  0.7049
 5892TIP3    H139167   4.946   4.211  14.846 -1.0050 -1.7845  1.3541
 5892TIP3    H239168   4.796   4.187  14.852 -1.3729 -0.0556 -0.1803
 5893TIP3   OH239169   4.590   2.248  15.968  0.7254 -0.2521 -0.0919
 5893TIP3    H139170   4.557   2.199  15.892  0.4256  1.4238 -1.1167
 5893TIP3    H239171   4.608   2.336  15.933  3.1817 -0.1638  1.1862
 5894TIP3   OH239172   6.599   4.254   4.025 -0.3809 -0.2052  0.4230
 5894TIP3    H139173   6.626   4.162   4.037  1.9750  0.4346  0.4934
 5894TIP3    H239174   6.556   4.255   3.940 -0.9312 -1.4573  0.6545
 5895TIP3   OH239175   3.295   4.464  16.738  0.0883  0.4469  0.1989
 5895TIP3    H139176   3.379   4.476  16.783 -0.5166 -0.5301  1.6542
 5895TIP3    H239177   3.267   4.375  16.762 -0.4374 -0.0213 -1.8719
 5896TIP3   OH239178   3.034   1.375   0.738 -0.5956  0.1227  0.4044
 5896TIP3    H139179   3.064   1.285   0.728 -0.2680  0.0628  1.7262
 5896TIP3    H239180   2.942   1.368   0.761 -0.8590  0.1887 -0.5675
 5897TIP3   OH239181   0.746   4.312   4.561  0.1559 -0.2794 -0.1191
 5897TIP3    H139182   0.655   4.308   4.533 -0.4220 -0.2905  1.6415
 5897TIP3    H239183   0.767   4.222   4.588  0.6694 -0.2566 -0.4239
 5898TIP3   OH239184   0.047   2.587  10.832 -0.0756 -0.1845  0.5692
 5898TIP3    H139185   0.011   2.550  10.913  1.3464 -0.7497  0.9802
 5898TIP3    H239186   0.119   2.643  10.861 -0.6095  0.9533 -0.2194
 5899TIP3   OH239187   5.127   0.246   2.046  0.4798  0.2076  0.0016
 5899TIP3    H139188   5.045   0.249   2.095 -0.4582  1.0650 -1.5400
 5899TIP3    H239189   5.176   0.324   2.075 -1.1084  2.0951 -2.0393
 5900TIP3   OH239190   0.345   1.351   4.362  0.2655  0.2024 -0.2893
 5900TIP3    H139191   0.367   1.397   4.282  0.0201  0.2338 -0.3379
 5900TIP3    H239192   0.427   1.310   4.389 -0.2093 -2.1363 -2.0599
 5901TIP3   OH239193   4.264   5.803   2.287 -0.2298 -0.3646 -0.2347
 5901TIP3    H139194   4.289   5.849   2.207  1.2633 -3.4900 -1.7237
 5901TIP3    H239195   4.179   5.764   2.267 -1.1695  1.0882  0.7692
 5902TIP3   OH239196   0.955   2.568  16.673 -0.4197 -0.1194 -0.1558
 5902TIP3    H139197   1.005   2.602  16.599  0.2787  0.8071  0.7277
 5902TIP3    H239198   0.865   2.594  16.654 -0.1975  0.4064 -0.5116
 5903TIP3   OH239199   4.831   6.377   5.301  0.0623 -0.2068 -0.1417
 5903TIP3    H139200   4.766   6.323   5.256  0.0534  0.3523 -0.8304
 5903TIP3    H239201   4.843   6.335   5.386 -1.1771 -0.3494 -0.0107
 5904TIP3   OH239202   5.665   0.543   3.016  0.5848 -0.1205 -0.3200
 5904TIP3    H139203   5.589   0.538   3.074 -0.7304  1.7556 -1.7498
 5904TIP3    H239204   5.741   0.544   3.074 -0.6815  2.0476  1.4416
 5905TIP3   OH239205   0.434   4.678   1.945  0.0923 -0.6274  0.6802
 5905TIP3    H139206   0.438   4.713   1.856  0.2781  0.1561  0.9903
 5905TIP3    H239207   0.383   4.742   1.994  1.6403 -0.0428  1.5922
 5906TIP3   OH239208   2.961   4.174   1.496 -0.3112 -0.4724 -0.0274
 5906TIP3    H139209   3.055   4.165   1.515 -0.5426 -2.4631  0.3592
 5906TIP3    H239210   2.951   4.266   1.471  1.7476 -0.2212 -0.1291
 5907TIP3   OH239211   4.463   2.078   1.484 -0.2322  0.3402 -0.0680
 5907TIP3    H139212   4.478   2.141   1.414 -0.0269 -0.8015 -1.0876
 5907TIP3    H239213   4.549   2.037   1.498 -0.6290 -0.6101 -0.3327
 5908TIP3   OH239214   0.848   0.267   4.084 -0.1450  0.4740  0.3089
 5908TIP3    H139215   0.768   0.239   4.041  0.5208 -0.2369 -0.5127
 5908TIP3    H239216   0.819   0.304   4.167 -1.1793 -1.8178  1.0612
 5909TIP3   OH239217   0.137   0.743  10.811  0.9182 -0.4081  1.0491
 5909TIP3    H139218   0.141   0.818  10.751 -1.8121 -1.0569 -0.0832
 5909TIP3    H239219   0.208   0.686  10.783  0.9312  0.2254 -0.2708
 5910TIP3   OH239220   2.075   0.982  12.626 -0.0233 -0.1583 -0.2237
 5910TIP3    H139221   2.036   1.058  12.669 -1.0325  0.3351 -1.8855
 5910TIP3    H239222   2.158   1.014  12.591  1.9773 -1.1662  3.1755
 5911TIP3   OH239223   6.849   2.194  13.012 -0.1952 -1.0311  0.2687
 5911TIP3    H139224   6.832   2.267  12.951  0.6876 -1.8526 -1.0047
 5911TIP3    H239225   6.781   2.130  12.991  0.2336 -1.4009  0.0083
 5912TIP3   OH239226   3.481   2.219  15.971 -0.1170  0.5421 -0.4308
 5912TIP3    H139227   3.510   2.276  15.900  1.4843  1.1725  0.6646
 5912TIP3    H239228   3.561   2.201  16.021 -1.0236 -0.6914  0.6348
 5913TIP3   OH239229   2.452   5.798  12.704 -0.4093  0.5934 -0.2235
 5913TIP3    H139230   2.467   5.705  12.724 -0.8359  0.5991  0.1278
 5913TIP3    H239231   2.375   5.798  12.647 -0.6968  0.7635  0.1588
 5914TIP3   OH239232   4.317   3.938   3.391 -0.5955 -0.0816  0.1372
 5914TIP3    H139233   4.388   3.911   3.332 -0.0841 -1.0047  1.1350
 5914TIP3    H239234   4.251   3.869   3.383 -0.1842 -0.6129  1.1998
 5915TIP3   OH239235   1.348   4.612   0.134 -0.2207 -0.3364  0.1659
 5915TIP3    H139236   1.414   4.544   0.148 -0.2204 -0.6961 -1.4444
 5915TIP3    H239237   1.398   4.688   0.104 -0.4883 -0.5238 -0.7893
 5916TIP3   OH239238   1.211   3.005   3.624  0.7251 -0.2554  0.0689
 5916TIP3    H139239   1.180   3.048   3.704  0.5852  0.3893 -0.3174
 5916TIP3    H239240   1.132   2.969   3.584  0.3106  1.8329 -1.1792
 5917TIP3   OH239241   4.600   3.800   5.306 -0.2766 -0.1563  0.2436
 5917TIP3    H139242   4.552   3.825   5.385 -0.4818  1.0522 -0.2401
 5917TIP3    H239243   4.618   3.883   5.262  0.3678 -0.7671 -0.6757
 5918TIP3   OH239244   6.177   2.336  11.614 -0.1005  0.1743 -0.1335
 5918TIP3    H139245   6.254   2.385  11.641  0.0122 -0.8579  1.5799
 5918TIP3    H239246   6.202   2.294  11.532  0.1684  2.0165 -1.0534
 5919TIP3   OH239247   2.666   6.708  10.920 -0.0167 -0.0766 -0.0828
 5919TIP3    H139248   2.572   6.694  10.920 -0.2724  1.3504 -2.0739
 5919TIP3    H239249   2.679   6.794  10.881  2.1665 -0.6638 -0.8477
 5920TIP3   OH239250   3.094   3.805  13.890 -0.7297  0.5152 -0.5446
 5920TIP3    H139251   3.171   3.777  13.841 -1.0156  2.3874 -2.1613
 5920TIP3    H239252   3.029   3.736  13.874  0.7853 -1.5870  1.6146
 5921TIP3   OH239253   0.577   4.653  13.960 -0.3737 -0.2218 -0.5580
 5921TIP3    H139254   0.520   4.591  14.006  0.0715  0.0222  0.3223
 5921TIP3    H239255   0.522   4.731  13.948 -0.9569 -0.7717 -1.7228
 5922TIP3   OH239256   5.097   1.252   6.609 -0.7161  0.0681  0.1303
 5922TIP3    H139257   5.116   1.335   6.651 -2.9216  0.7944 -0.1574
 5922TIP3    H239258   5.077   1.275   6.518 -3.1647 -0.4598  0.4704
 5923TIP3   OH239259   4.441   5.983   4.507  0.7533 -0.0037 -0.0680
 5923TIP3    H139260   4.379   5.926   4.552  0.4187 -2.0149 -2.8143
 5923TIP3    H239261   4.443   6.063   4.559 -3.1218 -0.3579  0.9044
 5924TIP3   OH239262   5.535   0.063  14.668  0.4927 -0.1129  0.6296
 5924TIP3    H139263   5.567   0.144  14.627  0.5573 -0.7356 -0.5812
 5924TIP3    H239264   5.465   0.033  14.611  0.9891 -1.3241  0.6275
 5925TIP3   OH239265   2.642   3.477   4.269 -0.0654 -0.1895  0.1054
 5925TIP3    H139266   2.590   3.509   4.342 -1.9476 -2.2003 -0.2348
 5925TIP3    H239267   2.718   3.434   4.310  0.1279  0.7400  0.7394
 5926TIP3   OH239268   4.658   1.336   2.330  0.5786 -0.0736 -0.1833
 5926TIP3    H139269   4.624   1.255   2.368 -1.3067  0.7409 -0.0008
 5926TIP3    H239270   4.607   1.405   2.371  2.2098  1.2354 -0.2753
 5927TIP3   OH239271   6.024   6.273  15.106  0.3947  0.6113  0.5030
 5927TIP3    H139272   6.093   6.339  15.099  2.3938 -1.3960  0.5017
 5927TIP3    H239273   6.052   6.216  15.177 -1.5277 -0.0218  0.8177
 5928TIP3   OH239274   3.728   0.143   6.201  0.0116 -0.0591 -0.7631
 5928TIP3    H139275   3.741   0.053   6.172 -1.6344 -0.3046 -0.8357
 5928TIP3    H239276   3.687   0.187   6.126  1.8661  1.1135 -1.1824
 5929TIP3   OH239277   4.435   1.815   3.177 -0.3515  0.5512 -0.7311
 5929TIP3    H139278   4.476   1.819   3.263 -1.2779  0.2281 -0.2523
 5929TIP3    H239279   4.436   1.905   3.145  1.8367  0.3811 -1.3053
 5930TIP3   OH239280   1.075   0.739   1.911  0.8362 -0.3716  0.3600
 5930TIP3    H139281   1.050   0.769   1.824  0.5627  1.4119  1.0078
 5930TIP3    H239282   1.164   0.771   1.923  0.8338 -0.5097  0.7778
 5931TIP3   OH239283   5.154   0.718   3.579 -0.1133 -0.2753  0.2136
 5931TIP3    H139284   5.209   0.754   3.649  0.9282 -1.8390  0.2475
 5931TIP3    H239285   5.124   0.633   3.613 -0.1487 -0.7564 -0.9633
 5932TIP3   OH239286   0.104   1.773   3.780  0.3007  0.1424 -0.4296
 5932TIP3    H139287   0.137   1.839   3.840 -0.1383 -2.2543  2.7195
 5932TIP3    H239288   0.182   1.725   3.752  0.3219 -0.2270  0.2264
 5933TIP3   OH239289   6.691   1.055  15.292  0.3701  0.3215 -0.0966
 5933TIP3    H139290   6.680   1.146  15.265 -0.9805  0.3521  0.4856
 5933TIP3    H239291   6.633   1.045  15.368  0.6744 -0.9641 -0.0062
 5934TIP3   OH239292   0.275   2.199   5.522  1.2232 -0.1235  0.1405
 5934TIP3    H139293   0.239   2.214   5.434 -0.6847  0.3543  0.9637
 5934TIP3    H239294   0.274   2.104   5.533  1.1291 -0.1640 -0.2049
 5935TIP3   OH239295   6.036   4.074   3.130 -0.0425  0.4749 -0.1846
 5935TIP3    H139296   5.967   4.036   3.075 -0.0961 -0.2836  0.3951
 5935TIP3    H239297   6.112   4.079   3.071 -0.3022  0.3539 -0.5374
 5936TIP3   OH239298   5.026   4.558  14.697 -0.6192 -0.0359 -0.0236
 5936TIP3    H139299   4.973   4.638  14.687 -0.0650  0.6440  1.9011
 5936TIP3    H239300   4.987   4.496  14.636 -0.5578  1.9422 -2.2249
 5937TIP3   OH239301   3.523   4.548   4.667 -0.0084  0.2977  0.2233
 5937TIP3    H139302   3.584   4.493   4.715  0.5648  1.1595  0.5099
 5937TIP3    H239303   3.453   4.489   4.639  0.6025 -0.5642  0.4988
 5938TIP3   OH239304   0.584   0.470   4.841 -0.2790 -0.0607  0.4765
 5938TIP3    H139305   0.574   0.493   4.749  0.9618 -0.2657  0.2632
 5938TIP3    H239306   0.573   0.375   4.843 -2.2222  0.1331  0.8635
 5939TIP3   OH239307   3.494   3.652   4.396  0.2219 -0.0145 -0.9337
 5939TIP3    H139308   3.541   3.573   4.422 -0.4133 -0.4101 -0.9598
 5939TIP3    H239309   3.404   3.638   4.427  0.5544  1.5921  0.9444
 5940TIP3   OH239310   1.853   1.401  16.261  0.7215 -0.0414 -0.4481
 5940TIP3    H139311   1.844   1.369  16.172 -0.6537  2.0247 -1.1220
 5940TIP3    H239312   1.774   1.371  16.306  0.5640  0.3817 -0.4335
 5941TIP3   OH239313   0.659   2.806  13.234 -0.0883  0.5175 -0.1518
 5941TIP3    H139314   0.579   2.859  13.230 -0.1633  0.3445 -1.6381
 5941TIP3    H239315   0.698   2.816  13.147  1.6373  0.7608  0.6037
 5942TIP3   OH239316   3.949   4.334   2.761  0.3664  0.2090  0.6976
 5942TIP3    H139317   3.864   4.291   2.773 -0.3192  1.2313 -0.2722
 5942TIP3    H239318   3.975   4.311   2.672  0.0910  1.5654  0.2402
 5943TIP3   OH239319   6.800   5.588  15.973  0.5275 -0.5022 -0.6551
 5943TIP3    H139320   6.743   5.623  16.041 -0.7474  0.5608 -2.2184
 5943TIP3    H239321   6.865   5.536  16.021  0.2060  0.9053  1.4337
 5944TIP3   OH239322   6.534   4.220   0.912  0.1068 -0.2033 -0.1819
 5944TIP3    H139323   6.609   4.274   0.934 -0.1647  0.7745 -1.5099
 5944TIP3    H239324   6.473   4.231   0.985  0.5708  0.3068  0.1267
 5945TIP3   OH239325   6.061   4.040   4.791  0.6119 -0.0959  0.5827
 5945TIP3    H139326   6.064   3.946   4.775 -0.8485  0.2359 -2.4547
 5945TIP3    H239327   6.126   4.076   4.731 -0.2925  0.9137  0.1701
 5946TIP3   OH239328   0.614   5.793   1.942 -0.2797 -0.2489  0.1302
 5946TIP3    H139329   0.545   5.802   2.008 -0.3018 -2.0176  0.4039
 5946TIP3    H239330   0.686   5.751   1.989  0.3612  0.0828 -0.5513
 5947TIP3   OH239331   0.975   1.246  15.039  1.1338  0.4843 -0.1793
 5947TIP3    H139332   0.962   1.274  14.948  0.2963 -0.8274 -0.4797
 5947TIP3    H239333   0.887   1.241  15.076  1.2851 -1.1540  0.0246
 5948TIP3   OH239334   6.689   0.698   0.364 -0.0574 -0.3695 -0.0402
 5948TIP3    H139335   6.595   0.679   0.372 -0.6418  1.5884 -1.5598
 5948TIP3    H239336   6.720   0.640   0.294 -0.1229 -0.9760  0.4233
 5949TIP3   OH239337   4.471   0.086  13.632 -0.1113 -0.5101  0.1942
 5949TIP3    H139338   4.425   0.021  13.686 -1.0750  0.3643  0.4667
 5949TIP3    H239339   4.557   0.048  13.616 -0.7490 -1.9728  0.1082
 5950TIP3   OH239340   3.812   3.370  14.491 -0.2125 -0.1105  0.4254
 5950TIP3    H139341   3.885   3.430  14.508  0.4705 -0.9757  0.5756
 5950TIP3    H239342   3.736   3.415  14.528  0.7552 -0.6685  3.2938
 5951TIP3   OH239343   3.861   6.557   3.108  0.4099 -0.2830  0.0275
 5951TIP3    H139344   3.853   6.637   3.056  1.7604  0.6404  1.1923
 5951TIP3    H239345   3.886   6.586   3.195  1.9737 -2.0260  0.2211
 5952TIP3   OH239346   2.307   0.007   5.043 -0.7266 -0.1949 -0.2153
 5952TIP3    H139347   2.377  -0.054   5.020 -1.6323 -1.7418  0.9299
 5952TIP3    H239348   2.226  -0.043   5.031 -1.4782  0.6033  1.2171
 5953TIP3   OH239349   0.678   0.800  13.690 -0.6124  0.3147  0.1883
 5953TIP3    H139350   0.762   0.757  13.676 -0.7368  0.5711 -1.5750
 5953TIP3    H239351   0.686   0.884  13.646 -1.6645  0.4971  0.3056
 5954TIP3   OH239352   2.688   6.212   4.281  0.3453 -0.2110 -0.0398
 5954TIP3    H139353   2.744   6.201   4.204 -0.5168 -1.9983 -0.4540
 5954TIP3    H239354   2.640   6.293   4.264  2.1871  0.9363 -0.0282
 5955TIP3   OH239355   3.505   2.430  13.601  0.1236  0.1059 -0.1754
 5955TIP3    H139356   3.577   2.398  13.655  1.0523  4.2059  1.3389
 5955TIP3    H239357   3.547   2.455  13.518  0.2507  1.2652  0.2231
 5956TIP3   OH239358   2.395   3.889  14.954  0.0095  0.0804  0.2691
 5956TIP3    H139359   2.330   3.936  15.007  0.8002 -0.6217  1.9305
 5956TIP3    H239360   2.467   3.951  14.943 -0.3379  0.3767 -0.3784
 5957TIP3   OH239361   3.785   3.302   0.764  0.1743  0.0119  0.4769
 5957TIP3    H139362   3.799   3.382   0.714  0.6873  0.0800  0.7198
 5957TIP3    H239363   3.690   3.296   0.774  0.1742  1.1907  1.4129
 5958TIP3   OH239364   2.008   0.021  13.452  0.3498 -0.2488 -0.6565
 5958TIP3    H139365   1.963  -0.044  13.506  0.2839 -0.1399 -0.5810
 5958TIP3    H239366   2.100  -0.006  13.454  0.1488 -1.0779 -1.6529
 5959TIP3   OH239367   1.795   0.503  11.064 -0.1175 -0.2127 -0.6348
 5959TIP3    H139368   1.780   0.553  11.144  1.1164 -0.0964 -0.4619
 5959TIP3    H239369   1.826   0.568  11.001  0.8825 -0.6444 -0.5954
 5960TIP3   OH239370   6.365   3.936  16.554  0.3813  0.2400 -0.1005
 5960TIP3    H139371   6.403   3.965  16.471 -2.7437  0.8565 -1.4205
 5960TIP3    H239372   6.415   3.857  16.575  0.3928 -0.7761 -3.3290
 5961TIP3   OH239373   5.055   5.529   6.149  0.5734 -0.1034  0.3376
 5961TIP3    H139374   5.024   5.561   6.234  1.9035 -0.3502  0.9308
 5961TIP3    H239375   5.150   5.527   6.157  0.8519  1.3731 -1.6967
 5962TIP3   OH239376   1.565   0.790   5.194 -0.0347 -0.6838  0.1726
 5962TIP3    H139377   1.655   0.810   5.219 -0.9796  1.4461  2.2156
 5962TIP3    H239378   1.549   0.843   5.116  0.2356 -0.4853  0.2512
 5963TIP3   OH239379   0.553   6.443  16.541  0.0322 -0.1534  0.1372
 5963TIP3    H139380   0.591   6.357  16.520  0.3341 -0.4714  1.8057
 5963TIP3    H239381   0.460   6.425  16.557  0.2880 -0.4054  1.5224
 5964TIP3   OH239382   2.823   5.080   1.667 -0.4055 -0.0639  0.1374
 5964TIP3    H139383   2.796   4.996   1.630 -1.0443 -0.5355  1.5843
 5964TIP3    H239384   2.916   5.086   1.646 -0.3200 -1.2072  0.1043
 5965TIP3   OH239385   0.337   0.478   3.479 -0.7573  0.0063  0.1765
 5965TIP3    H139386   0.277   0.539   3.436  0.0519 -0.8463 -2.3613
 5965TIP3    H239387   0.423   0.503   3.447 -0.2562 -1.5150  0.2401
 5966TIP3   OH239388   1.338   0.231   3.752  0.1012 -0.2483 -0.3906
 5966TIP3    H139389   1.322   0.150   3.800 -0.9180  0.8912  1.3100
 5966TIP3    H239390   1.433   0.236   3.742  0.2664 -0.9844  0.7050
 5967TIP3   OH239391   0.791   0.561  15.763  0.0347 -0.5531  0.1906
 5967TIP3    H139392   0.882   0.592  15.768 -0.4382  0.8738  0.5239
 5967TIP3    H239393   0.793   0.475  15.805  0.9671  0.1209  1.6338
 5968TIP3   OH239394   0.718   4.009  13.993  0.0233 -0.3637  0.1792
 5968TIP3    H139395   0.666   4.019  13.913  0.6708  0.7356 -0.1344
 5968TIP3    H239396   0.654   4.000  14.062 -0.6231  1.0181 -0.1989
 5969TIP3   OH239397   6.097   4.403   2.731 -0.4993 -0.2849  0.3433
 5969TIP3    H139398   6.060   4.319   2.702  0.2056 -0.3315 -0.4925
 5969TIP3    H239399   6.188   4.382   2.753  0.1447  0.5181 -1.3583
 5970TIP3   OH239400   5.563   4.930  11.852  0.0712 -0.0743  0.2634
 5970TIP3    H139401   5.627   4.886  11.908  0.8173  0.2756 -0.3035
 5970TIP3    H239402   5.481   4.926  11.902  0.8285  0.7164  1.6334
 5971TIP3   OH239403   2.354   4.268   0.788 -0.1986 -0.2096 -0.0419
 5971TIP3    H139404   2.368   4.236   0.877  0.2743 -1.7171 -0.6285
 5971TIP3    H239405   2.428   4.328   0.774  0.1558 -0.5438  0.3266
 5972TIP3   OH239406   2.256   2.675  13.118 -0.7371 -0.1464  0.2514
 5972TIP3    H139407   2.209   2.693  13.200  0.6935  0.3413  0.9942
 5972TIP3    H239408   2.271   2.581  13.120  0.4506  0.0376  1.2294
 5973TIP3   OH239409   3.735   1.929  12.235  0.1990  0.3397  0.1456
 5973TIP3    H139410   3.796   1.978  12.290  0.3815  0.5108 -0.2039
 5973TIP3    H239411   3.721   1.986  12.159 -0.6150  0.4308  0.3501
 5974TIP3   OH239412   3.382   4.402   5.333 -0.0452 -0.3085 -0.0481
 5974TIP3    H139413   3.424   4.434   5.412 -2.3237  0.7360  0.8439
 5974TIP3    H239414   3.412   4.461   5.264 -1.4008  1.6195  0.9163
 5975TIP3   OH239415   3.958   0.806   6.060  0.3575  0.5281  0.4880
 5975TIP3    H139416   4.024   0.871   6.085  0.7284  0.6223 -0.6805
 5975TIP3    H239417   3.978   0.729   6.115  0.2061  1.2221  1.5417
 5976TIP3   OH239418   4.835   2.982   4.937  0.5950  0.0619 -0.0904
 5976TIP3    H139419   4.857   3.066   4.977  3.0563 -1.0350  1.0905
 5976TIP3    H239420   4.796   2.931   5.008 -0.3931  0.0114 -0.6600
 5977TIP3   OH239421   5.005   6.289   3.439  0.2397 -0.3310 -0.3049
 5977TIP3    H139422   4.957   6.349   3.381 -1.3468  0.1744  1.4326
 5977TIP3    H239423   5.000   6.330   3.525  1.9992 -1.3632  0.3267
 5978TIP3   OH239424   2.282   1.129  12.086  0.0803  0.0702 -0.3272
 5978TIP3    H139425   2.295   1.217  12.121 -0.5518 -0.0059  0.1047
 5978TIP3    H239426   2.331   1.071  12.144  0.3560  0.1176 -0.5121
 5979TIP3   OH239427   6.616   1.272   0.953 -0.3626 -0.0545  0.1032
 5979TIP3    H139428   6.606   1.313   1.039 -4.1636  1.7414 -0.9711
 5979TIP3    H239429   6.671   1.333   0.904  1.3547 -0.8119  0.9850
 5980TIP3   OH239430   4.324   6.139  11.894 -0.2092 -0.4881  0.3019
 5980TIP3    H139431   4.410   6.169  11.867 -0.7323  0.5937 -0.2497
 5980TIP3    H239432   4.292   6.207  11.954 -0.8966 -0.5913  0.0648
 5981TIP3   OH239433   3.871   4.272   0.976  0.6759  0.9562 -0.7548
 5981TIP3    H139434   3.896   4.203   0.915 -0.6635 -0.7251  0.5347
 5981TIP3    H239435   3.950   4.287   1.029  0.4512 -0.9213  0.1620
 5982TIP3   OH239436   3.913   4.569   0.692  0.1906 -0.0017  0.0846
 5982TIP3    H139437   3.970   4.515   0.637  1.0449  1.0610 -0.0950
 5982TIP3    H239438   3.923   4.657   0.657 -1.8971  0.1688 -0.2157
 5983TIP3   OH239439   2.674   0.454   4.214 -0.2291  0.0541 -0.1792
 5983TIP3    H139440   2.589   0.442   4.171 -0.3068 -1.0185  0.2362
 5983TIP3    H239441   2.665   0.535   4.263 -0.6189  0.5542 -1.0540
 5984TIP3   OH239442   5.261   5.675  14.538  0.3220  0.2234  0.4721
 5984TIP3    H139443   5.255   5.592  14.489  0.2814 -0.0363  0.9155
 5984TIP3    H239444   5.351   5.677  14.570  0.8257  1.1309 -0.8969
 5985TIP3   OH239445   3.659   3.451   4.549  0.4498  0.2119  0.3732
 5985TIP3    H139446   3.673   3.491   4.634  1.4326  2.9242 -0.9596
 5985TIP3    H239447   3.723   3.492   4.491 -0.1525 -1.5444 -1.7080
 5986TIP3   OH239448   2.047   5.269   6.579 -0.2961  0.2977 -0.6393
 5986TIP3    H139449   1.992   5.221   6.517 -1.7706  1.7137 -0.5045
 5986TIP3    H239450   2.003   5.257   6.664 -0.4009  1.4097 -0.5216
 5987TIP3   OH239451   1.667   5.765   1.877  0.1504 -0.1069  0.1971
 5987TIP3    H139452   1.617   5.733   1.952  0.2063 -0.3321  0.1401
 5987TIP3    H239453   1.604   5.764   1.805 -0.0861  0.7524  0.3870
 5988TIP3   OH239454   4.230   2.633  16.088 -0.4024 -0.2928  0.1495
 5988TIP3    H139455   4.324   2.650  16.086 -0.2653 -1.1048 -0.8171
 5988TIP3    H239456   4.191   2.708  16.043 -0.2812  0.3103  1.0121
 5989TIP3   OH239457   3.061   0.608  12.646  0.1899  0.1826 -0.0543
 5989TIP3    H139458   3.097   0.520  12.634  1.0918  0.6307 -0.6692
 5989TIP3    H239459   3.015   0.603  12.730  1.0242 -0.6173  0.3761
 5990TIP3   OH239460   3.525   5.753  12.588 -0.1450  0.1688 -0.2190
 5990TIP3    H139461   3.463   5.799  12.532 -0.4331  2.3714  1.7414
 5990TIP3    H239462   3.589   5.820  12.613  0.2885 -0.8382  1.5603
 5991TIP3   OH239463   3.472   3.118  16.945  0.0285 -0.5207  0.0401
 5991TIP3    H139464   3.532   3.133  16.871 -1.4371 -0.7357 -1.2378
 5991TIP3    H239465   3.519   3.057  17.002  2.9919  2.7987  1.5471
 5992TIP3   OH239466   5.893   0.673   4.057 -0.1872 -0.2048  0.3019
 5992TIP3    H139467   5.881   0.583   4.026  0.1111 -0.0494 -0.2846
 5992TIP3    H239468   5.858   0.672   4.146 -0.1993 -0.8992  0.3013
 5993TIP3   OH239469   3.490   4.558  12.195  0.0046  0.3275  0.1642
 5993TIP3    H139470   3.515   4.534  12.106 -2.2671  1.5262 -0.8879
 5993TIP3    H239471   3.495   4.476  12.245  1.5295 -0.3200 -0.9911
 5994TIP3   OH239472   6.197   4.820  15.027  0.1942 -0.1126  0.8362
 5994TIP3    H139473   6.228   4.817  14.937 -1.3530  0.1518  0.2514
 5994TIP3    H239474   6.162   4.732  15.043 -0.9080  0.2663  0.6214
 5995TIP3   OH239475   6.237   2.345   0.998 -0.0537 -0.2537  0.3641
 5995TIP3    H139476   6.196   2.395   1.068 -1.8282  2.1864 -2.1739
 5995TIP3    H239477   6.302   2.405   0.961 -0.0027 -0.9849 -0.7916
 5996TIP3   OH239478   6.819   0.134  12.388 -0.5676 -0.1356 -0.8748
 5996TIP3    H139479   6.905   0.162  12.417 -1.1201 -0.6086  1.3797
 5996TIP3    H239480   6.783   0.210  12.341 -0.1068  1.1818  0.8331
 5997TIP3   OH239481   6.765   6.059  13.018  0.4088 -0.0721  0.8204
 5997TIP3    H139482   6.739   6.064  13.110  3.5908  0.6931  1.8176
 5997TIP3    H239483   6.830   5.988  13.015  0.2574 -0.1770 -0.8638
 5998TIP3   OH239484   1.119   1.962   1.804 -0.6695 -0.5531  0.6681
 5998TIP3    H139485   1.071   1.973   1.722 -0.8113 -0.6040  0.7426
 5998TIP3    H239486   1.137   1.868   1.809 -1.1178 -0.6306  0.9443
 5999TIP3   OH239487   5.508   4.817   5.531  0.2950 -0.0077 -0.2483
 5999TIP3    H139488   5.554   4.796   5.612  0.2835  0.6015 -0.0804
 5999TIP3    H239489   5.435   4.872   5.558  0.5650  0.5914 -0.7200
 6000TIP3   OH239490   3.289   3.927  14.050 -0.1788 -0.4912  0.3669
 6000TIP3    H139491   3.212   3.983  14.045  0.7139  0.7407 -0.1361
 6000TIP3    H239492   3.261   3.844  14.011 -1.8433 -0.8037  2.0922
 6001TIP3   OH239493   5.666   4.994   3.295 -0.6371  0.2160 -0.1215
 6001TIP3    H139494   5.644   5.075   3.341 -1.0544  0.1267 -0.1576
 6001TIP3    H239495   5.752   4.969   3.329 -0.3813  0.8216 -0.3140
 6002TIP3   OH239496   4.860   0.797   3.092  0.1638 -0.5875 -0.0727
 6002TIP3    H139497   4.781   0.845   3.117 -1.0478 -2.3466 -0.3101
 6002TIP3    H239498   4.915   0.862   3.048 -0.7703  0.8786  0.8328
 6003TIP3   OH239499   2.315   1.310  15.398 -0.7244  0.3623  0.0098
 6003TIP3    H139500   2.228   1.274  15.415 -1.2607  0.7552 -1.7649
 6003TIP3    H239501   2.301   1.405  15.393 -0.0259  0.5059  0.6143
 6004TIP3   OH239502   4.381   0.227   3.291  0.7985  0.5111 -0.7303
 6004TIP3    H139503   4.324   0.296   3.326  1.7490  0.6960  0.4902
 6004TIP3    H239504   4.450   0.218   3.356  1.9125 -0.0470 -1.9594
 6005TIP3   OH239505   2.295   2.013   3.967 -0.0651  0.1685  0.0010
 6005TIP3    H139506   2.337   2.076   4.025 -0.8567 -0.0457  0.8356
 6005TIP3    H239507   2.364   1.985   3.907  0.7963  0.3501  0.8901
 6006TIP3   OH239508   1.606   2.837  11.072 -0.2234 -0.4708  0.2691
 6006TIP3    H139509   1.676   2.861  11.012  1.6754 -0.6975  2.2644
 6006TIP3    H239510   1.643   2.849  11.159 -3.1476  0.7239  1.4869
 6007TIP3   OH239511   5.482   5.823  15.947  0.1829  0.2462  0.3363
 6007TIP3    H139512   5.455   5.736  15.975  0.4756 -0.7450 -2.2231
 6007TIP3    H239513   5.534   5.808  15.867  1.5873  2.6586  0.7063
 6008TIP3   OH239514   4.036   0.402  16.818 -0.1386  0.1516 -0.2630
 6008TIP3    H139515   3.960   0.358  16.780 -1.4937  2.2977 -0.2030
 6008TIP3    H239516   4.049   0.359  16.902 -2.1686  0.6113  0.3280
 6009TIP3   OH239517   2.633   2.543   4.747  0.2856  0.1454 -0.1134
 6009TIP3    H139518   2.606   2.530   4.838  0.1093 -1.7165 -0.3813
 6009TIP3    H239519   2.562   2.505   4.695 -0.0683  2.0302 -1.0999
 6010TIP3   OH239520   0.371   4.890   5.056 -0.6788 -0.1966 -0.2650
 6010TIP3    H139521   0.378   4.967   5.113 -1.3739  0.5293 -1.1311
 6010TIP3    H239522   0.426   4.824   5.098 -0.6561  0.5321  0.8936
 6011TIP3   OH239523   2.848   2.506   3.294  0.4053  0.7882 -0.7806
 6011TIP3    H139524   2.805   2.425   3.266 -0.3486 -0.1024  2.5213
 6011TIP3    H239525   2.920   2.518   3.232  0.0862 -1.9774 -1.8213
 6012TIP3   OH239526   0.065   2.159   3.591  0.5498 -0.0366  0.2262
 6012TIP3    H139527  -0.027   2.181   3.586  0.2300 -1.5114 -2.0476
 6012TIP3    H239528   0.091   2.182   3.680 -1.9116  0.6819  0.8285
 6013TIP3   OH239529   1.022   2.208  16.241 -0.4806  0.6572 -0.1496
 6013TIP3    H139530   0.937   2.203  16.285 -0.5608  2.0710 -0.0877
 6013TIP3    H239531   1.017   2.288  16.189  0.8001  0.7277 -0.1942
 6014TIP3   OH239532   1.122   2.209   0.874 -0.7010 -0.4455  0.1422
 6014TIP3    H139533   1.157   2.284   0.826  0.1570  0.9489  2.7476
 6014TIP3    H239534   1.100   2.244   0.961 -0.5430 -3.1371  1.3814
 6015TIP3   OH239535   3.311   0.649   2.621 -0.3353  0.0770 -0.2513
 6015TIP3    H139536   3.329   0.559   2.593 -1.1406 -0.0250 -0.4527
 6015TIP3    H239537   3.218   0.649   2.644  0.0743  0.3777  1.5835
 6016TIP3   OH239538   0.473   4.283  12.488 -0.5280 -0.3468 -1.1512
 6016TIP3    H139539   0.481   4.361  12.434 -2.8310 -0.5515 -1.8571
 6016TIP3    H239540   0.512   4.213  12.435 -0.0768 -0.0200 -1.2594
 6017TIP3   OH239541   0.198   3.193  14.839  0.2727  0.4729  0.3327
 6017TIP3    H139542   0.290   3.170  14.847  0.0618 -1.5937 -1.8957
 6017TIP3    H239543   0.155   3.149  14.913  0.7987 -0.5270  0.0556
 6018TIP3   OH239544   3.403   3.463   3.570 -0.4944  0.3666  0.1275
 6018TIP3    H139545   3.442   3.513   3.499 -0.2264  0.4592  0.3338
 6018TIP3    H239546   3.398   3.525   3.643 -1.0814  0.3710  0.0914
 6019TIP3   OH239547   6.851   3.854   2.789  0.6200 -0.4459 -0.9480
 6019TIP3    H139548   6.780   3.805   2.829  0.0421 -1.5766 -3.1598
 6019TIP3    H239549   6.925   3.793   2.787 -0.0066 -1.2679 -3.4199
 6020TIP3   OH239550   6.139   3.361  11.441 -0.2618 -0.4191 -0.0310
 6020TIP3    H139551   6.210   3.313  11.398  0.9430  0.3585  0.9991
 6020TIP3    H239552   6.184   3.425  11.497 -1.7747 -0.1790  0.9742
 6021TIP3   OH239553   5.445   5.597   3.630  0.7583  0.2461  0.7656
 6021TIP3    H139554   5.444   5.597   3.534 -1.0280  2.7280  0.6686
 6021TIP3    H239555   5.441   5.504   3.654  0.0121 -0.4141 -1.5947
 6022TIP3   OH239556   1.828   3.634   6.350  0.2233  0.3626  0.3262
 6022TIP3    H139557   1.866   3.711   6.393 -2.9082  1.2153  1.8807
 6022TIP3    H239558   1.816   3.661   6.259  0.2585  1.3043  0.5917
 6023TIP3   OH239559   2.731   5.377  14.224  0.4492 -0.3791 -0.2991
 6023TIP3    H139560   2.679   5.380  14.304  0.1458 -1.6483 -0.4239
 6023TIP3    H239561   2.718   5.462  14.183 -1.8916 -0.7853 -0.5331
 6024TIP3   OH239562   4.985   2.337  13.573 -0.0710 -0.0635 -0.4161
 6024TIP3    H139563   4.897   2.369  13.551 -0.4385 -0.1428  0.8216
 6024TIP3    H239564   5.039   2.416  13.575 -0.3664  0.1387 -0.1131
 6025TIP3   OH239565   6.679   1.105   5.680 -0.1626  0.0172 -0.0597
 6025TIP3    H139566   6.702   1.096   5.772  0.5766  0.5256 -0.1941
 6025TIP3    H239567   6.596   1.057   5.672 -1.1157  1.3438  1.2162
 6026TIP3   OH239568   2.072   1.351   5.400 -0.1417 -0.1852 -0.1835
 6026TIP3    H139569   2.018   1.282   5.438  0.0201 -0.9799 -1.3179
 6026TIP3    H239570   2.134   1.375   5.469  1.1000 -2.5985 -0.3667
 6027TIP3   OH239571   3.354   1.761  10.639  0.2705  0.1063  0.4537
 6027TIP3    H139572   3.262   1.741  10.657  0.0381  0.5533 -0.1941
 6027TIP3    H239573   3.365   1.739  10.546  0.4698  1.2685  0.1840
 6028TIP3   OH239574   1.215   2.034   3.201  0.5757  0.2672 -1.0406
 6028TIP3    H139575   1.227   2.018   3.295 -2.0873  1.4938 -0.4044
 6028TIP3    H239576   1.238   2.127   3.190 -1.3209  0.7853 -1.0616
 6029TIP3   OH239577   1.811   5.004  13.740 -0.8172 -0.2051  0.0247
 6029TIP3    H139578   1.875   5.071  13.718 -1.0570  0.2607  0.7110
 6029TIP3    H239579   1.742   5.015  13.674 -0.1314 -0.8192 -0.8195
 6030TIP3   OH239580   0.904   1.065   4.957 -0.0189  0.0690 -0.3815
 6030TIP3    H139581   0.906   0.982   5.006  2.7327 -0.6377 -1.5173
 6030TIP3    H239582   0.816   1.068   4.920 -0.9736 -1.1621  1.5567
 6031TIP3   OH239583   5.785   3.991  10.470 -0.2839  0.1851 -0.5001
 6031TIP3    H139584   5.870   3.996  10.426  0.8571 -1.4798  1.3627
 6031TIP3    H239585   5.757   3.900  10.458 -2.1944  0.8693 -1.6723
 6032TIP3   OH239586   1.132   1.568  16.752 -0.4759  0.9089  0.0279
 6032TIP3    H139587   1.074   1.643  16.753  0.8047  2.0077 -1.9549
 6032TIP3    H239588   1.215   1.602  16.719 -0.0151 -1.4657 -1.5488
 6033TIP3   OH239589   5.931   1.861   5.340 -0.0526 -0.3558 -0.5391
 6033TIP3    H139590   5.929   1.805   5.417  1.9333 -0.0174 -0.1936
 6033TIP3    H239591   5.922   1.950   5.374 -0.0093 -0.2608 -0.7703
 6034TIP3   OH239592   3.928   6.520   0.869  0.3842  1.3430  0.3427
 6034TIP3    H139593   3.985   6.444   0.882  0.5378  1.3544 -0.2279
 6034TIP3    H239594   3.841   6.489   0.893  0.7427  1.5816  2.0952
 6035TIP3   OH239595   1.266   0.761  15.062 -0.0791  0.6549  0.1048
 6035TIP3    H139596   1.336   0.826  15.071 -0.0930  0.6833  0.0113
 6035TIP3    H239597   1.285   0.696  15.129 -0.3914  1.0583  0.5926
 6036TIP3   OH239598   4.029   2.283  13.315 -0.4571  0.5233 -0.3234
 6036TIP3    H139599   4.007   2.368  13.353 -2.0624 -0.6473  1.5266
 6036TIP3    H239600   4.124   2.277  13.325 -0.3570  1.9143 -0.1678
 6037TIP3   OH239601   1.910   4.750  16.104 -0.1360 -0.1082  0.0740
 6037TIP3    H139602   1.910   4.843  16.125 -1.7858 -0.1040  0.2216
 6037TIP3    H239603   1.858   4.744  16.024 -0.2534 -0.9251  0.2051
 6038TIP3   OH239604   2.665   2.424   5.252  0.2774 -0.2112 -0.0322
 6038TIP3    H139605   2.671   2.490   5.322 -0.7302  1.6004 -1.5659
 6038TIP3    H239606   2.626   2.348   5.294  1.2835  0.2060  1.7601
 6039TIP3   OH239607   0.631   0.679   5.356 -0.2782 -0.2096  0.3175
 6039TIP3    H139608   0.659   0.743   5.422  1.8012 -0.1729 -0.5396
 6039TIP3    H239609   0.576   0.730   5.296 -0.1633  0.3295  0.6573
 6040TIP3   OH239610   0.633   4.025   1.019  0.0119  0.0096  0.2754
 6040TIP3    H139611   0.578   3.985   1.086 -0.5724  1.1339  0.4935
 6040TIP3    H239612   0.722   4.013   1.050 -0.2085 -0.2009  0.8441
 6041TIP3   OH239613   3.033   4.071   0.627 -0.2466 -0.1793  0.2729
 6041TIP3    H139614   3.019   4.099   0.536  0.1942 -0.2642  0.1742
 6041TIP3    H239615   3.057   4.151   0.673 -2.1329  0.1876  0.6973
 6042TIP3   OH239616   3.492   4.480  13.739 -0.3182  0.0970 -0.2743
 6042TIP3    H139617   3.534   4.478  13.653 -1.8354 -0.8699 -1.0467
 6042TIP3    H239618   3.465   4.571  13.750  0.6204  0.4127 -0.4238
 6043TIP3   OH239619   2.642   2.712  14.877 -0.2722 -0.0731  0.0362
 6043TIP3    H139620   2.645   2.730  14.783 -1.2113 -0.0897 -0.0063
 6043TIP3    H239621   2.731   2.687  14.899 -0.1217 -0.4396 -0.9276
 6044TIP3   OH239622   0.209   6.131   5.855  0.0747  0.2875 -0.0261
 6044TIP3    H139623   0.225   6.224   5.867 -0.4854  0.2708  0.9760
 6044TIP3    H239624   0.176   6.123   5.765  2.9583  0.6372 -1.2143
 6045TIP3   OH239625   2.848   4.966  14.318 -0.4144 -0.7683 -0.7686
 6045TIP3    H139626   2.773   4.987  14.374  0.3822  2.4288 -0.7152
 6045TIP3    H239627   2.915   4.935  14.379 -0.9039 -1.4243 -0.5399
 6046TIP3   OH239628   0.622   0.680  15.184  0.4339  0.0680  0.3633
 6046TIP3    H139629   0.698   0.639  15.143  0.7129  1.3073 -0.4086
 6046TIP3    H239630   0.660   0.745  15.243 -0.0190  0.7027 -0.0383
 6047TIP3   OH239631   5.349   6.770  17.023  0.3595  0.3320  0.0759
 6047TIP3    H139632   5.424   6.807  16.977 -0.3086 -0.6710 -1.9289
 6047TIP3    H239633   5.298   6.846  17.051  1.9657  1.0214  1.2797
 6048TIP3   OH239634   6.362   6.446   3.649  0.0383  0.1658 -0.1111
 6048TIP3    H139635   6.349   6.378   3.714 -0.0197  3.0168  3.1565
 6048TIP3    H239636   6.310   6.520   3.681 -0.2048  1.7274 -3.6086
 6049TIP3   OH239637   6.645   3.138  15.383 -0.1459 -0.0343 -0.5438
 6049TIP3    H139638   6.644   3.198  15.309  1.0168  0.4705 -0.1845
 6049TIP3    H239639   6.615   3.055  15.348  2.0486 -0.2815 -2.0429
 6050TIP3   OH239640   3.672   1.680  16.722  0.1198 -0.2778  0.3371
 6050TIP3    H139641   3.722   1.758  16.745 -2.4228  1.7990 -0.7560
 6050TIP3    H239642   3.729   1.633  16.661  1.0540  1.6475 -0.3644
 6051TIP3   OH239643   2.781   2.972   5.771  0.0045 -0.8634 -0.0421
 6051TIP3    H139644   2.842   2.913   5.816 -0.1154 -0.4520  0.6759
 6051TIP3    H239645   2.695   2.933   5.786 -0.6135  1.3941  3.8250
 6052TIP3   OH239646   2.969   2.785   1.651  0.1962 -0.0695 -0.0229
 6052TIP3    H139647   2.972   2.857   1.587  0.6204 -0.4781 -0.4775
 6052TIP3    H239648   2.906   2.813   1.717  0.1479  0.5958 -0.3473
 6053TIP3   OH239649   4.680   5.305   5.642 -0.1185  0.5306 -0.4335
 6053TIP3    H139650   4.683   5.322   5.736 -0.4177  0.1009 -0.3380
 6053TIP3    H239651   4.749   5.359   5.605  0.3027  0.3654  0.0896
 6054TIP3   OH239652   2.459   4.337  14.571  1.1336 -0.0227  0.7161
 6054TIP3    H139653   2.383   4.306  14.621  0.3996  1.4133  0.5366
 6054TIP3    H239654   2.526   4.353  14.637  0.4656  1.0019  1.1733
 6055TIP3   OH239655   5.219   1.383  12.669 -0.1309  0.0860  0.1025
 6055TIP3    H139656   5.252   1.340  12.590  0.3071 -1.1687  0.9219
 6055TIP3    H239657   5.151   1.324  12.701  0.5977 -0.1288  1.3497
 6056TIP3   OH239658   2.890   2.713  14.302 -0.6531 -0.0620  0.2737
 6056TIP3    H139659   2.943   2.784  14.265  0.1029 -0.4353  0.6151
 6056TIP3    H239660   2.929   2.698  14.389 -0.9005 -0.7903  0.2579
 6057TIP3   OH239661   5.282   6.759  14.749 -0.6564  0.5849 -0.2333
 6057TIP3    H139662   5.191   6.733  14.761 -0.5073  0.5633  0.9631
 6057TIP3    H239663   5.278   6.851  14.724 -1.0312  0.3471 -1.0962
 6058TIP3   OH239664   6.660   6.673   5.792 -0.3065  0.0574 -0.0519
 6058TIP3    H139665   6.703   6.620   5.858 -0.5575  0.5200  0.4875
 6058TIP3    H239666   6.579   6.703   5.834 -0.2802  0.6732 -0.4292
 6059TIP3   OH239667   4.726   2.119   0.228  0.2541 -0.1134 -0.4559
 6059TIP3    H139668   4.697   2.094   0.140  3.3757  0.0423 -1.6892
 6059TIP3    H239669   4.791   2.187   0.212  0.6564  0.1604  2.0372
 6060TIP3   OH239670   4.498   6.323  15.011  0.1336 -0.5632  0.0085
 6060TIP3    H139671   4.538   6.287  15.090 -1.3010 -1.9304  0.1527
 6060TIP3    H239672   4.528   6.414  15.008 -0.2942 -0.2764  2.5004
 6061TIP3   OH239673   0.690   2.822   0.715 -0.5474  0.6711  0.0592
 6061TIP3    H139674   0.778   2.789   0.734  0.8969  2.0612 -3.2976
 6061TIP3    H239675   0.632   2.752   0.744  1.7127 -0.8241  1.3635
 6062TIP3   OH239676   0.437   0.858  15.449  0.2772  0.2557  0.6207
 6062TIP3    H139677   0.357   0.814  15.477  0.2692 -0.4090 -0.4253
 6062TIP3    H239678   0.507   0.795  15.469  0.4793  0.5861  0.9678
 6063TIP3   OH239679   0.562   1.149   0.611 -0.0554  0.6079  0.2921
 6063TIP3    H139680   0.562   1.087   0.684 -3.1037 -1.1328 -1.0053
 6063TIP3    H239681   0.581   1.096   0.534  1.2819  2.0770 -0.4513
 6064TIP3   OH239682   6.023   5.033   4.589 -0.7761 -0.0088 -0.1317
 6064TIP3    H139683   5.978   5.093   4.649 -1.4131 -1.9594  1.4164
 6064TIP3    H239684   5.966   5.028   4.513 -2.5371 -1.2857  1.1869
 6065TIP3   OH239685   5.691   5.578  15.525 -0.0198 -0.1377 -0.4457
 6065TIP3    H139686   5.783   5.559  15.542  0.4902 -1.4374 -3.9893
 6065TIP3    H239687   5.647   5.493  15.528 -0.8510  0.2795 -0.3183
 6066TIP3   OH239688   4.051   3.664   1.418  0.1167  0.2772 -0.4014
 6066TIP3    H139689   3.968   3.633   1.457  0.6052 -1.7310 -0.8307
 6066TIP3    H239690   4.041   3.759   1.414 -1.8694  0.1577  0.2365
 6067TIP3   OH239691   0.766   4.666  13.722  0.3171 -0.4468 -0.5846
 6067TIP3    H139692   0.685   4.693  13.765 -0.2090  2.0949 -2.9287
 6067TIP3    H239693   0.831   4.730  13.750  1.3134 -1.8399  0.4248
 6068TIP3   OH239694   3.003   0.458  13.061 -0.0555 -0.1474  0.1973
 6068TIP3    H139695   2.989   0.436  12.969  1.2162 -0.3735  0.0312
 6068TIP3    H239696   2.923   0.502  13.088 -0.2003  0.5000 -1.1971
 6069TIP3   OH239697   2.194   3.296   0.973  0.0974  0.0713  0.1812
 6069TIP3    H139698   2.166   3.331   1.057  0.6004  1.7581 -0.3164
 6069TIP3    H239699   2.183   3.369   0.912  0.8553 -0.7511 -0.9824
 6070TIP3   OH239700   0.261   0.605  16.700  0.2298  0.3301 -0.0809
 6070TIP3    H139701   0.225   0.652  16.776 -0.2037 -0.8569  0.4858
 6070TIP3    H239702   0.277   0.516  16.733 -0.5457 -0.3859 -1.5446
 6071TIP3   OH239703   0.345   3.871  14.432 -0.1522  0.4358  0.5912
 6071TIP3    H139704   0.340   3.781  14.462  0.1556 -0.4226 -1.7339
 6071TIP3    H239705   0.419   3.909  14.479  0.8049 -1.0602  0.3374
 6072TIP3   OH239706   2.099   5.432  14.670 -0.2342  0.9330  0.7624
 6072TIP3    H139707   2.155   5.503  14.637 -0.5954 -0.9360 -4.9779
 6072TIP3    H239708   2.146   5.352  14.646 -3.0285 -0.7230  0.4231
 6073TIP3   OH239709   4.930   3.496   3.658 -0.7646  0.0232 -0.1421
 6073TIP3    H139710   5.000   3.437   3.686 -0.8717  1.2191  3.0412
 6073TIP3    H239711   4.851   3.462   3.700 -1.3752  0.7726 -0.6536
 6074TIP3   OH239712   4.650   6.566   0.294 -0.0202  1.0428 -0.2652
 6074TIP3    H139713   4.653   6.507   0.219 -3.8001 -1.6516  1.4347
 6074TIP3    H239714   4.620   6.649   0.258 -0.6354  0.1450 -1.9131
 6075TIP3   OH239715   6.576   2.061  10.991  0.7865  0.5140  0.4769
 6075TIP3    H139716   6.648   2.061  10.928  0.1501  2.0735 -0.3029
 6075TIP3    H239717   6.578   1.974  11.030  1.5996 -0.2741 -1.2433
 6076TIP3   OH239718   3.192   1.513   1.286  0.3408  0.4996 -0.4312
 6076TIP3    H139719   3.133   1.493   1.360  1.3787  1.2178  0.6387
 6076TIP3    H239720   3.219   1.604   1.302  2.8658 -0.2488 -0.0717
 6077TIP3   OH239721   5.013   4.896   3.168  0.8592  0.3921 -0.5648
 6077TIP3    H139722   5.029   4.833   3.238  1.7767 -0.6218 -1.6397
 6077TIP3    H239723   5.084   4.881   3.105 -0.5348  0.4727 -2.2399
 6078TIP3   OH239724   5.110   6.465   2.267 -0.1523 -0.5121 -0.8252
 6078TIP3    H139725   5.119   6.530   2.337 -1.9581 -1.6156  0.4942
 6078TIP3    H239726   5.039   6.499   2.212 -1.7614 -1.7685  0.4052
 6079TIP3   OH239727   2.150   3.981  15.520 -0.1939 -0.5810  0.2723
 6079TIP3    H139728   2.138   3.891  15.549 -0.3234 -0.6594 -0.0222
 6079TIP3    H239729   2.131   4.034  15.597 -2.1606 -0.7105 -0.0677
 6080TIP3   OH239730   5.255   0.820  16.922  0.3673 -0.5328 -0.3518
 6080TIP3    H139731   5.195   0.747  16.907  0.6733 -0.8345 -0.1364
 6080TIP3    H239732   5.296   0.800  17.006 -0.7096  0.7115  0.5116
 6081TIP3   OH239733   4.733   0.632   4.242  0.1121 -0.1650 -0.6618
 6081TIP3    H139734   4.644   0.607   4.218 -0.8398  1.3761  0.9650
 6081TIP3    H239735   4.740   0.723   4.212  0.1994  0.5514  1.3866
 6082TIP3   OH239736   4.285   0.903   0.076  0.2972 -0.3893 -0.4345
 6082TIP3    H139737   4.270   0.910  -0.018 -0.5366 -0.4001 -0.3081
 6082TIP3    H239738   4.231   0.972   0.114 -1.7580 -2.2535  0.2334
 6083TIP3   OH239739   1.632   6.057   1.917  0.5845  0.1207 -0.2458
 6083TIP3    H139740   1.631   5.963   1.901 -0.2285 -0.0170  0.5345
 6083TIP3    H239741   1.660   6.095   1.834 -0.5330 -0.7229 -1.0361
 6084TIP3   OH239742   5.454   2.073  11.856 -0.7998  0.4508  0.0087
 6084TIP3    H139743   5.446   2.157  11.812 -1.0673 -0.9343 -2.8010
 6084TIP3    H239744   5.386   2.018  11.816 -0.4378 -1.2077  1.5227
 6085TIP3   OH239745   1.022   5.772  15.308 -0.7688  0.5126  0.0436
 6085TIP3    H139746   1.091   5.744  15.247  0.2360 -0.0541  1.3776
 6085TIP3    H239747   1.042   5.864  15.326 -0.3521  0.3560  0.4110
 6086TIP3   OH239748   4.740   3.294   3.320  0.1068  0.2215 -0.2750
 6086TIP3    H139749   4.689   3.326   3.394  2.4404  1.7513  0.7897
 6086TIP3    H239750   4.677   3.286   3.248 -1.7113  1.3174  1.1291
 6087TIP3   OH239751   5.041   2.737   5.948  0.1961  0.2538 -0.4994
 6087TIP3    H139752   4.991   2.707   6.024  0.1173  0.2846 -0.5396
 6087TIP3    H239753   5.083   2.818   5.978 -1.2444  1.2382 -1.0389
 6088TIP3   OH239754   4.312   0.803  16.232  0.4101 -0.6854 -0.1873
 6088TIP3    H139755   4.398   0.790  16.273  1.8945  3.2618 -1.5313
 6088TIP3    H239756   4.266   0.863  16.291  0.5002  0.8549 -1.5930
 6089TIP3   OH239757   5.907   5.876   3.845 -0.2078  0.3086  0.0545
 6089TIP3    H139758   5.816   5.849   3.845 -0.4412  0.9055 -2.2202
 6089TIP3    H239759   5.936   5.862   3.935 -2.6580  0.5587  0.9621
 6090TIP3   OH239760   5.222   4.645  12.053 -0.3637 -0.3021  0.2061
 6090TIP3    H139761   5.261   4.654  11.966  0.9843  1.0812  0.9090
 6090TIP3    H239762   5.157   4.575  12.043 -0.3883 -0.0333 -1.9474
 6091TIP3   OH239763   4.762   4.340   5.510 -0.4156 -0.0692  0.0811
 6091TIP3    H139764   4.818   4.390   5.451 -1.6341  0.5342 -0.6062
 6091TIP3    H239765   4.706   4.406   5.551  0.3313 -0.4790  1.8801
 6092TIP3   OH239766   5.580   4.403   6.520  0.1692 -0.1315  0.3792
 6092TIP3    H139767   5.525   4.331   6.488  1.7502 -0.2109 -2.4073
 6092TIP3    H239768   5.667   4.364   6.530  0.2524  0.4901  2.7746
 6093TIP3   OH239769   0.640   2.507  12.386 -0.2449  0.0883  0.3299
 6093TIP3    H139770   0.575   2.517  12.317  0.2945  1.6332  0.0084
 6093TIP3    H239771   0.662   2.596  12.411  1.0666 -0.4236  1.0802
 6094TIP3   OH239772   4.755   5.326   2.331  0.5178 -0.2797  0.0155
 6094TIP3    H139773   4.746   5.232   2.317 -0.5829 -0.0816 -0.7911
 6094TIP3    H239774   4.672   5.352   2.372  0.0653  0.5943 -1.3750
 6095TIP3   OH239775   3.104   1.680   2.991 -0.0458 -0.6757 -0.4380
 6095TIP3    H139776   3.126   1.747   2.927 -0.3815 -0.1566 -0.0218
 6095TIP3    H239777   3.010   1.667   2.981 -0.6692  1.3731  1.7280
 6096TIP3   OH239778   5.031   2.455  11.709 -0.3025  0.8035  0.5232
 6096TIP3    H139779   5.088   2.449  11.786  0.2113  1.5036  0.2013
 6096TIP3    H239780   5.072   2.398  11.644 -0.8587  0.0322  0.8220
 6097TIP3   OH239781   0.640   2.102  16.025 -0.0574  0.0400  0.4770
 6097TIP3    H139782   0.575   2.129  16.089 -0.4883 -0.1040  0.1020
 6097TIP3    H239783   0.621   2.156  15.948 -0.1441 -0.4609  0.1459
 6098TIP3   OH239784   4.296   3.637   5.411  0.2739 -0.2575 -0.1376
 6098TIP3    H139785   4.372   3.596   5.453  1.1766 -0.6818 -2.0775
 6098TIP3    H239786   4.322   3.728   5.398  0.3446 -0.3313 -0.5315
 6099TIP3   OH239787   4.987   4.911   0.379 -0.4982  0.3884  0.5877
 6099TIP3    H139788   5.014   4.831   0.334  2.8076  2.9592 -2.6545
 6099TIP3    H239789   5.040   4.913   0.458  0.7914  0.1967 -0.2451
 6100TIP3   OH239790   6.741   6.797   0.936 -0.3346  0.0417  0.2219
 6100TIP3    H139791   6.668   6.762   0.887  0.4761 -0.7380 -0.4637
 6100TIP3    H239792   6.809   6.729   0.930  0.7695  1.1225  0.0632
 6101TIP3   OH239793   3.431   2.315  16.727 -0.2983  0.1378 -0.8017
 6101TIP3    H139794   3.424   2.409  16.744 -0.9568  0.0107 -0.3141
 6101TIP3    H239795   3.343   2.281  16.744  0.1738 -0.7327  0.0507
 6102TIP3   OH239796   3.451   0.575   4.680 -0.0114  0.2196 -0.0557
 6102TIP3    H139797   3.479   0.512   4.747 -1.5717  1.1808  1.5709
 6102TIP3    H239798   3.497   0.546   4.600  1.2717 -1.4527  1.1999
 6103TIP3   OH239799   5.756   5.785   2.565 -0.2502  0.5255  0.0891
 6103TIP3    H139800   5.751   5.877   2.592  1.0308  0.9123 -0.9068
 6103TIP3    H239801   5.839   5.778   2.518 -1.9110 -0.2567 -3.0076
 6104TIP3   OH239802   3.169   0.417  10.495 -0.3812  0.2353 -0.3413
 6104TIP3    H139803   3.101   0.395  10.558  0.4712  0.3068  0.6422
 6104TIP3    H239804   3.225   0.339  10.491  0.0606  0.5446 -0.3370
 6105TIP3   OH239805   0.896   5.858   6.469 -0.3702 -0.0504 -0.6541
 6105TIP3    H139806   0.958   5.785   6.466  0.4987  0.6947 -1.8311
 6105TIP3    H239807   0.945   5.930   6.510 -1.9511 -0.7066  2.7858
 6106TIP3   OH239808   3.769   1.354  11.108 -0.1077  0.5890  0.3893
 6106TIP3    H139809   3.803   1.309  11.031  2.1070  0.9475  1.1035
 6106TIP3    H239810   3.743   1.440  11.075  0.4365  0.5933 -0.0459
 6107TIP3   OH239811   5.504   2.544  15.554  0.7549  0.3856  0.5686
 6107TIP3    H139812   5.513   2.590  15.637 -2.0568  3.8045 -0.7787
 6107TIP3    H239813   5.419   2.501  15.560  1.4475 -1.1082  0.1479
 6108TIP3   OH239814   0.716   2.570  10.822  0.1712 -0.0485  0.2979
 6108TIP3    H139815   0.719   2.558  10.727 -0.2240 -1.2859  0.4188
 6108TIP3    H239816   0.633   2.613  10.838  0.3449  0.3755  0.0626
 6109TIP3   OH239817   4.983   3.020   5.259  0.1044 -0.0629 -0.1297
 6109TIP3    H139818   4.973   3.098   5.205  0.8071 -0.7349 -1.2661
 6109TIP3    H239819   5.064   2.979   5.229 -0.6212 -1.6322 -0.0896
 6110TIP3   OH239820   1.647   5.016  13.432  0.3734  0.4779 -0.2684
 6110TIP3    H139821   1.603   4.932  13.441 -1.0742  1.2377  0.1299
 6110TIP3    H239822   1.703   5.007  13.354  0.1772 -0.8051 -0.2697
 6111TIP3   OH239823   2.189   3.666  16.416  0.2015  0.0921 -0.0945
 6111TIP3    H139824   2.235   3.746  16.390 -0.9308  0.9699  0.5243
 6111TIP3    H239825   2.258   3.607  16.446  1.2289  0.2029 -2.0718
 6112TIP3   OH239826   2.210   1.400   4.740  0.6361 -0.1728  0.8112
 6112TIP3    H139827   2.141   1.390   4.674  0.7609  1.1164  0.4576
 6112TIP3    H239828   2.169   1.449   4.811  0.8613 -0.4497  1.1363
 6113TIP3   OH239829   6.397   1.670   4.992  0.3270  0.4953  0.2501
 6113TIP3    H139830   6.442   1.739   5.042  2.0797 -0.5810  0.2394
 6113TIP3    H239831   6.401   1.593   5.048 -0.5238  0.0822 -0.2468
 6114TIP3   OH239832   2.303   1.719  16.012  0.2366 -0.0478 -0.4771
 6114TIP3    H139833   2.329   1.628  15.998 -1.2842 -0.7198  0.6970
 6114TIP3    H239834   2.349   1.745  16.092  1.2897  0.5041 -1.2445
 6115TIP3   OH239835   4.438   0.394   2.799 -0.3594 -0.0612 -0.3744
 6115TIP3    H139836   4.348   0.376   2.774 -0.5905 -0.9016  0.9663
 6115TIP3    H239837   4.468   0.458   2.734 -1.6502 -0.3489 -1.3089
 6116TIP3   OH239838   3.892   0.770  13.908  0.4360 -0.3328 -0.7053
 6116TIP3    H139839   3.833   0.756  13.834  0.0839  1.8138 -0.8948
 6116TIP3    H239840   3.860   0.712  13.977 -0.7063 -0.6052 -1.4479
 6117TIP3   OH239841   6.087   5.894   5.636  0.2561  0.4194 -0.3139
 6117TIP3    H139842   6.099   5.987   5.619 -0.6586  0.5627 -0.2333
 6117TIP3    H239843   6.172   5.854   5.617  1.5360  1.6544  2.3230
 6118TIP3   OH239844   1.362   6.644  12.224  0.1279 -0.7955  0.0874
 6118TIP3    H139845   1.325   6.697  12.153 -0.0304 -0.4913  0.3912
 6118TIP3    H239846   1.354   6.554  12.194 -1.3552 -0.7863  0.3591
 6119TIP3   OH239847   3.163   4.490  13.765 -0.0676  0.3632  0.2550
 6119TIP3    H139848   3.163   4.548  13.689  1.7761  0.0656 -0.0153
 6119TIP3    H239849   3.252   4.454  13.768 -1.3695 -3.3988 -0.3460
 6120TIP3   OH239850   3.153   2.139  11.888  0.2964 -0.4646  0.5161
 6120TIP3    H139851   3.199   2.094  11.817  1.1186  2.8476 -1.3096
 6120TIP3    H239852   3.064   2.152  11.856  0.3949  0.1749  0.4746
 6121TIP3   OH239853   2.290   2.946   3.153  0.4932  0.0251 -0.4857
 6121TIP3    H139854   2.281   3.018   3.216 -1.1055 -0.5288 -0.0517
 6121TIP3    H239855   2.320   2.872   3.205 -0.2495 -0.2753 -0.4818
 6122TIP3   OH239856   0.920   6.267  11.903 -0.2624  0.0122  0.2706
 6122TIP3    H139857   0.991   6.270  11.839 -0.6481 -0.7542 -0.2180
 6122TIP3    H239858   0.840   6.264  11.850 -0.5574 -1.4096  0.7499
 6123TIP3   OH239859   4.715   6.074  10.929  0.3357  0.0540  0.2806
 6123TIP3    H139860   4.777   6.146  10.943  0.1010  0.2895  0.1282
 6123TIP3    H239861   4.629   6.116  10.932  0.1609 -0.3487  0.9634
 6124TIP3   OH239862   1.748   3.725   4.590 -0.3847 -0.0948 -0.6043
 6124TIP3    H139863   1.732   3.652   4.651 -1.7114 -0.8086 -1.7446
 6124TIP3    H239864   1.843   3.740   4.595 -0.0252 -2.0821 -0.5177
 6125TIP3   OH239865   0.094   5.470  12.930  0.4456 -0.4929 -0.6056
 6125TIP3    H139866   0.122   5.399  12.872  1.0922 -0.4795 -0.3176
 6125TIP3    H239867   0.096   5.548  12.875  1.4216 -0.4166 -0.4911
 6126TIP3   OH239868   2.899   0.131  13.098 -0.3386 -0.2833  0.0586
 6126TIP3    H139869   2.889   0.186  13.020 -0.1704 -0.7047 -0.2667
 6126TIP3    H239870   2.992   0.135  13.118 -0.2636 -0.7481 -0.1904
 6127TIP3   OH239871   3.833   2.826   4.980  0.0970 -0.2956 -0.0140
 6127TIP3    H139872   3.743   2.850   4.956  0.3679 -1.2450 -2.1543
 6127TIP3    H239873   3.888   2.874   4.919  1.0135 -0.4620  0.6689
 6128TIP3   OH239874   1.387   5.052  10.800  0.2425 -0.2992  0.3574
 6128TIP3    H139875   1.362   5.142  10.824  0.0098  0.0609 -1.1143
 6128TIP3    H239876   1.304   5.009  10.779  0.5575  0.1685 -2.1558
 6129TIP3   OH239877   2.401   2.960  13.092  0.4678 -0.3855  0.3716
 6129TIP3    H139878   2.363   2.872  13.085 -2.7323  0.7614  1.6938
 6129TIP3    H239879   2.473   2.960  13.029  0.2300 -3.7372 -0.0813
 6130TIP3   OH239880   4.967   4.881   2.690  0.0793 -1.1375 -0.0574
 6130TIP3    H139881   4.948   4.845   2.777 -0.5672 -0.9692 -0.1240
 6130TIP3    H239882   4.954   4.975   2.699 -0.0302 -1.1228 -0.3412
 6131TIP3   OH239883   0.967   4.053  11.584 -0.4633 -0.4365 -0.5508
 6131TIP3    H139884   0.960   3.959  11.566 -0.0797 -0.7001  0.6056
 6131TIP3    H239885   1.053   4.077  11.550  0.2602 -0.9301  0.8867
 6132TIP3   OH239886   5.323   1.628  15.042 -0.1858 -0.4355 -0.0710
 6132TIP3    H139887   5.301   1.618  15.135  1.5422 -1.5338  0.2712
 6132TIP3    H239888   5.312   1.540  15.005  0.9738 -0.4492 -0.4388
 6133TIP3   OH239889   3.885   4.006   2.100 -0.4621 -0.4344  0.1552
 6133TIP3    H139890   3.814   3.956   2.140 -0.1667  0.0357  1.3226
 6133TIP3    H239891   3.848   4.041   2.019 -1.2890 -0.9056  0.3248
 6134TIP3   OH239892   2.274   0.951   6.078 -0.0682  0.0638 -1.1108
 6134TIP3    H139893   2.352   0.896   6.075  0.1788  0.4027 -0.9476
 6134TIP3    H239894   2.299   1.032   6.032  0.0174  0.5883 -0.1647
 6135TIP3   OH239895   3.485   1.993   3.109 -0.7754  0.1113  0.0762
 6135TIP3    H139896   3.482   1.915   3.164 -0.3354 -0.3423 -0.5455
 6135TIP3    H239897   3.545   1.972   3.039  0.7804  1.6307  0.8701
 6136TIP3   OH239898   0.013   0.954   1.133 -0.2568  0.4840  0.0383
 6136TIP3    H139899   0.094   1.005   1.143 -1.1521  2.0144 -0.1884
 6136TIP3    H239900  -0.055   1.011   1.169 -1.4134 -0.2441 -0.9477
 6137TIP3   OH239901   1.845   5.551   2.890  0.3357 -0.5137 -0.0070
 6137TIP3    H139902   1.920   5.592   2.846 -0.3328  0.1324 -0.5525
 6137TIP3    H239903   1.771   5.607   2.869 -0.4448 -1.5449 -0.0571
 6138TIP3   OH239904   2.443   1.553  15.176 -0.8300  0.1213 -0.1524
 6138TIP3    H139905   2.422   1.627  15.234  0.0171  1.8311 -1.8986
 6138TIP3    H239906   2.524   1.516  15.213 -0.0078  1.5152 -0.4607
 6139TIP3   OH239907   3.859   3.036  16.541 -0.5023  0.2894  0.5485
 6139TIP3    H139908   3.909   2.956  16.522 -0.9270  0.3494 -0.9302
 6139TIP3    H239909   3.781   3.029  16.485 -0.5734  1.7156  0.4478
 6140TIP3   OH239910   3.873   0.718   3.333  0.1150  0.1497  0.0368
 6140TIP3    H139911   3.912   0.697   3.418  1.6836 -0.6214 -0.8278
 6140TIP3    H239912   3.944   0.757   3.283 -0.9408  1.1301 -0.7562
 6141TIP3   OH239913   0.295   3.298   3.145  0.0354 -0.3745  0.4142
 6141TIP3    H139914   0.242   3.255   3.212 -1.5752 -0.5603 -0.9281
 6141TIP3    H239915   0.351   3.228   3.111  1.1284 -0.2005  1.7554
 6142TIP3   OH239916   6.665   3.400   2.484 -0.3797 -0.1677  0.8069
 6142TIP3    H139917   6.647   3.327   2.424  0.2605  0.5436 -0.2906
 6142TIP3    H239918   6.738   3.369   2.538  0.0708 -0.2470  0.1619
 6143TIP3   OH239919   6.733   5.686   4.550 -0.6445  0.2394  0.3963
 6143TIP3    H139920   6.694   5.647   4.472 -1.2208  1.2647  0.1681
 6143TIP3    H239921   6.820   5.715   4.521  0.1797 -1.6289  0.7933
 6144TIP3   OH239922   6.792   0.738  12.978 -0.0673 -0.1620 -0.2714
 6144TIP3    H139923   6.730   0.739  13.051  0.2683 -1.7192  0.0550
 6144TIP3    H239924   6.773   0.819  12.930 -1.1983  0.2211  0.7741
 6145TIP3   OH239925   6.818   2.115  10.837  0.1503  0.2958  0.1109
 6145TIP3    H139926   6.890   2.156  10.788 -0.7219  0.7772 -0.7964
 6145TIP3    H239927   6.855   2.033  10.869  0.9857  0.3358 -0.7018
 6146TIP3   OH239928   0.365   0.533  15.705  0.7284  0.1245 -0.4863
 6146TIP3    H139929   0.288   0.587  15.719  0.9860  0.2158  0.6821
 6146TIP3    H239930   0.331   0.446  15.687  0.3406  0.2227 -0.2368
 6147TIP3   OH239931   4.292   5.834   3.649 -1.0542 -0.1116 -0.4914
 6147TIP3    H139932   4.352   5.853   3.576  0.0238 -0.0923  0.3761
 6147TIP3    H239933   4.329   5.756   3.690 -0.5867  0.9429  1.1543
 6148TIP3   OH239934   3.699   5.642  11.352  0.1778 -0.7297 -0.5568
 6148TIP3    H139935   3.631   5.592  11.396  0.7382 -1.0381 -0.0366
 6148TIP3    H239936   3.760   5.667  11.421 -0.9170  2.1079 -0.4852
 6149TIP3   OH239937   1.384   2.727   0.152 -0.1996 -0.0107  0.1508
 6149TIP3    H139938   1.434   2.808   0.161 -0.0875  0.2628 -2.1894
 6149TIP3    H239939   1.449   2.658   0.143 -0.2688 -0.0542 -0.0273
 6150TIP3   OH239940   4.178   6.080  11.641  0.2086 -0.2037 -0.0043
 6150TIP3    H139941   4.228   6.104  11.719 -1.0715  0.5053  0.6188
 6150TIP3    H239942   4.207   6.141  11.574  0.1207  0.2667  0.3800
 6151TIP3   OH239943   1.208   1.509  14.811 -0.0978  0.5368 -0.2612
 6151TIP3    H139944   1.116   1.484  14.803  0.0538 -0.7529  1.4617
 6151TIP3    H239945   1.233   1.539  14.723 -1.3469 -1.9472 -1.5717
 6152TIP3   OH239946   5.824   3.729  14.458  0.0034  0.1545  0.3081
 6152TIP3    H139947   5.818   3.820  14.428  1.3650  0.0929 -0.2097
 6152TIP3    H239948   5.855   3.681  14.382  1.5624 -0.3505  1.2308
 6153TIP3   OH239949   5.532   1.609   3.048 -0.1883  0.3248  0.7134
 6153TIP3    H139950   5.572   1.606   2.961  2.3557 -0.7902  1.8055
 6153TIP3    H239951   5.456   1.551   3.042 -0.2264  0.4947 -0.8140
 6154TIP3   OH239952   6.846   6.834  15.249 -0.0216 -0.1132 -0.5979
 6154TIP3    H139953   6.808   6.840  15.161  0.6987  1.2145 -0.8470
 6154TIP3    H239954   6.860   6.740  15.263  0.1646 -0.3234 -2.0372
 6155TIP3   OH239955   5.498   5.755   2.204  0.3965 -0.2809 -0.2106
 6155TIP3    H139956   5.435   5.779   2.135  1.7335 -0.4807 -1.5697
 6155TIP3    H239957   5.497   5.660   2.206  0.7028 -0.2879 -0.2968
 6156TIP3   OH239958   2.310   0.038   3.810  0.0571  0.3686 -0.0984
 6156TIP3    H139959   2.340   0.079   3.892 -0.4645  0.2116  0.1788
 6156TIP3    H239960   2.236   0.092   3.783  0.5948  0.7707 -0.7921
 6157TIP3   OH239961   4.261   2.973  14.240 -0.4398  0.0301 -0.2893
 6157TIP3    H139962   4.323   2.971  14.167 -1.2140  0.4660 -0.9663
 6157TIP3    H239963   4.178   2.945  14.202 -1.5058  2.8751 -0.2500
 6158TIP3   OH239964   5.974   5.715  14.188 -0.2084 -0.0231 -0.1958
 6158TIP3    H139965   6.051   5.661  14.209 -0.8712 -1.0855 -0.4624
 6158TIP3    H239966   5.948   5.687  14.100 -0.5521  0.7573 -0.3500
 6159TIP3   OH239967   0.649   2.253  15.044 -0.1411 -0.4224 -0.6113
 6159TIP3    H139968   0.671   2.252  14.951  1.4905  2.0002 -0.3441
 6159TIP3    H239969   0.556   2.275  15.046 -0.1108 -0.1607 -1.6730
 6160TIP3   OH239970   6.607   6.089  16.553  0.2102  0.5137 -0.4456
 6160TIP3    H139971   6.652   6.174  16.557  1.0683  0.0548 -0.1021
 6160TIP3    H239972   6.676   6.026  16.538 -0.4867 -0.0915 -1.2219
 6161TIP3   OH239973   0.701   1.418  12.480 -0.5669  0.0082 -0.0245
 6161TIP3    H139974   0.772   1.355  12.467 -0.7991 -0.6038  1.4022
 6161TIP3    H239975   0.738   1.502  12.455  0.6999 -0.2915  0.7439
 6162TIP3   OH239976   4.039   1.849   0.589  0.2071 -0.2290  0.5401
 6162TIP3    H139977   4.122   1.844   0.542  0.7383  0.6059  1.3590
 6162TIP3    H239978   4.048   1.926   0.645 -1.7788  0.9324 -0.6307
 6163TIP3   OH239979   0.752   0.885   5.133  0.1793 -0.1623  0.3009
 6163TIP3    H139980   0.683   0.928   5.184  0.2302  0.1908  0.0721
 6163TIP3    H239981   0.706   0.836   5.066  0.1848  0.9281 -0.5197
 6164TIP3   OH239982   2.014   6.310  13.379  0.1404  0.5034  0.2302
 6164TIP3    H139983   2.098   6.341  13.346  0.5781 -0.4696  0.3978
 6164TIP3    H239984   1.986   6.244  13.316  0.1956 -0.1963  0.9283
 6165TIP3   OH239985   3.783   4.087   1.856 -0.2419  0.2588  0.1237
 6165TIP3    H139986   3.788   4.125   1.769  1.0516 -1.2400 -0.5101
 6165TIP3    H239987   3.700   4.039   1.856 -0.7231  1.0702  0.0905
 6166TIP3   OH239988   1.916   6.324  15.081  0.1588  0.1518  0.0854
 6166TIP3    H139989   1.931   6.417  15.066  1.4797  0.1275  1.0873
 6166TIP3    H239990   1.953   6.281  15.004 -0.2771  0.4335 -0.2856
 6167TIP3   OH239991   6.040   6.413  16.518 -0.1284  1.0545 -0.4251
 6167TIP3    H139992   6.041   6.343  16.453  0.5833  1.0192 -0.3851
 6167TIP3    H239993   6.131   6.420  16.548 -0.5636  0.5729  1.1018
 6168TIP3   OH239994   5.949   5.749   3.348  0.0672 -0.0311  0.1167
 6168TIP3    H139995   5.969   5.794   3.430  1.3829 -0.5697  0.1141
 6168TIP3    H239996   5.920   5.662   3.376  2.2542 -0.8562  0.0077
 6169TIP3   OH239997   3.447   3.212   4.164 -0.2152 -0.3104  0.3530
 6169TIP3    H139998   3.436   3.181   4.254 -1.1353  1.3125  0.8330
 6169TIP3    H239999   3.497   3.293   4.172 -1.4705  0.5771 -0.4377
 6170TIP3   OH240000   0.462   0.007   2.706 -0.2223 -0.1360 -0.2417
 6170TIP3    H140001   0.397  -0.052   2.746  0.6505 -1.6124 -0.8957
 6170TIP3    H240002   0.524  -0.052   2.665  1.3863  1.2539  0.1118
 6171TIP3   OH240003   4.490   6.335  12.841  0.4318  0.4002  0.1336
 6171TIP3    H140004   4.513   6.417  12.884  0.0479 -1.0571  3.4168
 6171TIP3    H240005   4.397   6.344  12.821  0.4348  0.8435  0.3165
 6172TIP3   OH240006   2.999   6.655   3.502  0.0392  0.1717 -0.2999
 6172TIP3    H140007   2.923   6.638   3.446 -0.1517  3.5557 -1.3332
 6172TIP3    H240008   2.970   6.726   3.560  2.4060  1.7442 -0.9039
 6173TIP3   OH240009   2.773   4.963   2.676 -0.2020  0.1580 -0.1585
 6173TIP3    H140010   2.809   5.008   2.600  0.7188  0.2313  0.3036
 6173TIP3    H240011   2.753   4.875   2.646 -0.4001  0.3634 -0.6320
 6174TIP3   OH240012   1.426   6.323   0.373  0.2829  0.3394  0.0976
 6174TIP3    H140013   1.482   6.341   0.297  2.6845 -0.9279  1.4449
 6174TIP3    H240014   1.387   6.238   0.355  0.3731  0.3155  0.0146
 6175TIP3   OH240015   5.102   4.439   5.404 -0.3755 -0.2202 -0.4218
 6175TIP3    H140016   5.171   4.475   5.348  0.1314 -0.6194 -0.0511
 6175TIP3    H240017   5.021   4.465   5.360 -0.0433  1.6473 -0.0227
 6176TIP3   OH240018   2.179   1.629  11.146  0.3217 -0.4875  0.5950
 6176TIP3    H140019   2.131   1.594  11.071  1.0494 -0.9115  0.3245
 6176TIP3    H240020   2.141   1.717  11.159  0.3284 -0.3261 -0.3906
 6177TIP3   OH240021   1.343   5.842   0.715  0.0812  0.2423  0.0672
 6177TIP3    H140022   1.274   5.776   0.723  1.1088 -0.7636  1.2016
 6177TIP3    H240023   1.325   5.904   0.785  0.6846 -0.3902  0.7975
 6178TIP3   OH240024   1.743   3.599  14.959  0.1160  0.4603  0.0560
 6178TIP3    H140025   1.771   3.587  15.050 -0.5231 -1.1021  0.0781
 6178TIP3    H240026   1.778   3.685  14.934 -0.7156  1.4653  2.1425
 6179TIP3   OH240027   0.352   1.274  13.351 -0.0664  0.2891 -0.0104
 6179TIP3    H140028   0.359   1.342  13.418  1.2585  0.9641 -0.7922
 6179TIP3    H240029   0.440   1.269  13.313 -0.4574 -1.0135 -0.7990
 6180TIP3   OH240030   4.479   2.094  10.793  0.2307  0.7229  1.2433
 6180TIP3    H140031   4.399   2.052  10.761  0.5194  0.9306  0.2091
 6180TIP3    H240032   4.449   2.163  10.851 -0.4173  1.7165 -0.2274
 6181TIP3   OH240033   3.036   3.668  14.599  0.5667 -0.5967 -0.5367
 6181TIP3    H140034   3.012   3.754  14.633  0.0100 -1.0024  0.1506
 6181TIP3    H240035   3.115   3.683  14.547  0.8544  0.2205  0.1130
 6182TIP3   OH240036   2.283   0.747  13.612 -0.3700  0.2709  0.1863
 6182TIP3    H140037   2.253   0.778  13.698  0.1433  1.1341  0.0678
 6182TIP3    H240038   2.204   0.718  13.567 -0.9057  1.6281  0.2296
 6183TIP3   OH240039   6.203   5.807  15.434 -1.0043 -0.1855 -0.5109
 6183TIP3    H140040   6.289   5.801  15.393 -1.6784 -2.1427 -1.7796
 6183TIP3    H240041   6.209   5.751  15.511 -0.6624  1.0650  0.4061
 6184TIP3   OH240042   5.762   2.418   5.383  0.2482 -0.5523 -0.4109
 6184TIP3    H140043   5.680   2.432   5.337  0.0624 -0.7025 -0.1241
 6184TIP3    H240044   5.760   2.326   5.411 -1.6673  0.4953  3.7575
 6185TIP3   OH240045   6.565   0.770   0.868  0.5694 -0.1111  0.0994
 6185TIP3    H140046   6.546   0.776   0.775 -1.0108 -0.5495  0.3709
 6185TIP3    H240047   6.557   0.860   0.900  1.4119  0.0873 -0.2299
 6186TIP3   OH240048   0.192   3.378   6.208 -0.4754  0.5859  0.1303
 6186TIP3    H140049   0.100   3.370   6.183 -0.6125  1.6672  0.2281
 6186TIP3    H240050   0.233   3.299   6.174 -1.7642 -0.8093  1.6293
 6187TIP3   OH240051   0.424   3.894   1.904  0.0523 -0.0904  0.2551
 6187TIP3    H140052   0.371   3.832   1.854  0.0316 -0.4647  0.7336
 6187TIP3    H240053   0.416   3.976   1.857  0.3852 -0.5371 -0.6103
 6188TIP3   OH240054   0.153   5.176   1.616 -0.8681  0.5098 -0.9731
 6188TIP3    H140055   0.086   5.221   1.668 -0.0847  0.9209 -0.3076
 6188TIP3    H240056   0.215   5.245   1.592  1.1452 -0.3550  1.2852
 6189TIP3   OH240057   6.593   4.610   4.454  0.3041  0.1134 -0.3170
 6189TIP3    H140058   6.596   4.706   4.456  0.1631  0.1081  1.0666
 6189TIP3    H240059   6.568   4.589   4.364 -0.3123  1.4013 -0.4744
 6190TIP3   OH240060   6.212   3.192   6.130 -0.5797  0.2056  0.3395
 6190TIP3    H140061   6.227   3.233   6.215  1.1678  0.7490 -0.1969
 6190TIP3    H240062   6.288   3.137   6.116 -3.1532 -4.1207  1.3947
 6191TIP3   OH240063   6.423   1.704  15.896  0.1797 -0.4947  0.2428
 6191TIP3    H140064   6.393   1.721  15.985  0.2341  1.0255 -0.0034
 6191TIP3    H240065   6.513   1.673  15.907  0.2234 -0.2120  0.7108
 6192TIP3   OH240066   1.593   5.130   2.135  0.8788 -0.2222  0.1742
 6192TIP3    H140067   1.585   5.057   2.197  0.8860 -0.0900  0.3314
 6192TIP3    H240068   1.637   5.199   2.185 -1.4248  0.8491  0.8580
 6193TIP3   OH240069   2.063   6.652   5.633 -0.5094  0.1653  0.5862
 6193TIP3    H140070   2.131   6.692   5.687 -0.1910 -0.3742  0.5944
 6193TIP3    H240071   2.080   6.558   5.639 -1.5851 -0.0137  1.0153
 6194TIP3   OH240072   5.412   0.706   4.680  0.6258 -0.0559  0.1868
 6194TIP3    H140073   5.441   0.658   4.758  0.6926 -1.4157 -0.6417
 6194TIP3    H240074   5.393   0.638   4.616 -3.5201  0.7231  0.3056
 6195TIP3   OH240075   1.780   4.764   1.101 -0.6214  0.7492  0.1664
 6195TIP3    H140076   1.794   4.703   1.174  1.3973  1.7644  0.7009
 6195TIP3    H240077   1.843   4.736   1.034 -1.4361  0.7326 -0.6160
 6196TIP3   OH240078   3.723   5.161  12.323  0.4903  0.3761  0.2976
 6196TIP3    H140079   3.668   5.190  12.395 -1.3875 -2.6521  0.2728
 6196TIP3    H240080   3.760   5.077  12.354  2.1433  0.5278 -1.1174
 6197TIP3   OH240081   1.644   3.287  10.961 -0.3523 -0.1178  0.3676
 6197TIP3    H140082   1.659   3.358  11.022  0.8938  0.6554 -0.7801
 6197TIP3    H240083   1.715   3.294  10.897 -0.2693 -2.3024  0.1224
 6198TIP3   OH240084   5.467   4.895  14.430  0.7389  0.0630 -0.0622
 6198TIP3    H140085   5.380   4.857  14.434  1.3679 -1.3390  0.8897
 6198TIP3    H240086   5.510   4.848  14.358  1.2007 -0.3314  0.4688
 6199TIP3   OH240087   4.999   6.276   2.419  0.3513  0.3292  0.5545
 6199TIP3    H140088   5.040   6.345   2.367  0.4844 -0.0567  0.1497
 6199TIP3    H240089   5.056   6.266   2.495  1.1201 -0.3340 -0.0939
 6200TIP3   OH240090   6.692   2.143  12.576  0.4326  0.5573  0.1024
 6200TIP3    H140091   6.652   2.230  12.573 -0.0110  0.3697  0.5288
 6200TIP3    H240092   6.619   2.082  12.567  0.9275  0.2074 -2.4218
 6201TIP3   OH240093   0.846   0.717  12.944  0.0149 -0.5326 -0.4225
 6201TIP3    H140094   0.934   0.735  12.911 -0.1799  2.7452  0.4655
 6201TIP3    H240095   0.859   0.695  13.037  0.0218 -2.6390 -0.8770
 6202TIP3   OH240096   6.557   6.575   1.338  0.3287  0.3634 -0.1180
 6202TIP3    H140097   6.619   6.631   1.385  0.3152  0.1234  0.1937
 6202TIP3    H240098   6.472   6.615   1.353  0.5159  1.3744 -1.5390
 6203TIP3   OH240099   5.156   5.071  14.603 -0.0709 -0.0484 -0.0563
 6203TIP3    H140100   5.068   5.036  14.619  0.0021 -0.2131 -0.0075
 6203TIP3    H240101   5.196   5.075  14.690 -0.3550  0.9234  0.0425
 6204TIP3   OH240102   3.092   0.009  16.618 -0.1745 -1.0799  0.5575
 6204TIP3    H140103   3.007  -0.034  16.618 -0.6438 -0.1719  0.1365
 6204TIP3    H240104   3.092   0.064  16.696  0.0405 -1.0961  0.5695
 6205TIP3   OH240105   5.116   6.337   5.503  0.2808  0.4885  0.8420
 6205TIP3    H140106   5.075   6.312   5.420 -0.6406  1.3654  1.0164
 6205TIP3    H240107   5.200   6.374   5.477  0.0130  0.7282  0.2885
 6206TIP3   OH240108   0.885   6.650   5.392  0.7783 -0.0575  0.2320
 6206TIP3    H140109   0.877   6.745   5.392 -1.0881 -0.1738  1.3761
 6206TIP3    H240110   0.797   6.618   5.373  0.9336 -1.5594  1.8506
 6207TIP3   OH240111   3.906   5.972   5.340 -0.6243  0.4462  0.0607
 6207TIP3    H140112   3.950   5.995   5.422 -1.3555  1.0278  0.2992
 6207TIP3    H240113   3.819   5.941   5.367 -0.8147  0.4896 -0.4867
 6208TIP3   OH240114   6.065   5.636  16.642  0.4632 -0.1081  0.6046
 6208TIP3    H140115   6.121   5.561  16.663  0.4324 -0.0765  0.8001
 6208TIP3    H240116   6.106   5.674  16.564 -0.8065 -1.6783 -0.9134
 6209TIP3   OH240117   3.393   6.161  13.283 -0.7004 -0.4428  0.6606
 6209TIP3    H140118   3.313   6.108  13.287 -1.3514  0.5693  1.4800
 6209TIP3    H240119   3.431   6.141  13.198 -2.0495 -0.6185  0.0801
 6210TIP3   OH240120   1.893   0.811  17.052  0.2578  0.1675  0.1334
 6210TIP3    H140121   1.877   0.882  16.989  0.0823 -0.9131 -1.0721
 6210TIP3    H240122   1.926   0.856  17.130 -2.0954  1.8342  0.2810
 6211TIP3   OH240123   0.629   4.139  15.649 -0.0514  0.0980  0.0714
 6211TIP3    H140124   0.672   4.165  15.567  1.8955  0.8354  1.2589
 6211TIP3    H240125   0.585   4.219  15.679 -1.6741 -0.4404 -0.7124
 6212TIP3   OH240126   4.291   1.373  13.883  0.1638  0.1556  0.3154
 6212TIP3    H140127   4.272   1.397  13.974  2.4425  0.0309  0.8967
 6212TIP3    H240128   4.331   1.286  13.889  1.2872  0.5702 -0.6577
 6213TIP3   OH240129   6.109   6.067  12.151 -0.1343 -0.1950  0.1050
 6213TIP3    H140130   6.092   6.076  12.245  2.5337  0.1587  0.6143
 6213TIP3    H240131   6.148   5.980  12.142 -0.4461 -0.2573 -0.6917
 6214TIP3   OH240132   4.697   3.265   4.157  0.2894  0.0047  0.4416
 6214TIP3    H140133   4.694   3.356   4.127  0.1783 -0.3320 -0.6080
 6214TIP3    H240134   4.739   3.218   4.086 -0.8455 -0.9888  0.3958
 6215TIP3   OH240135   2.028   5.311  14.918  0.3937  0.0515  0.4338
 6215TIP3    H140136   2.085   5.235  14.920  0.4385  0.0991  2.2109
 6215TIP3    H240137   2.055   5.360  14.841  0.7373 -1.4324 -0.4184
 6216TIP3   OH240138   4.393   0.686  13.273 -0.1473  0.1929 -0.5206
 6216TIP3    H140139   4.468   0.673  13.214 -1.0075 -0.7977 -1.4366
 6216TIP3    H240140   4.347   0.602  13.273 -0.1337  0.1323  1.6760
 6217TIP3   OH240141   3.292   4.093   5.656  0.0176 -0.7074  0.4518
 6217TIP3    H140142   3.228   4.145   5.608 -0.2736 -2.5496 -1.3131
 6217TIP3    H240143   3.309   4.143   5.736 -2.1788  0.7601  0.0979
 6218TIP3   OH240144   6.837   3.741   5.232 -0.0880 -0.2101 -0.2680
 6218TIP3    H140145   6.892   3.664   5.219  2.5380  1.3935  0.5315
 6218TIP3    H240146   6.799   3.729   5.319  1.6121  0.0850  0.5491
 6219TIP3   OH240147   1.489   5.931  16.280  0.3416 -0.4954 -0.6287
 6219TIP3    H140148   1.491   5.839  16.256 -0.6644 -1.1801  1.6566
 6219TIP3    H240149   1.551   5.938  16.353 -2.5454 -0.3690  2.0476
 6220TIP3   OH240150   1.256   6.228  17.109  0.6466  0.2109 -0.2716
 6220TIP3    H140151   1.195   6.282  17.159  0.5955 -0.9510  0.9993
 6220TIP3    H240152   1.216   6.218  17.023 -0.8156 -0.2366  0.4213
 6221TIP3   OH240153   1.546   4.214   3.789 -0.5449  0.0694  0.1217
 6221TIP3    H140154   1.627   4.255   3.821 -0.6431  1.3561 -1.1793
 6221TIP3    H240155   1.527   4.146   3.853  1.2774  0.0909  0.7418
 6222TIP3   OH240156   3.461   4.303   0.087  0.4117  0.1637  0.5402
 6222TIP3    H140157   3.405   4.227   0.103  0.3375  0.2004  0.4554
 6222TIP3    H240158   3.506   4.282   0.005  0.3061  0.2614  0.4577
 6223TIP3   OH240159   6.091   5.272   3.702  0.7277 -0.4593  0.1086
 6223TIP3    H140160   6.047   5.302   3.623  0.2177 -1.5360 -0.0313
 6223TIP3    H240161   6.071   5.340   3.767  0.6432  0.1251 -0.5132
 6224TIP3   OH240162   0.316   1.338   0.705 -0.1707  0.2402  0.0478
 6224TIP3    H140163   0.273   1.257   0.679 -1.2646  0.3189  1.4617
 6224TIP3    H240164   0.406   1.328   0.675 -0.2195 -1.5939  0.3923
 6225TIP3   OH240165   3.254   3.726  14.424 -0.0829  0.3888  0.2339
 6225TIP3    H140166   3.315   3.706  14.495 -0.3621  0.3489  0.4654
 6225TIP3    H240167   3.299   3.696  14.344  0.7545  1.5342  0.2491
 6226TIP3   OH240168   2.918   6.060   3.435 -0.0946 -0.4751 -0.2537
 6226TIP3    H140169   2.929   6.023   3.522  0.2303  0.9621  0.3330
 6226TIP3    H240170   2.824   6.054   3.418 -0.1965 -0.4804  0.3180
 6227TIP3   OH240171   6.673   2.547  11.496 -0.6433 -0.0070 -0.5624
 6227TIP3    H140172   6.635   2.520  11.413 -0.6218 -0.5470 -0.4028
 6227TIP3    H240173   6.671   2.468  11.550 -2.0721  0.6899  0.4900
 6228TIP3   OH240174   5.825   6.057  17.005 -0.4950 -0.0320  0.1279
 6228TIP3    H140175   5.875   6.042  16.925 -1.8831  1.9963 -1.2308
 6228TIP3    H240176   5.829   5.974  17.052  1.3866 -0.9156 -1.4452
 6229TIP3   OH240177   1.595   2.910  12.904  0.0210 -0.1610  0.1400
 6229TIP3    H140178   1.596   2.935  12.996 -1.0534  0.1418  0.0884
 6229TIP3    H240179   1.659   2.968  12.862  1.7999 -1.4415  0.9345
 6230TIP3   OH240180   3.303   5.902  13.907 -0.1800  0.0677 -0.0726
 6230TIP3    H140181   3.286   5.836  13.840  0.7061 -0.1417 -0.1011
 6230TIP3    H240182   3.388   5.878  13.944 -0.1339  0.8291  0.3498
 6231TIP3   OH240183   0.503   4.743   4.707 -0.1417 -0.3525 -0.5059
 6231TIP3    H140184   0.530   4.716   4.795 -0.9905  0.9315  0.1677
 6231TIP3    H240185   0.471   4.662   4.666 -0.2518 -0.8547  0.5485
 6232TIP3   OH240186   1.346   2.320  10.197 -0.3664  0.2364 -0.2887
 6232TIP3    H140187   1.294   2.291  10.272  0.1262 -1.5176 -0.5901
 6232TIP3    H240188   1.283   2.367  10.142 -1.6303 -1.7166 -0.5791
 6233TIP3   OH240189   4.635   2.060  17.096 -0.0215  0.0126 -0.4218
 6233TIP3    H140190   4.617   1.982  17.045 -1.1409 -0.8421  1.1817
 6233TIP3    H240191   4.727   2.080  17.079  0.3023 -1.6995 -0.8163
 6234TIP3   OH240192   1.051   2.157  14.986 -0.0639  0.4852 -0.0158
 6234TIP3    H140193   1.109   2.226  15.017  1.0753 -0.3345 -0.2342
 6234TIP3    H240194   1.020   2.113  15.065  1.0241 -0.1663  0.0697
 6235TIP3   OH240195   6.339   1.752   3.040  0.1867  0.9072  0.1039
 6235TIP3    H140196   6.345   1.657   3.049  1.2379  0.7848 -1.5033
 6235TIP3    H240197   6.275   1.778   3.106 -0.2859 -0.9369  0.4341
 6236TIP3   OH240198   0.271   0.957   4.523  0.0520  0.3816 -0.3626
 6236TIP3    H140199   0.197   0.990   4.473  0.3717  0.4781 -0.7757
 6236TIP3    H240200   0.234   0.935   4.609 -0.1197  2.1412  0.0610
 6237TIP3   OH240201   5.096   3.982   6.166 -0.0217 -0.4661 -0.4746
 6237TIP3    H140202   5.040   4.013   6.095 -1.7340 -0.4003  0.8338
 6237TIP3    H240203   5.100   4.056   6.227  1.5624 -0.4580 -0.5477
 6238TIP3   OH240204   6.499   1.240   2.501  0.3414  0.7853  0.5578
 6238TIP3    H140205   6.444   1.215   2.427 -0.2793 -0.2377  1.3340
 6238TIP3    H240206   6.586   1.208   2.479  0.1622  0.4983  0.2606
 6239TIP3   OH240207   0.482   4.056  13.830  0.0708  0.5668 -0.1888
 6239TIP3    H140208   0.479   4.050  13.735 -2.3204 -2.0289 -0.0877
 6239TIP3    H240209   0.453   4.145  13.850 -0.5708  0.7622 -1.8782
 6240TIP3   OH240210   5.055   0.251   3.059  0.1566  0.4354  0.3876
 6240TIP3    H140211   5.058   0.289   3.146  0.9706  1.0961  0.0860
 6240TIP3    H240212   4.986   0.300   3.014 -1.2501 -0.8496  1.0618
 6241TIP3   OH240213   1.111   4.586   3.339  0.5476 -0.2410  0.1988
 6241TIP3    H140214   1.127   4.500   3.378  0.6298 -0.9170 -1.2613
 6241TIP3    H240215   1.108   4.569   3.245 -1.4647  1.0247 -0.0233
 6242TIP3   OH240216   3.745   1.146  11.300  0.1265  0.4883 -0.5206
 6242TIP3    H140217   3.776   1.231  11.269 -1.4948  2.4581  2.7514
 6242TIP3    H240218   3.651   1.157  11.311 -0.0029 -1.4620  0.7633
 6243TIP3   OH240219   0.705   5.817   0.364  0.1816 -0.0094  0.6196
 6243TIP3    H140220   0.788   5.836   0.407  0.5044  0.0087 -0.0056
 6243TIP3    H240221   0.710   5.724   0.343  0.0212 -0.0212  0.6330
 6244TIP3   OH240222   5.075   0.242   2.428 -0.2482  0.3536 -0.1861
 6244TIP3    H140223   5.081   0.246   2.523 -0.2578 -1.4719 -0.0799
 6244TIP3    H240224   5.153   0.288   2.397 -0.3469  1.1344  0.6866
 6245TIP3   OH240225   6.052   0.072   5.456  0.1329 -0.0731  0.5204
 6245TIP3    H140226   6.041   0.145   5.517 -1.6373 -0.8878  1.2241
 6245TIP3    H240227   6.096   0.004   5.506  1.8961  0.5052 -0.1708
 6246TIP3   OH240228   6.825   6.026  12.746  0.6233  0.0960  0.4776
 6246TIP3    H140229   6.865   5.946  12.711 -1.3162 -0.4337 -0.7054
 6246TIP3    H240230   6.757   5.994  12.805 -1.5126  0.7038 -1.4898
 6247TIP3   OH240231   3.993   1.591  14.776 -0.1714  0.3633  0.6465
 6247TIP3    H140232   3.924   1.526  14.781 -1.4426  1.7123  1.4418
 6247TIP3    H240233   3.979   1.647  14.852  2.7063 -0.1450  1.6824
 6248TIP3   OH240234   5.025   6.061   3.881 -0.0603 -0.6082 -0.0630
 6248TIP3    H140235   5.083   6.131   3.853  0.3292 -1.6123 -1.9078
 6248TIP3    H240236   5.038   5.991   3.817 -0.5768 -2.3070  1.6014
 6249TIP3   OH240237   4.415   0.890  14.411 -0.7188 -0.4151  0.0531
 6249TIP3    H140238   4.348   0.938  14.361  0.2482  0.8872 -0.0544
 6249TIP3    H240239   4.377   0.880  14.498 -2.6206 -3.1075 -0.9389
 6250TIP3   OH240240   6.511   2.279   4.603 -0.5723 -0.3122 -0.3696
 6250TIP3    H140241   6.429   2.254   4.647 -0.6817 -1.1198 -0.9980
 6250TIP3    H240242   6.520   2.372   4.620 -1.8821 -0.1054 -0.6763
 6251TIP3   OH240243   0.275   3.520  16.654 -0.5504  0.1215  0.1908
 6251TIP3    H140244   0.258   3.426  16.660  1.5689 -0.3535 -0.6039
 6251TIP3    H240245   0.193   3.561  16.683 -1.4397 -1.9494  0.7583
 6252TIP3   OH240246   5.589   3.708   4.095  0.2169 -0.1020  0.3240
 6252TIP3    H140247   5.606   3.714   4.188  0.3938 -1.7835  0.4299
 6252TIP3    H240248   5.667   3.746   4.053  0.0083  0.9228  0.8355
 6253TIP3   OH240249   3.433   2.988  11.843  0.2950  0.5093 -0.3134
 6253TIP3    H140250   3.486   2.989  11.763  0.0393 -0.2911 -0.4936
 6253TIP3    H240251   3.356   3.041  11.821 -0.7011 -1.2285 -1.2557
 6254TIP3   OH240252   4.002   5.869   3.545 -0.3190  0.5123 -0.3421
 6254TIP3    H140253   4.012   5.803   3.613 -1.0911  0.1647 -0.5474
 6254TIP3    H240254   4.090   5.881   3.509 -0.0747  0.0071  0.0758
 6255TIP3   OH240255   3.870   2.963   1.545  0.0504  0.1367  0.2275
 6255TIP3    H140256   3.893   2.909   1.620  0.3297 -0.0248  0.0286
 6255TIP3    H240257   3.939   2.946   1.481 -1.6160 -1.9536 -1.1899
 6256TIP3   OH240258   5.898   1.300   5.144 -0.4269  0.2727  0.4803
 6256TIP3    H140259   5.825   1.302   5.083 -0.2201  1.0459  0.2409
 6256TIP3    H240260   5.957   1.233   5.110 -1.5625 -1.2062  1.3283
 6257TIP3   OH240261   4.399   2.981   0.142  0.4566  0.8904  0.6705
 6257TIP3    H140262   4.388   2.896   0.098  3.5919 -0.3506  1.9950
 6257TIP3    H240263   4.340   2.977   0.217  1.3280 -0.6787  1.3339
 6258TIP3   OH240264   1.272   3.394  11.002  0.2544 -0.3667  0.3883
 6258TIP3    H140265   1.300   3.312  10.960 -1.2330 -0.3115 -0.7963
 6258TIP3    H240266   1.178   3.382  11.017 -0.7772  2.2384 -2.7405
 6259TIP3   OH240267   4.211   5.633  10.991 -0.3222 -0.2782 -0.2087
 6259TIP3    H140268   4.137   5.694  10.989 -0.8457 -0.9103 -0.4995
 6259TIP3    H240269   4.278   5.678  11.043 -0.6200  0.6276 -0.5873
 6260TIP3   OH240270   3.597   3.528  11.095  0.2205  0.1942  0.6005
 6260TIP3    H140271   3.623   3.550  11.184 -0.5694  4.3859 -0.0204
 6260TIP3    H240272   3.671   3.555  11.041  0.2024 -1.1818 -0.1514
 6261TIP3   OH240273   1.658   0.379   0.373  0.6852  0.0046  0.6584
 6261TIP3    H140274   1.659   0.288   0.344 -0.0725 -0.0366  0.7225
 6261TIP3    H240275   1.606   0.424   0.307  1.4559  0.4893  0.3708
 6262TIP3   OH240276   5.498   2.300   0.824 -0.0586 -0.6116 -0.3496
 6262TIP3    H140277   5.421   2.291   0.768  0.8117  0.2026 -1.7298
 6262TIP3    H240278   5.531   2.210   0.832 -1.3612 -1.0435  0.6374
 6263TIP3   OH240279   6.312   2.932   2.037  0.6134  0.2218  0.4267
 6263TIP3    H140280   6.217   2.940   2.051  0.1701 -0.0136 -1.9786
 6263TIP3    H240281   6.334   3.009   1.985  1.5720 -0.1707  0.2430
 6264TIP3   OH240282   5.947   4.533  12.954 -0.1567 -0.0183  0.4900
 6264TIP3    H140283   5.982   4.620  12.936 -0.2163 -0.4240 -1.7910
 6264TIP3    H240284   6.001   4.501  13.027  1.8242  0.7887 -0.5348
 6265TIP3   OH240285   3.642   1.317   2.848  0.5918 -0.1043  0.0106
 6265TIP3    H140286   3.644   1.310   2.943  0.8420 -0.5592 -0.0263
 6265TIP3    H240287   3.615   1.230   2.818 -0.3652  0.2891 -0.2986
 6266TIP3   OH240288   6.512   2.746  11.901  0.1478  0.7321  0.3487
 6266TIP3    H140289   6.513   2.739  11.806  0.8091  0.5826  0.3606
 6266TIP3    H240290   6.528   2.657  11.933  2.4954  1.1684  0.5543
 6267TIP3   OH240291   1.548   3.092   1.822 -0.2610  0.1241 -0.3085
 6267TIP3    H140292   1.468   3.045   1.842 -0.2800  0.7636  1.3593
 6267TIP3    H240293   1.609   3.066   1.891  0.7092  0.2529 -1.0898
 6268TIP3   OH240294   3.343   1.764  13.750 -0.5784  0.3513 -0.5389
 6268TIP3    H140295   3.290   1.712  13.811  1.0547 -0.7871 -0.0408
 6268TIP3    H240296   3.390   1.700  13.698  2.0232  1.2373  0.5513
 6269TIP3   OH240297   0.843   1.307   1.463 -0.8500 -0.3625  0.0225
 6269TIP3    H140298   0.784   1.371   1.424 -2.5831 -2.2029 -0.5779
 6269TIP3    H240299   0.869   1.251   1.390  0.6148 -0.3865  0.5255
 6270TIP3   OH240300   4.795   6.776   6.289  0.7811  0.4079  0.0558
 6270TIP3    H140301   4.720   6.832   6.308  0.6456  0.1622  0.2458
 6270TIP3    H240302   4.867   6.837   6.272  0.9386  0.6426  1.4452
 6271TIP3   OH240303   1.156   6.802  11.647 -0.5285 -0.3537  0.3687
 6271TIP3    H140304   1.220   6.859  11.604 -1.0138  0.6188  0.9010
 6271TIP3    H240305   1.190   6.714  11.634  0.8328  0.1291  0.4884
 6272TIP3   OH240306   3.402   2.961   0.444 -0.8921 -0.3152 -0.4709
 6272TIP3    H140307   3.356   2.910   0.378 -1.6628  2.0141 -1.8648
 6272TIP3    H240308   3.412   3.048   0.405 -1.3785  1.1941  2.4476
 6273TIP3   OH240309   1.421   3.729   4.652  0.3749  0.1783  0.9808
 6273TIP3    H140310   1.403   3.726   4.746  1.8791 -0.7838  1.2744
 6273TIP3    H240311   1.503   3.778   4.645  0.6653 -0.3994  0.2364
 6274TIP3   OH240312   1.581   4.122   1.544 -0.3724 -0.8207  0.3359
 6274TIP3    H140313   1.516   4.077   1.489 -0.1265  0.0695 -0.7269
 6274TIP3    H240314   1.553   4.103   1.634 -1.2134 -1.7178 -0.0866
 6275TIP3   OH240315   3.530   6.587  15.184 -0.4780 -0.8668 -0.3408
 6275TIP3    H140316   3.557   6.497  15.201 -1.1325 -1.1917 -0.9895
 6275TIP3    H240317   3.435   6.586  15.188 -0.4524  0.1144  1.1390
 6276TIP3   OH240318   3.600   4.466  13.169  0.2317 -0.1622 -0.2746
 6276TIP3    H140319   3.683   4.490  13.211  0.1904 -0.3452 -0.0900
 6276TIP3    H240320   3.536   4.468  13.240  0.1582 -0.4553 -0.3335
 6277TIP3   OH240321   1.468   3.256  13.735  0.2173  0.3380  0.5199
 6277TIP3    H140322   1.436   3.176  13.779  1.7824 -0.1291  0.8866
 6277TIP3    H240323   1.395   3.317  13.741 -1.1625 -1.1680 -0.0799
 6278TIP3   OH240324   2.105   3.597   0.940  0.2506  0.3685  0.0759
 6278TIP3    H140325   2.190   3.584   0.982  0.5041  1.7682  0.0626
 6278TIP3    H240326   2.117   3.675   0.886 -0.1192 -1.2628 -2.5268
 6279TIP3   OH240327   2.225   4.713  12.071  0.2240 -0.1765 -0.3887
 6279TIP3    H140328   2.262   4.674  12.151  0.3563 -0.2516 -0.4861
 6279TIP3    H240329   2.301   4.734  12.017  0.0948 -1.7564 -1.2592
 6280TIP3   OH240330   1.598   3.441   6.356 -0.2892  0.1992 -0.4422
 6280TIP3    H140331   1.565   3.477   6.438  0.5178 -0.5149  0.2106
 6280TIP3    H240332   1.519   3.421   6.306 -0.7826  1.2571 -0.1350
 6281TIP3   OH240333   2.035   0.186  14.689  0.0535  0.2351  0.1827
 6281TIP3    H140334   2.037   0.244  14.764 -0.7290 -0.2066  0.5548
 6281TIP3    H240335   1.975   0.228  14.627 -1.6027 -0.8304  1.0184
 6282TIP3   OH240336   2.057   1.070  16.200  0.1456 -0.2444 -0.5639
 6282TIP3    H140337   2.081   1.162  16.212 -1.5207  0.3141 -1.2698
 6282TIP3    H240338   2.018   1.044  16.284 -0.3363  0.0136 -0.7037
 6283TIP3   OH240339   3.160   4.573   5.052 -0.1783  0.9445  0.4258
 6283TIP3    H140340   3.184   4.541   5.139  1.0878  1.9680  0.4875
 6283TIP3    H240341   3.083   4.629   5.067 -1.8403 -1.2129  0.4334
 6284TIP3   OH240342   6.625   1.759  16.826 -0.2178  0.3153  0.6844
 6284TIP3    H140343   6.575   1.680  16.849  0.7236 -1.1048 -1.7104
 6284TIP3    H240344   6.717   1.730  16.829  0.1355  1.2607 -0.3508
 6285TIP3   OH240345   1.499   2.058   3.668  0.6037 -0.1900 -0.0068
 6285TIP3    H140346   1.526   2.150   3.665  0.3377 -0.0940  0.4069
 6285TIP3    H240347   1.429   2.056   3.733 -0.9582 -0.2772 -1.6111
 6286TIP3   OH240348   5.692   4.111  12.451  0.6496 -0.2281 -0.5823
 6286TIP3    H140349   5.754   4.045  12.422  1.5539 -0.2065  1.1634
 6286TIP3    H240350   5.619   4.060  12.488  0.4320 -0.2534 -1.0480
 6287TIP3   OH240351   5.977   0.647   5.056 -1.1277 -0.5259 -0.4202
 6287TIP3    H140352   5.952   0.628   5.147  0.7257  2.2614  0.8020
 6287TIP3    H240353   5.903   0.696   5.020 -0.3554  1.8289  0.9759
 6288TIP3   OH240354   4.182   4.831  12.723 -0.3069  0.1053  0.1462
 6288TIP3    H140355   4.203   4.920  12.695 -1.5590  0.6290  0.7918
 6288TIP3    H240356   4.123   4.842  12.797 -1.5139 -1.2495 -0.5532
 6289TIP3   OH240357   4.752   5.561  16.284  0.2769  0.5542  0.3219
 6289TIP3    H140358   4.810   5.637  16.290 -0.3771  1.2084 -1.1902
 6289TIP3    H240359   4.665   5.598  16.276 -0.1400 -0.3885  0.3644
 6290TIP3   OH240360   6.111   5.724  13.509  0.0142  0.3238  0.3428
 6290TIP3    H140361   6.020   5.734  13.482 -0.0605 -0.1654  0.3998
 6290TIP3    H240362   6.130   5.803  13.560  0.0282  1.0629 -0.7654
 6291TIP3   OH240363   4.609   5.708   6.178 -0.2982 -0.4929  0.4515
 6291TIP3    H140364   4.655   5.625   6.192  0.0525 -0.1208  1.5618
 6291TIP3    H240365   4.529   5.701   6.229  1.4447  1.2496  3.7644
 6292TIP3   OH240366   2.008   2.161  12.619 -0.1849 -0.1189  0.2068
 6292TIP3    H140367   1.930   2.132  12.572 -0.6018  0.5860  0.4649
 6292TIP3    H240368   2.032   2.085  12.673 -1.4340  0.0865  1.0935
 6293TIP3   OH240369   0.960   2.364  15.920  0.2409  0.6001  0.5498
 6293TIP3    H140370   0.996   2.276  15.916  0.7220  0.7959  0.4415
 6293TIP3    H240371   0.927   2.382  15.832 -3.4957 -0.9335  1.4619
 6294TIP3   OH240372   6.483   5.534   4.732  0.0007 -0.1305 -0.1306
 6294TIP3    H140373   6.574   5.561   4.732  0.2947 -1.0952 -0.0222
 6294TIP3    H240374   6.448   5.567   4.816  1.4978 -3.6969  2.1393
 6295TIP3   OH240375   0.547   2.967  14.398 -0.0915  0.3839  0.5606
 6295TIP3    H140376   0.631   2.922  14.411 -0.3694  0.1383  1.5504
 6295TIP3    H240377   0.481   2.899  14.409 -0.3979 -0.0866 -3.0761
 6296TIP3   OH240378   0.879   3.173   2.048 -0.2226  0.3126 -0.5274
 6296TIP3    H140379   0.935   3.151   1.974  0.6463  0.8567 -0.0560
 6296TIP3    H240380   0.800   3.122   2.035  0.0845  0.0899 -1.6102
 6297TIP3   OH240381   1.039   2.466  10.947  0.4196  0.2350  0.4059
 6297TIP3    H140382   0.949   2.434  10.954 -0.0944  1.3611 -0.6308
 6297TIP3    H240383   1.030   2.561  10.943  1.6456  0.3521  0.0984
 6298TIP3   OH240384   1.911   3.939  16.395 -0.1568 -0.0650  0.5843
 6298TIP3    H140385   1.856   3.932  16.473  0.8804  0.6351  1.4215
 6298TIP3    H240386   1.998   3.911  16.425  0.4259  0.9373 -0.1251
 6299TIP3   OH240387   6.442   5.808   3.685  0.6863 -0.0401  0.0326
 6299TIP3    H140388   6.522   5.760   3.661  1.1834  0.2037  1.1347
 6299TIP3    H240389   6.393   5.747   3.740  1.1279  0.5483  1.1016
 6300TIP3   OH240390   0.907   3.697   0.274 -0.1535  0.0033 -0.1714
 6300TIP3    H140391   0.857   3.688   0.355  0.4328  0.7426  0.2759
 6300TIP3    H240392   0.923   3.791   0.265  2.6610 -0.3374  0.6153
 6301TIP3   OH240393   3.812   1.160   4.241  0.0306 -0.4416 -0.0317
 6301TIP3    H140394   3.896   1.206   4.241 -0.2225  0.1306 -2.0051
 6301TIP3    H240395   3.834   1.070   4.219  0.2236 -0.5623  0.6333
 6302TIP3   OH240396   4.875   3.012   0.572  0.3960  0.1816 -0.2630
 6302TIP3    H140397   4.815   3.061   0.516  0.5203  0.6681  0.0334
 6302TIP3    H240398   4.886   2.928   0.526 -0.4137  0.1288 -0.3809
 6303TIP3   OH240399   4.645   6.376  11.986 -0.2533 -0.6538  0.4945
 6303TIP3    H140400   4.716   6.417  12.035 -1.1364 -0.1991  1.4502
 6303TIP3    H240401   4.666   6.393  11.895  0.2498  0.5249  0.8114
 6304TIP3   OH240402   0.399   1.005  14.093  0.3393  0.4677 -0.4843
 6304TIP3    H140403   0.433   1.071  14.152  0.7473  0.5071 -0.7569
 6304TIP3    H240404   0.359   0.939  14.150  0.4109  0.6826 -0.1884
 6305TIP3   OH240405   4.781   2.372  13.907 -0.1426 -0.2577  0.0826
 6305TIP3    H140406   4.789   2.409  13.995  1.3718 -1.5772  0.5543
 6305TIP3    H240407   4.801   2.444  13.848  1.4441  0.0438  0.9350
 6306TIP3   OH240408   3.295   3.152   6.445  0.3544 -0.4626  0.5119
 6306TIP3    H140409   3.237   3.086   6.409  1.8091 -1.3790 -0.2226
 6306TIP3    H240410   3.238   3.207   6.498 -1.4031 -0.5691 -1.1635
 6307TIP3   OH240411   6.595   3.933   2.101  0.2201  0.1175 -0.4110
 6307TIP3    H140412   6.532   3.995   2.063 -1.2293 -0.8937  0.2498
 6307TIP3    H240413   6.631   3.887   2.025 -0.7553 -0.1291 -0.7376
 6308TIP3   OH240414   5.327   4.576  10.671 -0.2532  0.7118 -0.4193
 6308TIP3    H140415   5.282   4.652  10.635 -2.2102  0.0909  0.5783
 6308TIP3    H240416   5.274   4.501  10.645  1.3400 -0.3112 -0.9333
 6309TIP3   OH240417   0.127   0.124  12.008 -0.2170 -0.0486 -0.9389
 6309TIP3    H140418   0.185   0.165  12.072 -0.6117  0.3421 -0.8249
 6309TIP3    H240419   0.128   0.184  11.933 -0.4843 -0.0320 -0.9294
 6310TIP3   OH240420   6.068   3.022  12.503  0.2821  0.3083 -0.0066
 6310TIP3    H140421   6.006   3.047  12.572  2.3849  1.3028  1.6156
 6310TIP3    H240422   6.117   2.949  12.539  0.3740 -0.1820 -1.0861
 6311TIP3   OH240423   0.038   2.692  13.795 -0.0948  0.3187  0.1698
 6311TIP3    H140424   0.107   2.668  13.734 -0.8181  1.1328 -1.0209
 6311TIP3    H240425   0.008   2.777  13.765 -0.4831  0.7515  1.6872
 6312TIP3   OH240426   0.533   1.443  12.204 -0.3950  0.1714 -0.3786
 6312TIP3    H140427   0.511   1.358  12.241 -2.3738  0.5919 -0.4489
 6312TIP3    H240428   0.628   1.444  12.200 -0.1494 -0.6985  2.7658
 6313TIP3   OH240429   6.431   6.732   0.423  0.0313  0.3302  0.4185
 6313TIP3    H140430   6.490   6.807   0.429 -1.9910  1.9472  1.5577
 6313TIP3    H240431   6.483   6.662   0.384  1.2703  3.0843 -3.3948
 6314TIP3   OH240432   0.099   4.260   3.473 -0.2611  0.3702 -0.4097
 6314TIP3    H140433   0.169   4.276   3.536  0.4076 -1.4108 -0.6585
 6314TIP3    H240434   0.141   4.265   3.388 -0.5456 -0.1042 -0.5830
 6315TIP3   OH240435   5.701   4.957   4.741  0.4047 -0.0230 -0.1365
 6315TIP3    H140436   5.776   5.008   4.710  0.5745 -0.4430 -0.4205
 6315TIP3    H240437   5.731   4.866   4.738  1.1053 -0.0089  3.0212
 6316TIP3   OH240438   0.987   3.001  14.037 -0.1675 -0.1161 -0.3150
 6316TIP3    H140439   0.930   3.074  14.061 -1.3790 -0.9139 -0.6996
 6316TIP3    H240440   1.000   2.953  14.119 -0.3011 -0.1041 -0.2871
 6317TIP3   OH240441   2.979   4.380   4.745  0.3716 -0.2721  0.8109
 6317TIP3    H140442   3.045   4.383   4.815  0.9882 -0.2752  0.2409
 6317TIP3    H240443   3.007   4.447   4.683  1.4062 -2.0620 -0.7767
 6318TIP3   OH240444   0.905   0.339   0.403  0.7327  0.0591 -0.6353
 6318TIP3    H140445   0.935   0.384   0.482  1.1060  2.4962 -2.0435
 6318TIP3    H240446   0.965   0.368   0.335 -0.1767 -1.1756 -2.0212
 6319TIP3   OH240447   2.449   4.979   5.046 -0.1685 -0.1059 -0.5513
 6319TIP3    H140448   2.515   4.969   5.114 -0.1587 -0.6129 -0.6305
 6319TIP3    H240449   2.365   4.974   5.093 -0.1661 -0.8354 -0.6252
 6320TIP3   OH240450   6.314   5.797  11.291 -0.0780 -0.1511  0.0292
 6320TIP3    H140451   6.366   5.814  11.370  0.6182  2.3483 -0.8820
 6320TIP3    H240452   6.336   5.868  11.232 -2.4429 -0.5875 -1.5118
 6321TIP3   OH240453   5.200   1.635   6.376  0.5570 -0.7649  0.1683
 6321TIP3    H140454   5.149   1.563   6.413  1.3524 -2.4769 -1.8802
 6321TIP3    H240455   5.135   1.691   6.333 -0.3360  1.0413  3.4795
 6322TIP3   OH240456   4.216   6.540   4.422 -0.2717 -0.0201  0.0667
 6322TIP3    H140457   4.143   6.492   4.461  0.2296 -0.5569  0.3566
 6322TIP3    H240458   4.234   6.494   4.340 -0.9045  0.7179 -0.4958
 6323TIP3   OH240459   6.121   5.665  16.078  0.4648 -0.5483 -0.3586
 6323TIP3    H140460   6.161   5.655  16.165  1.7237 -0.3094 -0.8934
 6323TIP3    H240461   6.056   5.734  16.090 -0.5790 -1.6622  0.7779
 6324TIP3   OH240462   2.286   2.927  11.373  0.2242 -0.0773  0.4272
 6324TIP3    H140463   2.293   2.837  11.341  0.2722 -0.3737  1.2511
 6324TIP3    H240464   2.246   2.919  11.459  1.7776  0.5306  1.2535
 6325TIP3   OH240465   6.272   3.599  14.634 -0.5410 -0.0639 -0.3179
 6325TIP3    H140466   6.265   3.676  14.691  1.7665  0.1790 -0.2715
 6325TIP3    H240467   6.229   3.530  14.683 -2.6370  1.1508 -0.3369
 6326TIP3   OH240468   3.039   0.135   3.231 -0.0464  0.5313 -0.4507
 6326TIP3    H140469   3.095   0.123   3.307  0.5901  1.6962 -0.7221
 6326TIP3    H240470   3.053   0.225   3.204 -1.4635  0.6184 -1.0057
 6327TIP3   OH240471   4.267   6.762   4.256 -0.4083 -0.1126 -0.2577
 6327TIP3    H140472   4.353   6.802   4.267 -0.1236 -0.6526 -0.5256
 6327TIP3    H240473   4.252   6.714   4.338 -0.2421 -0.4231 -0.4095
 6328TIP3   OH240474   3.736   0.130   4.683 -0.3715 -0.2599 -0.1843
 6328TIP3    H140475   3.744   0.156   4.591 -1.9311  0.8861 -0.0334
 6328TIP3    H240476   3.696   0.043   4.680  0.6949 -0.7516 -0.5952
 6329TIP3   OH240477   6.142   3.123   1.800  0.3553 -0.2025  0.2159
 6329TIP3    H140478   6.128   3.140   1.707 -0.1291  0.3502  0.3805
 6329TIP3    H240479   6.232   3.151   1.817  0.0102  0.9777  0.1873
 6330TIP3   OH240480   5.852   2.784  15.550  0.3165  0.4845  0.5636
 6330TIP3    H140481   5.780   2.763  15.609  1.5305 -0.8090  1.6653
 6330TIP3    H240482   5.843   2.722  15.478 -0.6005  1.4228 -0.1607
 6331TIP3   OH240483   0.468   0.804   0.006 -0.2107  0.4415 -0.4814
 6331TIP3    H140484   0.462   0.737   0.075  0.1455  0.8900 -0.0134
 6331TIP3    H240485   0.398   0.866   0.027 -0.6427  0.1418 -1.0051
 6332TIP3   OH240486   6.316   0.830  11.571 -0.0573  0.4353  0.4353
 6332TIP3    H140487   6.393   0.879  11.543 -0.2946  0.1206 -0.7972
 6332TIP3    H240488   6.249   0.851  11.507 -1.0437  0.8000  1.5666
 6333TIP3   OH240489   4.562   0.019   3.069 -0.1801 -0.2255 -0.0186
 6333TIP3    H140490   4.512   0.100   3.077 -0.7061 -0.6786  1.8226
 6333TIP3    H240491   4.547  -0.010   2.979  1.0503  2.3397 -1.1293
 6334TIP3   OH240492   6.361   6.382  10.789 -0.0745  0.0241 -0.8329
 6334TIP3    H140493   6.267   6.391  10.803  0.0366 -0.8383  0.7282
 6334TIP3    H240494   6.369   6.324  10.713 -0.7833  0.3419 -1.1582
 6335TIP3   OH240495   3.788   0.207  16.369  0.6356  0.4913 -0.1418
 6335TIP3    H140496   3.736   0.243  16.441  0.8172  1.7613 -0.6062
 6335TIP3    H240497   3.734   0.136  16.334  0.0367  0.6012  0.5211
 6336TIP3   OH240498   1.398   3.013  14.425 -0.0849 -0.0012  0.2131
 6336TIP3    H140499   1.314   2.968  14.418 -1.8444  2.8188  1.3139
 6336TIP3    H240500   1.407   3.061  14.343  0.2747  0.0099  0.2553
 6337TIP3   OH240501   3.158   2.611   3.979  0.0383  0.2532  0.3614
 6337TIP3    H140502   3.235   2.607   3.922  0.3743 -0.9024  0.8685
 6337TIP3    H240503   3.084   2.612   3.918  0.3952 -0.8844 -0.1127
 6338TIP3   OH240504   3.775   5.654  13.207 -0.5521 -0.7569  0.0577
 6338TIP3    H140505   3.707   5.600  13.167 -0.2297 -0.0108 -1.5552
 6338TIP3    H240506   3.749   5.744  13.186 -0.0036 -0.3686  0.9752
 6339TIP3   OH240507   4.111   6.277  14.863  0.2570 -0.3226  0.2176
 6339TIP3    H140508   4.059   6.295  14.941 -0.5268 -0.0709 -0.3460
 6339TIP3    H240509   4.049   6.237  14.802  0.7336 -0.0640 -0.4495
 6340TIP3   OH240510   0.985   1.212  11.777  0.4636  0.7404 -0.1326
 6340TIP3    H140511   0.916   1.272  11.806 -1.2455 -1.3417  0.3772
 6340TIP3    H240512   0.968   1.200  11.684 -0.9389 -0.9689  0.2858
 6341TIP3   OH240513   1.180   5.951  14.310 -0.4437 -0.3238  0.0164
 6341TIP3    H140514   1.151   6.041  14.298 -1.8867 -0.7563 -0.0159
 6341TIP3    H240515   1.264   5.946  14.265 -0.5538  0.8977 -0.3542
 6342TIP3   OH240516   3.677   5.224  16.533  0.0668 -0.2638  0.3028
 6342TIP3    H140517   3.735   5.148  16.534  0.1268 -0.2143  0.8111
 6342TIP3    H240518   3.634   5.220  16.448 -0.6509 -1.4193  0.6891
 6343TIP3   OH240519   4.049   1.004  13.207  0.1226  0.4524  0.7706
 6343TIP3    H140520   4.097   0.936  13.255 -1.0745 -0.7957  0.2805
 6343TIP3    H240521   4.065   0.983  13.115 -1.6094 -0.2367  0.5892
 6344TIP3   OH240522   2.241   4.429   2.337 -0.0313 -0.2296  0.3250
 6344TIP3    H140523   2.183   4.473   2.275 -0.3788  0.2346  0.9662
 6344TIP3    H240524   2.306   4.495   2.360 -0.3855 -0.1402  1.0743
 6345TIP3   OH240525   0.759   0.778   1.801  0.4268  1.0239 -0.6900
 6345TIP3    H140526   0.780   0.773   1.708 -2.3978  2.6286 -1.5357
 6345TIP3    H240527   0.784   0.866   1.827  1.2795  0.5534  0.1141
 6346TIP3   OH240528   2.574   3.357   3.037  0.1227  0.0072  0.4178
 6346TIP3    H140529   2.504   3.422   3.045 -0.2819 -0.5703  1.9714
 6346TIP3    H240530   2.644   3.390   3.094  0.7981  0.1561 -0.4718
 6347TIP3   OH240531   3.555   3.492  16.094 -1.2337 -0.7132 -0.7425
 6347TIP3    H140532   3.544   3.527  16.006  3.6153  0.4251 -1.1964
 6347TIP3    H240533   3.572   3.569  16.148  0.7081 -1.6373  0.0718
 6348TIP3   OH240534   5.860   3.175  15.842  0.0869  0.5555 -0.1933
 6348TIP3    H140535   5.778   3.203  15.801 -1.0749 -1.6091  0.5071
 6348TIP3    H240536   5.858   3.216  15.929 -2.3462 -2.5438  1.4315
 6349TIP3   OH240537   2.506   1.311   4.381 -0.5954 -0.6056 -0.6392
 6349TIP3    H140538   2.491   1.374   4.451 -0.2651 -1.9397  0.6924
 6349TIP3    H240539   2.418   1.281   4.357 -0.7253  0.0432 -0.9926
 6350TIP3   OH240540   0.646   3.638   4.371  0.3285  0.1175 -0.5203
 6350TIP3    H140541   0.706   3.589   4.315  0.5253  2.4807 -2.5477
 6350TIP3    H240542   0.702   3.679   4.437  0.2731 -1.4908  0.5826
 6351TIP3   OH240543   2.500   1.611  13.884  0.1594 -0.5941  0.1772
 6351TIP3    H140544   2.491   1.702  13.914 -0.8000  0.2912 -2.5293
 6351TIP3    H240545   2.549   1.568  13.954 -1.1384  1.4698  2.5397
 6352TIP3   OH240546   3.289   3.231   5.922  0.3488  1.0027  0.3215
 6352TIP3    H140547   3.348   3.161   5.894 -1.5409 -1.1735  1.4310
 6352TIP3    H240548   3.306   3.240   6.016 -0.7466  0.6099  0.5730
 6353TIP3   OH240549   1.521   3.382  11.920 -0.0041  0.1676 -0.0316
 6353TIP3    H140550   1.492   3.312  11.861  0.4914  0.5865 -0.7833
 6353TIP3    H240551   1.446   3.442  11.923 -0.7192 -0.7609  1.2181
 6354TIP3   OH240552   6.620   3.575   1.552 -0.9505  0.5633  0.0084
 6354TIP3    H140553   6.541   3.543   1.508 -1.9227  2.4912  0.2251
 6354TIP3    H240554   6.595   3.581   1.645 -0.1283  0.0272  0.2786
 6355TIP3   OH240555   0.402   3.050  16.877 -0.1220 -1.0273 -0.0547
 6355TIP3    H140556   0.340   3.027  16.947 -1.2501  0.3599 -0.5415
 6355TIP3    H240557   0.484   3.068  16.923 -0.4568 -1.5328  0.7638
 6356TIP3   OH240558   4.791   3.700  17.058 -0.4683  0.4669  0.8276
 6356TIP3    H140559   4.829   3.749  17.130 -0.5709 -1.7703  2.4945
 6356TIP3    H240560   4.852   3.713  16.985  0.7119  1.1485  1.9041
 6357TIP3   OH240561   2.103   6.293  11.183  0.5283 -0.1093  0.3184
 6357TIP3    H140562   2.099   6.254  11.270  1.2445 -1.1295 -0.0867
 6357TIP3    H240563   2.188   6.337  11.180  0.0199  0.9378  0.5244
 6358TIP3   OH240564   5.012   6.619   1.031  0.4298 -0.5443  0.0594
 6358TIP3    H140565   5.075   6.561   0.988 -0.2132 -1.2727  0.0714
 6358TIP3    H240566   4.989   6.684   0.965  1.0584 -0.3784  0.0020
 6359TIP3   OH240567   4.927   5.125  11.742 -0.5663  0.4706 -0.1917
 6359TIP3    H140568   5.000   5.096  11.796 -1.9184  1.1909  2.1839
 6359TIP3    H240569   4.930   5.069  11.664  1.8155 -0.2325  0.3225
 6360TIP3   OH240570   0.590   0.265   0.904 -0.0238 -0.7757 -0.3978
 6360TIP3    H140571   0.647   0.254   0.828  0.5125  0.9416 -0.2776
 6360TIP3    H240572   0.512   0.307   0.869 -0.2500 -1.0177 -0.1812
 6361TIP3   OH240573   6.604   0.515  16.167  0.0761  0.0895  0.1209
 6361TIP3    H140574   6.647   0.440  16.208  0.9256  0.3201 -0.3034
 6361TIP3    H240575   6.548   0.552  16.235 -0.2873 -0.8718  0.3559
 6362TIP3   OH240576   2.678   0.630  15.673  0.4850 -0.4898 -0.4899
 6362TIP3    H140577   2.613   0.594  15.614  0.6782 -0.4240 -0.7429
 6362TIP3    H240578   2.636   0.627  15.759  0.2235 -0.6314 -0.6204
 6363TIP3   OH240579   6.849   2.280   4.232  0.3030 -0.1273 -0.3086
 6363TIP3    H140580   6.834   2.309   4.142 -1.9502 -2.0277 -0.6586
 6363TIP3    H240581   6.839   2.360   4.285 -0.2468  0.6887 -1.5957
 6364TIP3   OH240582   6.688   2.168  15.536 -0.1768 -0.3672  0.0287
 6364TIP3    H140583   6.607   2.157  15.587 -1.3177  1.5207 -1.2740
 6364TIP3    H240584   6.699   2.263  15.530  0.0747 -0.5125 -2.9357
 6365TIP3   OH240585   2.537   1.637   0.827  0.6947 -0.2506 -0.1781
 6365TIP3    H140586   2.453   1.658   0.867  1.0257  1.4751 -0.2666
 6365TIP3    H240587   2.572   1.565   0.880  0.2966  0.7300  1.5048
 6366TIP3   OH240588   5.697   2.162  15.214  0.5374  0.3701 -0.2211
 6366TIP3    H140589   5.612   2.134  15.182 -0.3561  1.5833  0.9653
 6366TIP3    H240590   5.677   2.225  15.284  2.4017  0.9353 -0.1354
 6367TIP3   OH240591   4.043   5.879  16.006 -0.0753 -0.1843 -0.3060
 6367TIP3    H140592   4.054   5.951  16.068  1.4305  0.8040 -1.6545
 6367TIP3    H240593   4.029   5.921  15.922 -4.5693 -1.4345 -0.4744
 6368TIP3   OH240594   3.330   0.000  11.156 -0.5681  0.2560  0.1752
 6368TIP3    H140595   3.386   0.072  11.183 -0.2196  0.2902 -0.6200
 6368TIP3    H240596   3.329  -0.060  11.230  2.5137 -0.9657 -0.6272
 6369TIP3   OH240597   5.381   0.322  13.225 -0.8169 -0.4652 -0.9239
 6369TIP3    H140598   5.434   0.267  13.283  0.1209  1.1349 -0.1757
 6369TIP3    H240599   5.389   0.282  13.139  0.9605 -0.7294 -0.6688
 6370TIP3   OH240600   5.052   6.362   5.781 -0.6120 -0.6293  0.5064
 6370TIP3    H140601   5.054   6.391   5.690 -2.3965 -1.0994  0.2824
 6370TIP3    H240602   5.108   6.284   5.783  1.5975  0.8524  0.4321
 6371TIP3   OH240603   3.777   4.268   0.412 -0.3404  0.3751 -0.1411
 6371TIP3    H140604   3.728   4.193   0.377 -0.5467 -0.0514  1.0214
 6371TIP3    H240605   3.711   4.336   0.424 -0.2996  0.4619 -0.3941
 6372TIP3   OH240606   3.124   5.394  12.607 -0.6847  0.6220  0.0641
 6372TIP3    H140607   3.060   5.380  12.538  1.8885 -2.5521 -1.9182
 6372TIP3    H240608   3.204   5.353  12.576  2.0315  3.0898  2.9951
 6373TIP3   OH240609   0.843   0.102   5.464  0.6089  0.3700  0.1018
 6373TIP3    H140610   0.916   0.158   5.492  0.1873  0.1179  1.7778
 6373TIP3    H240611   0.779   0.109   5.534  0.0001 -1.2266 -0.2597
 6374TIP3   OH240612   0.221   2.666   2.533  0.6145 -0.5941  0.0083
 6374TIP3    H140613   0.208   2.592   2.475  0.9614 -0.4077 -0.3138
 6374TIP3    H240614   0.136   2.710   2.536  0.3697 -1.0778  0.3121
 6375TIP3   OH240615   4.672   4.969   5.615  0.3180  0.6297  0.0413
 6375TIP3    H140616   4.587   4.956   5.572 -0.6734  2.3360  1.3281
 6375TIP3    H240617   4.686   5.064   5.611  1.5747  0.5032  0.8958
 6376TIP3   OH240618   1.665   5.892   4.130  0.1160  0.2151 -0.9135
 6376TIP3    H140619   1.650   5.953   4.203  0.8974 -0.5701 -0.0731
 6376TIP3    H240620   1.594   5.829   4.136  2.2406 -2.2009  1.7044
 6377TIP3   OH240621   4.683   5.525   6.739  0.2269 -0.8298  0.4853
 6377TIP3    H140622   4.772   5.506   6.710  0.5820 -0.8604  1.5608
 6377TIP3    H240623   4.652   5.442   6.776 -0.1244 -0.7179  0.4512
 6378TIP3   OH240624   5.201   6.657   1.866 -0.5060 -0.6990  0.1040
 6378TIP3    H140625   5.190   6.681   1.958  0.5758  0.3569 -0.0219
 6378TIP3    H240626   5.160   6.729   1.817  1.1538  0.0467 -0.2565
 6379TIP3   OH240627   6.258   1.358   4.057 -0.1630  0.0713 -0.3257
 6379TIP3    H140628   6.339   1.408   4.045  0.7852 -1.4764 -0.7565
 6379TIP3    H240629   6.188   1.418   4.033  0.7799  1.7624  0.9341
 6380TIP3   OH240630   1.238   1.987   0.802  0.8506  0.0650  0.2969
 6380TIP3    H140631   1.185   2.058   0.838  0.1720  0.1257 -0.7714
 6380TIP3    H240632   1.328   2.017   0.810  0.6990  0.2131  1.6069
 6381TIP3   OH240633   5.698   4.852   2.778  0.4320 -0.2536  0.4189
 6381TIP3    H140634   5.636   4.790   2.815 -0.0869  0.3152  0.5364
 6381TIP3    H240635   5.705   4.922   2.844 -0.6166  0.8452 -0.5739
 6382TIP3   OH240636   1.100   2.285  13.505  0.4357  0.8903  0.0493
 6382TIP3    H140637   1.101   2.317  13.414 -2.2802 -0.4564 -0.5643
 6382TIP3    H240638   1.087   2.364  13.557 -2.6701  1.3287 -1.1765
 6383TIP3   OH240639   0.869   1.952  16.075 -0.0306  0.0437 -0.1037
 6383TIP3    H140640   0.793   1.996  16.112  0.7107  1.7093 -0.4846
 6383TIP3    H240641   0.870   1.978  15.983  0.5919 -0.5638 -0.2778
 6384TIP3   OH240642   3.315   4.834  12.228  0.0295 -0.4561 -0.0862
 6384TIP3    H140643   3.372   4.910  12.238 -0.9400  0.3525 -0.5039
 6384TIP3    H240644   3.365   4.773  12.174  0.5951  0.1441 -0.2521
 6385TIP3   OH240645   3.689   3.620  12.394 -0.2797 -0.6066  0.1905
 6385TIP3    H140646   3.657   3.537  12.431  0.9968 -0.0379  2.7827
 6385TIP3    H240647   3.626   3.685  12.424 -0.7655 -0.4743 -1.0629
 6386TIP3   OH240648   0.370   3.574   5.824 -0.2866  0.7759 -0.2208
 6386TIP3    H140649   0.367   3.579   5.919 -0.7575  2.2974 -0.2868
 6386TIP3    H240650   0.323   3.494   5.802  1.5321 -0.6627  0.8791
 6387TIP3   OH240651   5.600   1.053  10.905  0.2806 -0.4592  0.1555
 6387TIP3    H140652   5.587   1.039  10.811 -1.1604  0.4707  0.1917
 6387TIP3    H240653   5.530   1.111  10.931 -0.2362 -1.8493  2.1306
 6388TIP3   OH240654   5.809   6.312  13.700  0.3032  0.3172 -0.4471
 6388TIP3    H140655   5.771   6.339  13.783 -2.8766  1.2576 -2.0467
 6388TIP3    H240656   5.817   6.394  13.650  1.1829 -0.3483 -1.4391
 6389TIP3   OH240657   3.555   0.965   6.234 -0.4935  0.2599  0.4001
 6389TIP3    H140658   3.468   0.972   6.274 -0.4852  0.4391  0.3877
 6389TIP3    H240659   3.613   0.945   6.307 -0.1081  2.8584  0.9090
 6390TIP3   OH240660   2.751   0.757   1.980 -0.0300  0.6746  0.1369
 6390TIP3    H140661   2.740   0.663   1.994  0.5625  1.0985  5.4626
 6390TIP3    H240662   2.669   0.785   1.939 -0.0843 -2.0611 -1.9353
 6391TIP3   OH240663   3.325   0.163  12.221  0.0586 -0.1821  0.1972
 6391TIP3    H140664   3.365   0.231  12.167 -0.3911 -0.9972 -1.2118
 6391TIP3    H240665   3.231   0.175  12.208 -0.0490 -0.4972  0.6778
 6392TIP3   OH240666   1.229   5.978   3.064 -0.4157 -0.0839 -0.0479
 6392TIP3    H140667   1.153   6.035   3.075 -0.8575 -0.6658  0.0009
 6392TIP3    H240668   1.303   6.038   3.053 -0.8654  0.4922  0.0007
 6393TIP3   OH240669   4.715   0.854   1.309 -0.2437 -0.0216 -0.2636
 6393TIP3    H140670   4.710   0.913   1.233  1.3753  1.1989  0.5252
 6393TIP3    H240671   4.793   0.801   1.294 -0.4874 -0.4785  0.0641
 6394TIP3   OH240672   2.540   1.646   1.477  0.7243 -0.1655 -0.5450
 6394TIP3    H140673   2.447   1.664   1.467  0.5472  0.0323  1.0987
 6394TIP3    H240674   2.544   1.572   1.538  1.6384  1.8815  2.0712
 6395TIP3   OH240675   5.553   5.693  13.294  0.1384 -0.5408 -0.0466
 6395TIP3    H140676   5.504   5.661  13.370 -0.9457 -0.3413 -0.6322
 6395TIP3    H240677   5.644   5.672  13.313 -0.0832 -0.2760  1.4108
 6396TIP3   OH240678   3.695   1.757  15.417  0.1809  0.0324  0.5902
 6396TIP3    H140679   3.607   1.720  15.407 -0.3664  1.2268  0.8165
 6396TIP3    H240680   3.736   1.743  15.332 -0.3218 -0.2921  0.3937
 6397TIP3   OH240681   2.825   1.852   4.487  0.1360 -0.1195 -0.0399
 6397TIP3    H140682   2.737   1.816   4.483 -0.3487  0.8460  1.2375
 6397TIP3    H240683   2.812   1.947   4.495  1.3548  0.4800 -3.4887
 6398TIP3   OH240684   1.621   0.406  14.722 -0.8451 -0.0063  0.3111
 6398TIP3    H140685   1.700   0.360  14.693 -0.5450  0.4583  0.3736
 6398TIP3    H240686   1.625   0.491  14.677 -1.2157  0.0884  0.4521
 6399TIP3   OH240687   1.930   5.186  13.369 -0.4793 -0.2856 -0.5667
 6399TIP3    H140688   2.015   5.214  13.337 -0.7211  0.4144 -0.6146
 6399TIP3    H240689   1.935   5.091  13.371  0.9957 -0.2197  1.3454
 6400TIP3   OH240690   2.848   2.793   2.512  0.5841  0.1886 -0.0294
 6400TIP3    H140691   2.891   2.869   2.552  1.3144 -0.8568  1.2837
 6400TIP3    H240692   2.919   2.729   2.502 -0.1596 -0.5821 -0.4130
 6401TIP3   OH240693   6.216   6.788   0.592 -0.2721 -0.7320  0.3427
 6401TIP3    H140694   6.266   6.828   0.664  0.2738  1.5884 -1.2195
 6401TIP3    H240695   6.282   6.761   0.529 -0.8247 -1.2718 -0.0126
 6402TIP3   OH240696   6.130   1.047  14.670 -0.2327 -1.1315  0.1663
 6402TIP3    H140697   6.209   1.100  14.661  0.0030 -1.1273  1.8962
 6402TIP3    H240698   6.062   1.098  14.625  0.1896  0.2193  0.9840
 6403TIP3   OH240699   2.170   2.230  12.350 -0.5390 -0.0547 -0.2985
 6403TIP3    H140700   2.094   2.191  12.393 -2.2609  0.8650 -2.2810
 6403TIP3    H240701   2.245   2.205  12.404 -2.2565 -0.8514  1.8526
 6404TIP3   OH240702   5.576   4.149  10.401 -0.2724 -0.3804 -0.8935
 6404TIP3    H140703   5.658   4.102  10.407 -0.5697 -0.7713  0.2975
 6404TIP3    H240704   5.515   4.087  10.362 -0.8069 -1.2358  1.1742
 6405TIP3   OH240705   5.369   3.758  11.870 -0.3264  0.5223 -0.0235
 6405TIP3    H140706   5.395   3.745  11.961 -2.6566  0.0374  0.6563
 6405TIP3    H240707   5.307   3.830  11.872 -0.9718  0.0409 -1.1029
 6406TIP3   OH240708   4.670   2.775  12.851  0.0686 -0.0459  0.1056
 6406TIP3    H140709   4.719   2.846  12.810 -1.1671 -0.0782 -1.5301
 6406TIP3    H240710   4.589   2.816  12.881  0.5314 -0.2329  1.7015
 6407TIP3   OH240711   4.447   2.645  15.816 -0.1860 -0.4316 -0.0186
 6407TIP3    H140712   4.356   2.625  15.795 -0.4782  1.3738 -0.6494
 6407TIP3    H240713   4.444   2.677  15.907 -0.6976  2.3543 -0.9239
 6408TIP3   OH240714   0.349   0.898  14.723  0.0879 -0.7369 -0.3731
 6408TIP3    H140715   0.257   0.874  14.725 -0.1582  0.1969  1.2525
 6408TIP3    H240716   0.355   0.971  14.662 -0.7548  0.9387  1.4475
 6409TIP3   OH240717   2.039   6.588   0.764 -0.1819 -0.4302 -0.0603
 6409TIP3    H140718   2.120   6.615   0.721 -0.3033 -0.3184 -0.2246
 6409TIP3    H240719   2.019   6.503   0.726  0.8618 -1.3395  1.3712
 6410TIP3   OH240720   2.188   6.629   2.139 -0.3092 -0.1597 -0.2937
 6410TIP3    H140721   2.189   6.655   2.231 -0.3921 -0.1762 -0.2876
 6410TIP3    H240722   2.215   6.537   2.139  0.5378  0.0842 -0.3696
 6411TIP3   OH240723   6.168   2.579   4.040  0.7343  0.5539 -0.4055
 6411TIP3    H140724   6.262   2.599   4.040  1.3313 -1.7016 -2.4158
 6411TIP3    H240725   6.157   2.520   3.966 -2.6852  2.4182 -1.6101
 6412TIP3   OH240726   1.348   1.196   5.201 -0.1297 -0.3955  0.6512
 6412TIP3    H140727   1.413   1.205   5.131 -0.2523 -0.0796  0.5771
 6412TIP3    H240728   1.263   1.201   5.156 -0.2356  1.3519  0.9891
 6413TIP3   OH240729   3.384   0.719  12.007  0.2913 -0.0661 -0.5128
 6413TIP3    H140730   3.374   0.805  12.047  1.9546  0.8240 -1.8861
 6413TIP3    H240731   3.468   0.686  12.040 -0.1362 -1.0027 -0.3163
 6414TIP3   OH240732   6.800   4.750   0.176  0.1860  0.0983 -0.0421
 6414TIP3    H140733   6.798   4.746   0.080 -1.5766 -1.1985 -0.0072
 6414TIP3    H240734   6.754   4.670   0.204 -0.0253  0.8378  1.8679
 6415TIP3   OH240735   5.651   3.866   4.908  0.1341  0.0417  0.9258
 6415TIP3    H140736   5.721   3.803   4.921 -0.0362 -0.6105 -0.9736
 6415TIP3    H240737   5.696   3.950   4.894  0.4349  0.0210  1.7491
 6416TIP3   OH240738   0.973   2.214   5.160 -0.2459  0.4337 -0.2072
 6416TIP3    H140739   0.878   2.213   5.151 -0.1958  2.4063 -1.3810
 6416TIP3    H240740   0.994   2.302   5.190  1.2562  0.2282 -0.5497
 6417TIP3   OH240741   1.658   5.793  12.711 -0.1876  0.0234 -0.2293
 6417TIP3    H140742   1.748   5.805  12.681  0.0628 -0.5523  0.2692
 6417TIP3    H240743   1.610   5.764  12.634 -0.1298  1.0980 -0.6915
 6418TIP3   OH240744   2.449   6.795   2.421  0.0900  0.4311 -0.0587
 6418TIP3    H140745   2.451   6.762   2.511 -1.4868 -0.0612 -0.1787
 6418TIP3    H240746   2.509   6.869   2.422 -1.3860  1.7048  1.9366
 6419TIP3   OH240747   0.352   6.505   4.387 -0.2254  0.2793  0.5495
 6419TIP3    H140748   0.434   6.502   4.338  0.6373 -0.0873  1.9375
 6419TIP3    H240749   0.284   6.505   4.320  0.8230 -2.2487 -0.6650
 6420TIP3   OH240750   2.528   0.788  12.348  0.2181  0.6644 -0.5271
 6420TIP3    H140751   2.531   0.865  12.291  0.2549  0.6097 -0.6002
 6420TIP3    H240752   2.562   0.717  12.293  0.6267  0.6910 -0.3115
 6421TIP3   OH240753   1.996   6.293  15.610 -0.4183  0.1029 -0.0462
 6421TIP3    H140754   1.982   6.312  15.517 -1.0864  0.9097  0.2128
 6421TIP3    H240755   2.088   6.265  15.614 -0.1800  0.7047 -0.8477
 6422TIP3   OH240756   4.520   2.729  11.015 -0.2970  0.4915 -0.2276
 6422TIP3    H140757   4.438   2.705  10.973 -1.0939 -0.4450  1.7731
 6422TIP3    H240758   4.580   2.658  10.991 -0.0536  1.1069 -1.5753
 6423TIP3   OH240759   0.092   0.434  14.051  0.1505  0.2539  0.4456
 6423TIP3    H140760   0.185   0.451  14.066 -0.0881  1.6027  0.4546
 6423TIP3    H240761   0.055   0.519  14.030 -0.8434 -0.4843 -0.9102
 6424TIP3   OH240762   5.494   3.172  14.787 -0.1804  0.5777  0.7935
 6424TIP3    H140763   5.526   3.261  14.802 -1.7961  1.1028  1.3821
 6424TIP3    H240764   5.503   3.128  14.871 -0.9436  0.7198  0.9541
 6425TIP3   OH240765   4.409   5.154   1.954 -0.1186 -0.1623 -0.2943
 6425TIP3    H140766   4.337   5.210   1.985 -0.2889 -1.0315  0.9185
 6425TIP3    H240767   4.460   5.211   1.896 -0.9874  0.8766 -0.0722
 6426TIP3   OH240768   6.436   1.844   1.979 -0.0826 -0.0036  0.2733
 6426TIP3    H140769   6.425   1.818   1.887  0.1750  0.4569  0.1082
 6426TIP3    H240770   6.451   1.762   2.025  4.2475  0.0127 -0.7237
 6427TIP3   OH240771   6.027   3.657  16.101 -0.3885  0.2780  0.2626
 6427TIP3    H140772   5.988   3.683  16.018  2.9492  0.6987 -1.3547
 6427TIP3    H240773   6.013   3.563  16.106  0.6906 -0.0396 -1.6602
 6428TIP3   OH240774   0.104   2.344  13.848  0.2987 -0.4727  0.4969
 6428TIP3    H140775   0.092   2.437  13.868  3.0740  0.3028 -0.9578
 6428TIP3    H240776   0.015   2.309  13.846 -0.7151  1.3204  4.4821
 6429TIP3   OH240777   0.762   3.324   4.195  0.0452 -0.0104  0.4140
 6429TIP3    H140778   0.668   3.319   4.177  0.3187  0.0731 -1.1341
 6429TIP3    H240779   0.803   3.313   4.110  1.4709 -0.6518  1.1508
 6430TIP3   OH240780   3.595   2.276  14.780  0.4895 -0.2669  0.1197
 6430TIP3    H140781   3.516   2.329  14.786  1.0771  0.4429  3.0071
 6430TIP3    H240782   3.586   2.229  14.697 -1.8198  1.5198 -0.7452
 6431TIP3   OH240783   2.644   6.559   2.323 -0.3681 -0.0620 -0.4066
 6431TIP3    H140784   2.558   6.571   2.363 -0.0577  1.0061 -0.0309
 6431TIP3    H240785   2.704   6.603   2.383  0.4049 -0.5318 -0.8283
 6432TIP3   OH240786   0.330   0.116  13.716  0.1580  0.2190 -0.6092
 6432TIP3    H140787   0.346   0.027  13.746  1.0019  0.3394 -0.6673
 6432TIP3    H240788   0.245   0.139  13.753 -0.1522 -0.6732 -0.7505
 6433TIP3   OH240789   0.145   0.909  15.842  0.0428 -0.1169 -0.2150
 6433TIP3    H140790   0.128   0.836  15.783  3.6227 -1.0404 -0.2800
 6433TIP3    H240791   0.218   0.880  15.896  0.7976  2.9820  0.6122
 6434TIP3   OH240792   6.831   3.243   2.978 -0.1979  0.2445 -0.6837
 6434TIP3    H140793   6.802   3.233   3.068 -0.0014 -0.1899 -0.6673
 6434TIP3    H240794   6.774   3.311   2.942 -1.8845 -1.2205 -0.9291
 6435TIP3   OH240795   2.194   4.128  12.413 -0.3340  0.0362  0.0188
 6435TIP3    H140796   2.205   4.189  12.486  0.1333 -0.1961  0.1452
 6435TIP3    H240797   2.253   4.056  12.434 -1.6412 -0.9632  0.4079
 6436TIP3   OH240798   1.528   4.532   5.566 -0.1721 -0.3183 -0.0908
 6436TIP3    H140799   1.545   4.438   5.568  0.7894 -0.1939 -1.2287
 6436TIP3    H240800   1.615   4.572   5.566 -0.5658  0.6386  1.8559
 6437TIP3   OH240801   0.535   1.675   1.307  0.0157 -0.1060  0.3577
 6437TIP3    H140802   0.507   1.766   1.296 -1.9565 -0.4749  1.7743
 6437TIP3    H240803   0.503   1.630   1.229  0.2091  0.2386  0.0770
 6438TIP3   OH240804   2.138   3.412  15.586 -0.4192  0.4111  0.1445
 6438TIP3    H140805   2.064   3.442  15.639 -0.5762 -2.2591  1.6414
 6438TIP3    H240806   2.193   3.363  15.647  1.9706  1.2550 -1.2142
 6439TIP3   OH240807   0.728   4.147  13.697 -0.2212 -0.7326  0.8377
 6439TIP3    H140808   0.814   4.145  13.739  0.9359 -0.8239 -1.3746
 6439TIP3    H240809   0.704   4.239  13.698  1.1635 -0.2967 -0.7902
 6440TIP3   OH240810   1.101   5.217  12.578 -0.3935  0.2356  0.0794
 6440TIP3    H140811   1.045   5.185  12.508 -0.2198 -1.5668  0.7095
 6440TIP3    H240812   1.168   5.150  12.588 -0.4671  0.3934  2.0235
 6441TIP3   OH240813   1.381   6.731   1.528 -0.2036 -0.4294 -0.4259
 6441TIP3    H140814   1.378   6.763   1.618  1.1058  0.4613 -0.6660
 6441TIP3    H240815   1.319   6.658   1.526 -1.2525  0.3944  0.8331
 6442TIP3   OH240816   6.489   6.092   1.133 -0.0063  0.3573  0.6824
 6442TIP3    H140817   6.527   6.083   1.221 -1.1901  0.6696  1.2467
 6442TIP3    H240818   6.414   6.150   1.145 -0.1462  0.4600 -0.5589
 6443TIP3   OH240819   6.786   6.155   4.372  0.3202 -0.3566  0.1120
 6443TIP3    H140820   6.857   6.093   4.388 -0.7028 -1.9990 -1.4101
 6443TIP3    H240821   6.761   6.186   4.459  3.0357  0.4928  0.6787
 6444TIP3   OH240822   5.845   6.122   5.336  0.1714 -0.1758  0.1673
 6444TIP3    H140823   5.930   6.084   5.312 -0.0809 -0.2612 -0.6411
 6444TIP3    H240824   5.860   6.216   5.339  0.3160 -0.1972  0.1010
 6445TIP3   OH240825   0.716   3.349  14.719 -0.0185  0.0878  0.4159
 6445TIP3    H140826   0.674   3.432  14.697  0.7594  0.1427 -1.0009
 6445TIP3    H240827   0.650   3.282  14.699 -0.0568  0.2757 -0.1061
 6446TIP3   OH240828   4.537   3.348  12.266  0.6155  0.4783 -0.1171
 6446TIP3    H140829   4.627   3.342  12.235  0.2114  0.0854 -1.2359
 6446TIP3    H240830   4.537   3.302  12.350  1.8704  2.1476  0.8682
 6447TIP3   OH240831   4.991   0.806  13.351  0.6821  0.2157  0.0391
 6447TIP3    H140832   4.907   0.849  13.367  0.1762  0.0716 -1.9825
 6447TIP3    H240833   4.986   0.725  13.401 -0.8909 -0.3460 -0.9352
 6448TIP3   OH240834   1.934   4.878  11.351 -0.3760 -0.1709 -0.2725
 6448TIP3    H140835   1.966   4.804  11.300 -3.0526 -2.8787  1.6162
 6448TIP3    H240836   1.854   4.905  11.306 -1.6749 -1.2947  1.2204
 6449TIP3   OH240837   3.379   3.035   1.819 -0.1971 -0.0203  0.1975
 6449TIP3    H140838   3.452   2.974   1.807  1.3960  1.6994  0.7536
 6449TIP3    H240839   3.317   3.012   1.748  1.7496 -0.2849 -1.5149
 6450TIP3   OH240840   0.087   2.142  16.749 -0.7584 -0.0055  0.3444
 6450TIP3    H140841   0.001   2.111  16.777 -0.0607 -0.9398  1.5437
 6450TIP3    H240842   0.088   2.234  16.776 -1.9374  0.4597 -1.0791
 6451TIP3   OH240843   6.241   3.260  15.894  0.2643  0.1787  0.5124
 6451TIP3    H140844   6.335   3.251  15.905  0.4595  0.1906 -0.9818
 6451TIP3    H240845   6.217   3.192  15.831 -0.8262 -0.1991  1.3115
 6452TIP3   OH240846   0.942   5.014   0.649  0.2303  0.3665 -0.3517
 6452TIP3    H140847   1.025   5.046   0.683  0.2216 -0.6659  0.6782
 6452TIP3    H240848   0.966   4.952   0.580  0.4492 -1.6957  1.4631
 6453TIP3   OH240849   4.935   1.789  11.395 -0.3278  0.6409  0.1104
 6453TIP3    H140850   4.874   1.736  11.447 -0.5155 -1.4469 -2.1001
 6453TIP3    H240851   4.988   1.726  11.348  1.3931  2.4525 -0.5285
 6454TIP3   OH240852   3.451   0.056   4.965  0.0986  0.0323 -0.0730
 6454TIP3    H140853   3.359   0.077   4.980  0.5930  1.4503  1.1943
 6454TIP3    H240854   3.463   0.065   4.871 -1.4506 -1.9585 -0.5301
 6455TIP3   OH240855   2.771   5.412   3.762  0.1406 -0.2694 -0.3063
 6455TIP3    H140856   2.792   5.427   3.670 -0.8719  0.9951 -0.3672
 6455TIP3    H240857   2.695   5.354   3.760 -1.0411  1.2130 -0.3727
 6456TIP3   OH240858   1.791   2.586   3.085  0.1193  0.0744  0.3989
 6456TIP3    H140859   1.714   2.634   3.114  0.3022 -0.1038  1.1845
 6456TIP3    H240860   1.860   2.611   3.147  1.1752  1.5559 -1.2366
 6457TIP3   OH240861   6.343   2.285  14.731 -0.8598  0.0896 -0.1389
 6457TIP3    H140862   6.334   2.266  14.637 -0.7979 -0.4768 -0.0316
 6457TIP3    H240863   6.426   2.332  14.737  0.3656 -1.9675 -0.0846
 6458TIP3   OH240864   4.282   3.648   0.117 -0.4817  0.5128  0.0154
 6458TIP3    H140865   4.329   3.567   0.100 -1.0178  0.0960  0.4658
 6458TIP3    H240866   4.289   3.698   0.036  0.3277  0.2552 -0.0762
 6459TIP3   OH240867   1.164   1.836   3.674  0.2652  0.4852  0.0155
 6459TIP3    H140868   1.174   1.748   3.637 -1.3106  0.7459 -1.1605
 6459TIP3    H240869   1.156   1.822   3.768  2.0951 -0.4166  0.0693
 6460TIP3   OH240870   2.026   3.534  14.457  0.1372 -0.1775  0.0608
 6460TIP3    H140871   1.974   3.516  14.536  0.9182 -0.9613  0.4163
 6460TIP3    H240872   2.074   3.452  14.441  0.2569  0.0893 -1.0321
 6461TIP3   OH240873   6.178   2.001   1.734  0.7112  0.6490  0.2830
 6461TIP3    H140874   6.228   2.078   1.709 -0.4352  1.2902 -0.1058
 6461TIP3    H240875   6.129   1.978   1.655 -0.1396  0.4694  0.8486
 6462TIP3   OH240876   3.430   0.322  15.543 -0.3556 -0.4042  0.2452
 6462TIP3    H140877   3.379   0.394  15.505 -2.1968 -1.7418  0.0815
 6462TIP3    H240878   3.499   0.305  15.478  1.1678  2.2263  1.0189
 6463TIP3   OH240879   4.940   5.132   3.296  0.0670 -0.2488  0.2095
 6463TIP3    H140880   4.956   5.066   3.228  0.7907  0.4272 -0.2865
 6463TIP3    H240881   4.879   5.089   3.356 -0.2618 -1.0113 -0.6394
 6464TIP3   OH240882   6.576   1.500   2.796 -0.4637 -0.5059 -0.4477
 6464TIP3    H140883   6.575   1.405   2.792  3.5622 -0.6766 -1.0656
 6464TIP3    H240884   6.583   1.528   2.704 -1.5243  0.4134 -0.2697
 6465TIP3   OH240885   1.100   4.136  11.922 -0.4110 -0.2478 -0.4329
 6465TIP3    H140886   1.085   4.117  12.015  1.6005  3.3877  0.8276
 6465TIP3    H240887   1.131   4.053  11.886  0.1335 -1.4451  2.4519
 6466TIP3   OH240888   3.999   0.150   1.193  0.1793  0.2961  0.1164
 6466TIP3    H140889   3.935   0.169   1.262 -1.3229 -1.4515 -0.7457
 6466TIP3    H240890   3.954   0.091   1.134  2.1083  0.2308 -1.3584
 6467TIP3   OH240891   4.760   6.348   4.841  0.7655  0.2075  0.4408
 6467TIP3    H140892   4.802   6.322   4.759  0.1112  1.1927 -0.2321
 6467TIP3    H240893   4.812   6.305   4.909  1.1953 -0.8021 -0.4924
 6468TIP3   OH240894   1.359   0.009  15.368 -0.2606 -0.0473  0.8626
 6468TIP3    H140895   1.392   0.098  15.363  1.4655 -0.6332  1.2504
 6468TIP3    H240896   1.394  -0.026  15.450 -0.4141 -1.2770  0.4354
 6469TIP3   OH240897   6.625   1.058   1.213  0.1761 -0.8980 -0.6528
 6469TIP3    H140898   6.571   1.050   1.292  1.4930 -1.6839  0.2014
 6469TIP3    H240899   6.662   1.146   1.217  0.8287 -1.1964  0.0075
 6470TIP3   OH240900   6.229   2.073   3.016 -0.0941  0.3894  0.2981
 6470TIP3    H140901   6.151   2.018   3.007 -0.1709  0.6323 -0.5591
 6470TIP3    H240902   6.255   2.062   3.108 -2.1148  1.6358  1.0615
 6471TIP3   OH240903   3.092   3.108  12.512 -0.1061 -0.4470  0.1286
 6471TIP3    H140904   3.041   3.039  12.469 -0.4440  0.5507 -1.1300
 6471TIP3    H240905   3.027   3.164  12.554  0.2076 -1.2866  1.8475
 6472TIP3   OH240906   5.621   6.003  11.156  0.4660  0.5352  0.2045
 6472TIP3    H140907   5.643   6.033  11.068  0.0083  2.5158  0.7200
 6472TIP3    H240908   5.692   6.036  11.211  0.7209 -0.6424  0.6260
 6473TIP3   OH240909   2.350   5.252  16.668  0.1226  0.3305 -0.9695
 6473TIP3    H140910   2.283   5.320  16.656  0.6019  1.7959  3.1016
 6473TIP3    H240911   2.310   5.189  16.729  1.2168 -0.7365 -1.3157
 6474TIP3   OH240912   1.274   5.077  15.713 -0.1631  0.6747  0.4204
 6474TIP3    H140913   1.253   5.112  15.800  1.3875 -0.1715  1.1713
 6474TIP3    H240914   1.273   4.982  15.723  0.9255  0.5679 -0.2389
 6475TIP3   OH240915   2.706   1.851  16.696 -0.1394  0.2059  0.7519
 6475TIP3    H140916   2.707   1.777  16.636  1.2848  1.0410 -0.2952
 6475TIP3    H240917   2.640   1.911  16.660  0.0439  0.2863  0.5506
 6476TIP3   OH240918   5.533   2.026   2.962  0.1412 -0.0772  0.4372
 6476TIP3    H140919   5.536   2.104   2.907 -0.1511  0.8679  1.7081
 6476TIP3    H240920   5.495   2.056   3.045  2.6247 -0.9224  2.0012
 6477TIP3   OH240921   3.967   3.971   0.542  0.0322 -0.3751  0.2769
 6477TIP3    H140922   4.026   3.915   0.592  0.1853 -1.6265 -1.2229
 6477TIP3    H240923   3.995   3.960   0.451 -1.6694  0.0306 -0.3337
 6478TIP3   OH240924   2.855   5.431  11.977  0.0079  0.0971  0.2764
 6478TIP3    H140925   2.814   5.426  11.890  0.1696 -2.4243  0.2763
 6478TIP3    H240926   2.792   5.387  12.035  1.0343 -0.4959  0.9605
 6479TIP3   OH240927   4.727   2.189  13.516  0.4061 -0.1687 -0.3576
 6479TIP3    H140928   4.669   2.116  13.538 -2.1429  1.2620 -1.8789
 6479TIP3    H240929   4.758   2.170  13.428 -0.7111  0.7516 -0.9881
 6480TIP3   OH240930   2.342   1.493   5.096 -0.0817 -0.5430  0.1391
 6480TIP3    H140931   2.263   1.547   5.092 -1.2366 -2.1453  0.5718
 6480TIP3    H240932   2.389   1.524   5.173 -0.0788  0.6406 -0.3065
 6481TIP3   OH240933   0.230   0.206   5.631  0.3831 -0.0018  0.1476
 6481TIP3    H140934   0.184   0.231   5.711 -0.5018  0.5756 -0.5272
 6481TIP3    H240935   0.312   0.254   5.634 -0.6864  1.9713 -0.4466
 6482TIP3   OH240936   2.925   1.320   3.774 -0.1805 -0.5248  0.0376
 6482TIP3    H140937   2.833   1.306   3.751  0.0639 -1.6229 -0.3696
 6482TIP3    H240938   2.959   1.231   3.789  0.7615 -0.1193  0.3950
 6483TIP3   OH240939   0.123   5.847  12.933  0.2354  0.5490  0.0689
 6483TIP3    H140940   0.102   5.769  12.984  0.4104  0.8587  0.6198
 6483TIP3    H240941   0.189   5.818  12.870  0.7601  0.3971  0.6872
 6484TIP3   OH240942   1.686   4.794  13.186  0.2956  0.4015  0.2508
 6484TIP3    H140943   1.766   4.758  13.225  2.2736  2.4579 -1.6429
 6484TIP3    H240944   1.716   4.867  13.132 -2.9018  1.2875 -0.5467
 6485TIP3   OH240945   3.051   5.018   4.071 -0.1885 -0.2643  0.6744
 6485TIP3    H140946   3.082   5.093   4.123 -1.1825  0.0476  0.8432
 6485TIP3    H240947   3.049   5.052   3.981 -1.1526  0.1011  0.8208
 6486TIP3   OH240948   5.059   4.520  15.657  0.2234  0.2689 -0.3497
 6486TIP3    H140949   5.124   4.590  15.663 -0.8144  1.3180 -0.8467
 6486TIP3    H240950   4.989   4.558  15.603 -0.2996 -1.2092 -0.7463
 6487TIP3   OH240951   5.843   3.479   0.519  0.3983 -0.1171 -0.3838
 6487TIP3    H140952   5.859   3.498   0.426  0.0612  2.4894  0.0318
 6487TIP3    H240953   5.929   3.482   0.559  0.2410  2.2967 -0.0866
 6488TIP3   OH240954   0.138   4.886   2.971 -0.4300 -0.1223  0.2886
 6488TIP3    H140955   0.198   4.961   2.981  0.4252 -0.8265  0.6227
 6488TIP3    H240956   0.190   4.820   2.925 -2.1142  0.5330 -2.8300
 6489TIP3   OH240957   3.352   2.530   3.798  0.0141  0.6280  0.7388
 6489TIP3    H140958   3.393   2.445   3.779  0.5914  0.4759  2.4778
 6489TIP3    H240959   3.377   2.585   3.723  0.9417 -0.3054  0.3252
 6490TIP3   OH240960   6.554   6.475  14.419  0.1194 -0.2588  0.0681
 6490TIP3    H140961   6.516   6.431  14.495 -2.6859  1.2714 -0.3254
 6490TIP3    H240962   6.607   6.545  14.456  0.2099 -0.5995  0.5997
 6491TIP3   OH240963   5.076   4.226   6.337  0.0324 -0.1397  0.0809
 6491TIP3    H140964   5.063   4.319   6.318  0.7188 -0.0879 -0.1853
 6491TIP3    H240965   5.127   4.224   6.418  0.5884 -0.2621 -0.2661
 6492TIP3   OH240966   1.443   3.002   0.507 -0.1498  0.1073 -0.0566
 6492TIP3    H140967   1.498   3.006   0.429 -0.0247 -0.8614 -0.0289
 6492TIP3    H240968   1.362   2.962   0.477 -0.6107  0.9284  0.0448
 6493TIP3   OH240969   4.024   6.315  16.685  0.2765 -0.2969  0.0256
 6493TIP3    H140970   4.058   6.229  16.709 -0.4868 -0.1775  1.6880
 6493TIP3    H240971   4.087   6.377  16.722  0.1684 -0.1257 -0.0758
 6494TIP3   OH240972   5.212   6.082   2.739 -0.0663 -0.5252  0.3594
 6494TIP3    H140973   5.271   6.157   2.738 -1.4392  0.7143 -2.9067
 6494TIP3    H240974   5.262   6.012   2.780  2.0912  1.5605  1.4830
 6495TIP3   OH240975   5.328   5.447  12.707  0.2859 -0.4393  0.1009
 6495TIP3    H140976   5.394   5.379  12.688 -1.5855 -2.2812 -0.1302
 6495TIP3    H240977   5.245   5.407  12.682 -1.0027  1.6402  0.8489
 6496TIP3   OH240978   1.644   0.898   4.532  0.4008  0.4696  0.1534
 6496TIP3    H140979   1.584   0.970   4.510 -0.3264  0.4791  1.9853
 6496TIP3    H240980   1.708   0.938   4.591  1.5819  0.1850 -0.8813
 6497TIP3   OH240981   1.228   4.116  13.802  0.0048  0.5997 -0.2129
 6497TIP3    H140982   1.204   4.024  13.794  0.6686  0.4623 -0.7176
 6497TIP3    H240983   1.205   4.155  13.718 -2.0545  1.3482  0.6366
 6498TIP3   OH240984   1.849   4.053  17.015  0.1944 -0.6517  0.1717
 6498TIP3    H140985   1.883   3.994  16.947  0.0120 -1.4074  0.7214
 6498TIP3    H240986   1.856   4.140  16.977 -1.2367 -1.1763 -1.3965
 6499TIP3   OH240987   4.195   2.768   1.625 -0.3292  0.0651  0.0411
 6499TIP3    H140988   4.252   2.822   1.681  1.3519 -1.4247 -0.1473
 6499TIP3    H240989   4.119   2.749   1.680  0.9806 -0.8163  1.6519
 6500TIP3   OH240990   2.369   3.822  15.309  0.6781  0.6625  0.3871
 6500TIP3    H140991   2.364   3.868  15.393 -0.8343 -0.6809  1.0872
 6500TIP3    H240992   2.279   3.795  15.290  0.7739  1.8650 -2.2487
 6501TIP3   OH240993   0.630   2.650  14.235  0.3094 -0.2243 -0.3490
 6501TIP3    H140994   0.662   2.658  14.145  0.0766  1.8344 -0.3071
 6501TIP3    H240995   0.561   2.716  14.242  0.7197  0.0806  1.4916
 6502TIP3   OH240996   1.006   0.370   0.905  0.4704 -0.5191 -0.0441
 6502TIP3    H140997   0.994   0.319   0.825 -1.6901  1.0469 -0.8124
 6502TIP3    H240998   0.926   0.354   0.956 -0.2376  1.8899 -0.2596
 6503TIP3   OH240999   0.604   5.737   2.811 -0.1563 -0.2945 -0.1082
 6503TIP3    H141000   0.581   5.680   2.738 -0.5775  2.0793 -1.9635
 6503TIP3    H241001   0.693   5.767   2.790 -1.1251  2.1846 -0.9245
 6504TIP3   OH241002   5.240   3.648   5.802 -0.3132 -0.2192  0.8448
 6504TIP3    H141003   5.153   3.641   5.840 -0.5774  0.9253  0.4706
 6504TIP3    H241004   5.258   3.742   5.799  0.1525 -0.3378 -0.8200
 6505TIP3   OH241005   4.399   4.203  15.155 -0.6219  0.0171  0.5816
 6505TIP3    H141006   4.391   4.291  15.118  0.1320  1.0675  2.7487
 6505TIP3    H241007   4.316   4.160  15.133  0.0156  0.2395 -2.8376
 6506TIP3   OH241008   3.185   2.923  16.571  0.3865  0.3953  0.0090
 6506TIP3    H141009   3.090   2.923  16.563  0.3700 -1.1168 -0.2312
 6506TIP3    H241010   3.204   2.845  16.625  1.5840 -0.6527 -1.8209
 6507TIP3   OH241011   4.181   5.412   3.495  0.0285 -0.3819  0.1884
 6507TIP3    H141012   4.240   5.341   3.518  0.0510 -0.5063 -0.2348
 6507TIP3    H241013   4.151   5.390   3.406  0.3700  0.3523 -0.1149
 6508TIP3   OH241014   3.780   3.232   2.879 -0.3870 -0.3101  0.1985
 6508TIP3    H141015   3.839   3.196   2.946  0.5227 -2.4085 -1.6047
 6508TIP3    H241016   3.708   3.170   2.876 -1.3963  0.8153  0.5128
 6509TIP3   OH241017   2.590   6.373  11.529  0.2350  0.1603 -0.0489
 6509TIP3    H141018   2.626   6.462  11.529  1.5079 -0.3413  0.0516
 6509TIP3    H241019   2.547   6.365  11.444  0.3720  0.7696 -0.1845
 6510TIP3   OH241020   2.215   5.471   4.657 -0.6034  0.5059  0.5939
 6510TIP3    H141021   2.138   5.479   4.600  0.1491  2.2018 -0.2705
 6510TIP3    H241022   2.289   5.492   4.599  0.6557 -2.1210  1.1281
 6511TIP3   OH241023   2.467   5.311  12.301  0.2161  0.0670 -0.3936
 6511TIP3    H141024   2.437   5.402  12.300  1.6660  0.5770 -1.0223
 6511TIP3    H241025   2.489   5.293  12.392  3.6347  1.7219 -0.7173
 6512TIP3   OH241026   3.436   2.583   6.157 -0.7008 -0.7455  0.0352
 6512TIP3    H141027   3.460   2.590   6.065 -0.7289  0.1909  0.0827
 6512TIP3    H241028   3.519   2.582   6.204 -0.5797 -3.5042 -0.0785
 6513TIP3   OH241029   1.089   1.134  13.935  0.3010  0.2126 -0.0294
 6513TIP3    H141030   1.079   1.191  13.859  0.6031  0.2511 -0.0378
 6513TIP3    H241031   1.118   1.192  14.005  1.6620 -0.1131 -0.3070
 6514TIP3   OH241032   4.005   1.092   1.393  0.1832  0.0425 -0.1318
 6514TIP3    H141033   4.098   1.112   1.379  0.0662  0.9424  0.3318
 6514TIP3    H241034   3.960   1.137   1.321 -0.0517  1.2384  0.7314
 6515TIP3   OH241035   6.578   1.822  11.132  0.3798  0.4811  0.0706
 6515TIP3    H141036   6.656   1.768  11.144  0.8422  0.8432 -1.1655
 6515TIP3    H241037   6.505   1.762  11.144  0.7855  0.3002  2.0923
 6516TIP3   OH241038   0.032   2.848   3.261 -0.5794 -0.1266  0.4269
 6516TIP3    H141039  -0.015   2.915   3.210 -0.3585 -0.1602  0.1723
 6516TIP3    H241040   0.042   2.886   3.348  0.9774  0.8776 -0.1463
 6517TIP3   OH241041   2.863   4.584  16.284  0.8248  0.2227  0.2298
 6517TIP3    H141042   2.769   4.585  16.268  0.5560  1.3768  1.6578
 6517TIP3    H241043   2.876   4.517  16.351  0.9962  0.2099  0.1850
 6518TIP3   OH241044   4.085   0.115  11.391 -0.2759  0.1767 -0.0974
 6518TIP3    H141045   4.026   0.118  11.467  0.6245 -0.9417  0.6962
 6518TIP3    H241046   4.131   0.199  11.393 -0.6890  0.3987  0.2386
 6519TIP3   OH241047   1.991   2.780  13.033 -0.0924 -0.0361  0.2399
 6519TIP3    H141048   1.977   2.749  12.943 -2.5955  0.9045  0.2204
 6519TIP3    H241049   2.076   2.823  13.031 -0.9359  1.7431 -2.2407
 6520TIP3   OH241050   5.279   2.173  15.331  0.0531  0.1388  0.0859
 6520TIP3    H141051   5.292   2.229  15.407  1.2052  0.7500 -0.5349
 6520TIP3    H241052   5.289   2.084  15.365 -1.0276  0.3238  0.9313
 6521TIP3   OH241053   3.133   1.663  13.904 -0.7081 -0.1126 -0.1148
 6521TIP3    H141054   3.106   1.572  13.921  1.4535 -0.6997  0.4378
 6521TIP3    H241055   3.133   1.704  13.991 -0.7315  0.1381 -0.2330
 6522TIP3   OH241056   2.052   3.012   0.141  0.2143 -0.3382 -0.0272
 6522TIP3    H141057   2.033   2.980   0.229  0.6843  0.9639  0.5720
 6522TIP3    H241058   1.988   3.082   0.127  0.9837  0.3469 -0.1807
 6523TIP3   OH241059   2.943   1.898  13.437 -0.2570 -0.5498  0.3601
 6523TIP3    H141060   2.876   1.852  13.387 -0.4868 -0.3782  0.5136
 6523TIP3    H241061   3.013   1.833  13.447 -0.6224 -0.8998  0.6629
 6524TIP3   OH241062   0.775   5.251   1.667  0.4309 -0.4748 -0.0163
 6524TIP3    H141063   0.819   5.231   1.750 -0.5582 -1.0452  0.3777
 6524TIP3    H241064   0.731   5.170   1.642 -1.9882  0.5507  0.5987
 6525TIP3   OH241065   5.982   3.895  14.838 -0.0618 -0.0350 -0.2417
 6525TIP3    H141066   5.893   3.887  14.803 -0.1189 -1.7085  0.2225
 6525TIP3    H241067   5.990   3.988  14.862 -2.1718 -0.0989  0.9598
 6526TIP3   OH241068   5.806   4.394  11.314  0.0623  0.3396  0.5734
 6526TIP3    H141069   5.794   4.299  11.316  0.0647  0.3462  1.5000
 6526TIP3    H241070   5.743   4.425  11.249  0.3672 -0.3363 -0.0493
 6527TIP3   OH241071   5.654   5.330  14.971 -0.2583  0.4748  0.2265
 6527TIP3    H141072   5.729   5.278  14.941  0.4242  2.3474 -1.5323
 6527TIP3    H241073   5.676   5.353  15.061 -0.6449 -2.2733  1.1212
 6528TIP3   OH241074   3.899   3.907  13.159  0.2284  0.2439 -0.1557
 6528TIP3    H141075   3.974   3.876  13.108  0.6198  1.5617 -0.4115
 6528TIP3    H241076   3.859   3.974  13.104  1.4444  2.6934  1.7379
 6529TIP3   OH241077   5.780   4.997   5.422 -0.6776  0.1395 -0.5504
 6529TIP3    H141078   5.810   5.085   5.399 -0.8774  0.1022 -0.9623
 6529TIP3    H241079   5.794   4.991   5.517  2.8922 -0.7086 -0.9660
 6530TIP3   OH241080   0.819   4.431   6.645 -0.0167  0.4205 -0.7569
 6530TIP3    H141081   0.874   4.353   6.645  0.4588  0.7423 -1.7973
 6530TIP3    H241082   0.881   4.504   6.649 -0.3498  0.7910 -2.0146
 6531TIP3   OH241083   0.822   4.314  14.100 -0.0554  0.3669 -0.2988
 6531TIP3    H141084   0.727   4.303  14.107 -0.1649  0.0080 -1.9322
 6531TIP3    H241085   0.833   4.403  14.066  0.2673  0.8612  1.0558
 6532TIP3   OH241086   0.230   2.116   0.798  0.0674  0.4166  0.1685
 6532TIP3    H141087   0.273   2.087   0.879  0.0785 -1.9930 -0.6244
 6532TIP3    H241088   0.216   2.035   0.748 -0.7035  1.7400 -1.8780
 6533TIP3   OH241089   0.801   0.035  15.503  0.6150  0.1681  0.3095
 6533TIP3    H141090   0.864   0.003  15.568 -1.5019 -0.2457  2.2530
 6533TIP3    H241091   0.792   0.128  15.522  1.0536  0.3647 -0.3815
 6534TIP3   OH241092   5.357   0.066  12.181 -0.1520 -0.2884 -0.3504
 6534TIP3    H141093   5.447   0.047  12.205 -0.8973 -2.0973  1.3658
 6534TIP3    H241094   5.362   0.103  12.093  2.1689 -1.6684 -0.8751
 6535TIP3   OH241095   4.020   5.002  13.856 -0.5903 -0.3360 -0.2211
 6535TIP3    H141096   3.982   4.983  13.771 -0.6082 -2.7154  0.2496
 6535TIP3    H241097   4.115   4.998  13.842 -0.5853 -1.7689  0.0121
 6536TIP3   OH241098   5.301   1.832  16.985 -0.1486  0.4090 -0.3587
 6536TIP3    H141099   5.300   1.858  16.893 -0.9993 -2.1303 -1.1573
 6536TIP3    H241100   5.323   1.739  16.983 -0.0085  0.3410  2.0390
 6537TIP3   OH241101   2.129   4.725  15.444  0.0125  0.2102 -0.0881
 6537TIP3    H141102   2.117   4.659  15.513  0.0973 -0.9517 -1.1575
 6537TIP3    H241103   2.204   4.777  15.473 -0.8259  0.6543  1.3826
 6538TIP3   OH241104   6.703   0.469   2.870  0.7673 -0.8024  0.1353
 6538TIP3    H141105   6.797   0.490   2.868  0.2439  2.0385  0.4244
 6538TIP3    H241106   6.666   0.524   2.801 -0.9735  0.1477  1.7477
 6539TIP3   OH241107   3.916   3.640  12.255  0.1184 -0.0261 -0.1753
 6539TIP3    H141108   3.971   3.716  12.272 -0.2431  0.2033  0.0029
 6539TIP3    H241109   3.849   3.644  12.324  0.2434 -0.6472 -0.0105
 6540TIP3   OH241110   3.210   2.629  15.244 -0.0328  0.1958 -0.0601
 6540TIP3    H141111   3.197   2.540  15.276 -1.5607  0.6418  0.6256
 6540TIP3    H241112   3.122   2.662  15.226  0.4573  1.7749  0.2596
 6541TIP3   OH241113   5.935   3.164   3.539 -0.3754 -0.0126 -0.1021
 6541TIP3    H141114   6.012   3.107   3.534  0.4707  0.9275  1.3752
 6541TIP3    H241115   5.954   3.235   3.478 -0.4827 -0.2668 -0.4267
 6542TIP3   OH241116   1.125   6.665  10.778 -0.2655  0.3015  0.0072
 6542TIP3    H141117   1.169   6.665  10.693 -1.3086  0.4538 -0.5508
 6542TIP3    H241118   1.186   6.712  10.836  0.1065  0.9082 -0.8459
 6543TIP3   OH241119   6.504   4.029   1.807 -0.2822 -0.4007 -0.4216
 6543TIP3    H141120   6.504   3.948   1.858 -0.6304  0.4958  1.0550
 6543TIP3    H241121   6.593   4.035   1.773 -0.0658 -1.0835 -0.0051
 6544TIP3   OH241122   5.603   4.507   0.963 -0.2381  0.6320  0.1946
 6544TIP3    H141123   5.685   4.531   0.920  0.3237 -0.6944  0.4710
 6544TIP3    H241124   5.628   4.440   1.027 -1.6538 -0.5122 -0.3812
 6545TIP3   OH241125   6.570   3.962   0.549  0.4585  0.0072  0.0252
 6545TIP3    H141126   6.502   3.955   0.482 -0.9199 -1.5350  1.5104
 6545TIP3    H241127   6.581   4.056   0.562  1.2119  0.3701 -2.7512
 6546TIP3   OH241128   6.347   5.715   6.478 -0.0905  0.2073 -0.2798
 6546TIP3    H141129   6.319   5.741   6.391 -1.4134  1.2421  0.4233
 6546TIP3    H241130   6.270   5.728   6.533  0.6287 -0.6945  1.0002
 6547TIP3   OH241131   2.525   0.559   2.235  0.3196  0.1433  0.1494
 6547TIP3    H141132   2.526   0.654   2.221 -0.4367  0.0792 -0.3997
 6547TIP3    H241133   2.493   0.548   2.325  0.7145  0.4149  0.3256
 6548TIP3   OH241134   2.600   4.564   5.915 -0.2355  0.0114 -0.1703
 6548TIP3    H141135   2.549   4.644   5.915  0.7242  0.7562 -3.1871
 6548TIP3    H241136   2.689   4.591   5.935 -0.1667 -0.5369  0.3012
 6549TIP3   OH241137   0.265   2.614   4.126  0.2235 -0.0120  0.7708
 6549TIP3    H141138   0.182   2.596   4.083 -0.4668  1.9098  1.1872
 6549TIP3    H241139   0.328   2.625   4.054 -0.8012  2.6241  0.1678
 6550TIP3   OH241140   2.215   3.336   6.149 -0.3878 -0.0997  0.1198
 6550TIP3    H141141   2.273   3.407   6.175 -0.7693  0.6224 -0.9739
 6550TIP3    H241142   2.262   3.257   6.176  2.0194  0.3272 -2.3447
 6551TIP3   OH241143   3.501   2.417   0.087 -0.2046  0.1172  0.2886
 6551TIP3    H141144   3.514   2.379   0.174 -1.4481 -0.0247  0.4281
 6551TIP3    H241145   3.514   2.343   0.027  0.7579  0.2386  0.3416
 6552TIP3   OH241146   2.728   1.143  16.791 -0.6049  0.3070  0.2899
 6552TIP3    H141147   2.723   1.134  16.886 -0.1430 -1.5681  0.1687
 6552TIP3    H241148   2.672   1.073  16.757  0.6503 -0.1893 -0.8227
 6553TIP3   OH241149   6.715   1.350  12.850 -0.4384  0.0145 -0.2044
 6553TIP3    H141150   6.803   1.358  12.812 -0.3046 -1.2245 -0.2022
 6553TIP3    H241151   6.730   1.325  12.942 -0.7631 -1.6147 -0.5524
 6554TIP3   OH241152   6.335   3.482   1.992  0.3871  0.7519  0.2113
 6554TIP3    H141153   6.384   3.491   1.910  0.9052  0.3647  0.4698
 6554TIP3    H241154   6.277   3.407   1.977  0.0211  1.0792 -0.0216
 6555TIP3   OH241155   1.097   3.012  14.586 -0.5206 -0.2446  0.1710
 6555TIP3    H141156   1.178   3.010  14.637 -0.0940  0.2819 -0.4569
 6555TIP3    H241157   1.030   2.978  14.645 -0.1760  0.9481  1.3090
 6556TIP3   OH241158   2.747   4.752  15.221  0.4314 -0.3532 -0.3979
 6556TIP3    H141159   2.690   4.763  15.296  0.6577 -1.8536  0.0164
 6556TIP3    H241160   2.791   4.668  15.235  1.1798 -0.2235 -1.7353
 6557TIP3   OH241161   3.437   2.125  12.214 -0.1888 -0.5516  0.2881
 6557TIP3    H141162   3.522   2.121  12.171  0.0129 -2.1701  0.7969
 6557TIP3    H241163   3.443   2.063  12.286 -1.9932 -1.1289 -0.0129
 6558TIP3   OH241164   2.044   3.112   3.689  0.2936 -0.9841  0.2610
 6558TIP3    H141165   2.137   3.091   3.688  0.2410 -1.1827 -0.5942
 6558TIP3    H241166   2.035   3.185   3.627 -0.2819 -1.6926 -0.5082
 6559TIP3   OH241167   1.948   0.779   4.656 -0.3376 -0.0544 -0.1611
 6559TIP3    H141168   1.968   0.751   4.566 -0.7364  0.3922 -0.3990
 6559TIP3    H241169   2.021   0.838   4.678 -0.7894  0.6987 -0.6116
 6560TIP3   OH241170   4.126   5.957   5.517 -0.6275  0.1669  0.2263
 6560TIP3    H141171   4.136   5.864   5.540 -3.1471  0.0318  1.0318
 6560TIP3    H241172   4.216   5.990   5.514  0.4182 -2.4502 -0.8301
 6561TIP3   OH241173   6.286   5.935  13.087  0.3152 -0.3539  0.1072
 6561TIP3    H141174   6.340   5.909  13.162  0.5427 -1.3700 -0.3866
 6561TIP3    H241175   6.196   5.936  13.122  0.3544 -1.3610  0.2749
 6562TIP3   OH241176   1.440   3.704  16.840  0.0520 -0.3383  0.1600
 6562TIP3    H141177   1.445   3.797  16.819 -0.5419 -0.2704  0.3254
 6562TIP3    H241178   1.529   3.682  16.869 -0.2000  0.5808  1.7864
 6563TIP3   OH241179   4.868   2.537   5.151  0.3386 -0.3025  0.5645
 6563TIP3    H141180   4.810   2.482   5.099 -0.6182 -0.1510  1.4394
 6563TIP3    H241181   4.845   2.627   5.126 -0.8409 -0.1892  1.9349
 6564TIP3   OH241182   5.829   5.569  15.104 -0.0142 -0.2290  0.3062
 6564TIP3    H141183   5.773   5.534  15.173 -0.8699 -1.2771 -0.8927
 6564TIP3    H241184   5.887   5.630  15.150 -1.5776  0.2776  1.7135
 6565TIP3   OH241185   6.681   5.805  16.867 -0.0782  0.0730  0.1792
 6565TIP3    H141186   6.655   5.734  16.925  0.5473 -1.8500 -1.7583
 6565TIP3    H241187   6.731   5.865  16.922  0.7804 -1.8394  1.5660
 6566TIP3   OH241188   1.689   1.797   1.420 -0.5266 -0.0706 -0.1400
 6566TIP3    H141189   1.637   1.828   1.346 -0.1496  2.7470  0.6412
 6566TIP3    H241190   1.677   1.703   1.420 -2.8189  0.1206 -2.0696
 6567TIP3   OH241191   4.719   5.288  15.656 -0.3069  0.5165 -0.3392
 6567TIP3    H141192   4.672   5.370  15.642  0.1114  0.4711 -2.3807
 6567TIP3    H241193   4.787   5.310  15.719 -2.1428  0.9060  1.6420
 6568TIP3   OH241194   0.151   4.794  13.982  0.2106 -0.2097  1.4177
 6568TIP3    H141195   0.229   4.763  14.027  0.4929 -1.6584  0.0273
 6568TIP3    H241196   0.093   4.718  13.978 -0.0885  0.0618 -0.0130
 6569TIP3   OH241197   1.299   6.077   0.308 -0.2639  0.4415 -0.1339
 6569TIP3    H141198   1.215   6.095   0.267 -0.0641  1.3171 -0.1860
 6569TIP3    H241199   1.278   6.028   0.387 -0.8145  0.5629 -0.2040
 6570TIP3   OH241200   6.775   4.956   5.591 -0.1704  0.1118 -0.5128
 6570TIP3    H141201   6.800   5.003   5.512 -1.2573  1.7035  0.0503
 6570TIP3    H241202   6.688   4.920   5.571 -0.7171  1.0332  0.1374
 6571TIP3   OH241203   5.767   0.336  12.201  0.3939 -0.1580  0.3644
 6571TIP3    H141204   5.711   0.406  12.166  1.2046  0.5472  0.4442
 6571TIP3    H241205   5.843   0.335  12.143  0.8058 -0.3609  0.8982
 6572TIP3   OH241206   5.259   5.461   1.467  0.1598  0.1351  0.1081
 6572TIP3    H141207   5.259   5.398   1.539 -0.2548  0.9583  0.8434
 6572TIP3    H241208   5.229   5.543   1.506  2.8144  1.4027 -0.3081
 6573TIP3   OH241209   6.620   6.359  11.512  0.4410  0.5651  0.0229
 6573TIP3    H141210   6.532   6.369  11.548  0.1011 -2.1645  0.1900
 6573TIP3    H241211   6.674   6.419  11.563 -1.0029  0.8795  1.2555
 6574TIP3   OH241212   2.473   4.864   3.152  0.0662 -0.3902 -0.0483
 6574TIP3    H141213   2.383   4.889   3.172 -0.1683 -0.5710 -0.8386
 6574TIP3    H241214   2.473   4.851   3.057  1.2755  1.0397 -0.2753
 6575TIP3   OH241215   4.139   1.571   4.711 -0.3750 -0.5851  0.7733
 6575TIP3    H141216   4.118   1.522   4.631 -1.6821 -0.8046  1.2295
 6575TIP3    H241217   4.189   1.646   4.680 -1.6879 -0.1359 -0.3933
 6576TIP3   OH241218   0.893   3.780   1.893  0.4110  0.3336  0.6078
 6576TIP3    H141219   0.867   3.710   1.834 -0.0781 -1.2305  2.5590
 6576TIP3    H241220   0.912   3.855   1.836 -0.4439 -0.9441 -1.4401
 6577TIP3   OH241221   5.756   4.551   6.116 -0.2668  0.0978 -0.5209
 6577TIP3    H141222   5.809   4.576   6.191  1.1013  0.2365 -1.4821
 6577TIP3    H241223   5.689   4.619   6.110  0.2666  0.6791 -0.0429
 6578TIP3   OH241224   2.228   1.119  16.898  0.3494 -0.8716 -0.2275
 6578TIP3    H141225   2.272   1.054  16.953  0.9177 -1.5927 -1.5113
 6578TIP3    H241226   2.146   1.137  16.944  1.8896  0.5073  2.2386
 6579TIP3   OH241227   3.775   5.607   3.407  0.2037 -0.6358  0.0234
 6579TIP3    H141228   3.709   5.554   3.452 -0.1593 -0.3294 -0.1474
 6579TIP3    H241229   3.859   5.572   3.438 -0.0391 -0.7975  0.5132
 6580TIP3   OH241230   6.280   3.318   6.367 -0.2625 -0.1876 -0.0023
 6580TIP3    H141231   6.293   3.394   6.424  3.9632  1.7059 -2.9123
 6580TIP3    H241232   6.336   3.250   6.404 -1.1874 -0.6341  0.6015
 6581TIP3   OH241233   2.056   3.402   1.838 -0.2732 -0.1225 -0.0291
 6581TIP3    H141234   2.133   3.411   1.894 -0.8935 -1.8014  1.1797
 6581TIP3    H241235   2.091   3.408   1.749  1.1171  0.0996  0.5049
 6582TIP3   OH241236   1.086   2.493  13.663  0.3561 -0.2634 -0.5492
 6582TIP3    H141237   1.100   2.506  13.757  0.7149 -1.8889 -0.3565
 6582TIP3    H241238   1.046   2.575  13.634 -0.1619  0.1131  1.1004
 6583TIP3   OH241239   4.522   5.779   3.839 -0.2445  0.0549  0.1556
 6583TIP3    H141240   4.492   5.803   3.927 -0.3350  0.8371 -0.0831
 6583TIP3    H241241   4.545   5.862   3.798 -1.4645 -0.1692 -1.0293
 6584TIP3   OH241242   1.156   4.435  14.693  0.6089 -0.0172  0.6972
 6584TIP3    H141243   1.071   4.413  14.656  0.1784  0.9809  1.0646
 6584TIP3    H241244   1.217   4.374  14.652 -0.5325 -1.9145  1.7044
 6585TIP3   OH241245   1.587   5.855  11.214  0.0237 -0.2460  0.0261
 6585TIP3    H141246   1.577   5.774  11.164 -1.6171 -0.3899  0.5531
 6585TIP3    H241247   1.532   5.919  11.168  1.1730  0.5555 -0.2881
 6586TIP3   OH241248   3.404   6.029  11.556  0.8692  0.3449 -0.0688
 6586TIP3    H141249   3.497   6.041  11.576  0.9075 -0.4323  0.2457
 6586TIP3    H241250   3.360   6.041  11.640  0.9298 -1.8261  0.3294
 6587TIP3   OH241251   3.199   5.179   1.658 -0.4056  0.0470  1.0774
 6587TIP3    H141252   3.270   5.178   1.722 -2.1013 -0.9894  3.0521
 6587TIP3    H241253   3.130   5.231   1.699 -0.7128  1.3306 -0.9478
 6588TIP3   OH241254   4.933   4.512  12.513  0.2060  0.1422  0.2989
 6588TIP3    H141255   4.914   4.490  12.604 -0.2314  0.1527  0.2144
 6588TIP3    H241256   5.003   4.452  12.488  0.3850  0.1952  0.6666
 6589TIP3   OH241257   2.893   4.654   5.309  0.0602  0.0828  0.0200
 6589TIP3    H141258   2.812   4.705   5.310 -0.6666 -1.0217 -0.4268
 6589TIP3    H241259   2.961   4.716   5.282 -0.9863  0.5528 -1.6489
 6590TIP3   OH241260   2.177   2.820   5.067  0.0864 -0.1165 -0.2733
 6590TIP3    H141261   2.238   2.888   5.040  0.5763 -0.1563  0.6922
 6590TIP3    H241262   2.121   2.806   4.990  1.2599 -0.0619 -1.1652
 6591TIP3   OH241263   4.868   0.427   2.553  0.0713  0.4944 -0.1200
 6591TIP3    H141264   4.935   0.391   2.495  0.7196  0.8331  0.3978
 6591TIP3    H241265   4.912   0.500   2.597 -0.5477  0.5234  0.4594
 6592TIP3   OH241266   2.852   0.802   0.879 -0.2157 -0.6004 -0.6562
 6592TIP3    H141267   2.779   0.746   0.852  0.2305 -1.5706  0.0934
 6592TIP3    H241268   2.870   0.776   0.969 -0.2139  1.0121 -0.1610
 6593TIP3   OH241269   3.316   6.560   2.494  0.0548 -0.3320 -0.8401
 6593TIP3    H141270   3.301   6.470   2.525 -0.6879 -0.3544 -1.2450
 6593TIP3    H241271   3.233   6.586   2.456  0.8055 -0.1444 -2.4233
 6594TIP3   OH241272   5.781   0.880   1.988  0.8616 -0.2892 -0.0894
 6594TIP3    H141273   5.786   0.794   1.946  0.7635 -0.0400 -0.6132
 6594TIP3    H241274   5.846   0.933   1.942  2.3750 -0.6293  1.5379
 6595TIP3   OH241275   0.114   2.384   1.499  0.0139  0.7780 -0.4143
 6595TIP3    H141276   0.152   2.438   1.430 -2.7769  2.2134 -0.9778
 6595TIP3    H241277   0.022   2.412   1.503 -1.2546 -2.9908  0.2437
 6596TIP3   OH241278   1.239   5.720   5.852  0.6089  0.8340 -0.2266
 6596TIP3    H141279   1.315   5.772   5.878 -0.1575  1.1293  1.6226
 6596TIP3    H241280   1.184   5.780   5.803  0.7650  1.1340 -0.0389
 6597TIP3   OH241281   4.760   3.668   5.741  0.5367  0.3685  0.1021
 6597TIP3    H141282   4.763   3.725   5.818  1.6633  0.2940  0.1306
 6597TIP3    H241283   4.786   3.725   5.668 -0.3140  0.3864 -0.1945
 6598TIP3   OH241284   5.488   3.540   2.262 -0.2470  0.0823  0.5795
 6598TIP3    H141285   5.557   3.474   2.270 -1.0221 -0.6263  1.7813
 6598TIP3    H241286   5.509   3.605   2.330 -0.9726 -0.3531  1.2326
 6599TIP3   OH241287   1.534   6.296  10.384 -0.2662 -0.1597 -0.0711
 6599TIP3    H141288   1.487   6.355  10.442  1.4474  0.0071  1.2173
 6599TIP3    H241289   1.564   6.225  10.440  1.2556 -0.1027 -0.7631
 6600TIP3   OH241290   0.803   2.690  15.516  0.3949  0.0420  0.0875
 6600TIP3    H141291   0.799   2.768  15.461  1.8062 -0.7475 -1.2161
 6600TIP3    H241292   0.724   2.694  15.570 -0.7221  1.1872 -1.5548
 6601TIP3   OH241293   0.371   3.511   4.223 -0.3290 -0.4324  0.1879
 6601TIP3    H141294   0.335   3.586   4.271 -1.0872 -1.2553  0.9539
 6601TIP3    H241295   0.358   3.533   4.131  0.2466  0.7505  0.3731
 6602TIP3   OH241296   1.259   6.662   6.061 -0.3041  0.1940  0.2571
 6602TIP3    H141297   1.186   6.723   6.048 -0.8430 -0.0787  1.8430
 6602TIP3    H241298   1.279   6.668   6.154 -0.5926 -2.2997  0.5491
 6603TIP3   OH241299   6.294   3.898  13.755  0.4763  0.2113  0.1596
 6603TIP3    H141300   6.230   3.936  13.816  0.4598 -1.3264  1.1474
 6603TIP3    H241301   6.378   3.904  13.800  0.9551  1.5557 -0.8346
 6604TIP3   OH241302   4.667   2.714  12.438 -0.0086  0.6455 -0.3414
 6604TIP3    H141303   4.619   2.666  12.506  1.0293 -0.1281 -0.1278
 6604TIP3    H241304   4.600   2.734  12.372 -0.6897 -0.1218  0.0892
 6605TIP3   OH241305   0.344   3.536   0.563  0.5629 -0.0738 -0.0026
 6605TIP3    H141306   0.396   3.578   0.494 -0.2066  0.7918 -0.0847
 6605TIP3    H241307   0.284   3.605   0.593 -0.1460 -0.8729  0.4746
 6606TIP3   OH241308   6.803   0.361   3.369 -0.6745 -0.1744  0.3693
 6606TIP3    H141309   6.715   0.324   3.358  0.2334 -2.7555  1.1491
 6606TIP3    H241310   6.826   0.341   3.459  0.6747  0.6133  0.2210
 6607TIP3   OH241311   1.471   4.715   1.597  0.1835  0.2700 -0.0135
 6607TIP3    H141312   1.469   4.804   1.631 -1.2716  0.5548 -0.7642
 6607TIP3    H241313   1.442   4.724   1.506  1.0473 -0.8371 -0.4131
 6608TIP3   OH241314   1.063   0.266  15.360  0.3452 -0.3381  0.2016
 6608TIP3    H141315   0.970   0.274  15.339 -0.3801 -3.0751  1.8146
 6608TIP3    H241316   1.108   0.311  15.289 -2.1636  0.0902 -1.2350
 6609TIP3   OH241317   2.495   5.503  13.062  0.5039 -0.1108  0.3269
 6609TIP3    H141318   2.551   5.513  13.138 -1.1144 -0.0707  1.5555
 6609TIP3    H241319   2.427   5.570  13.073 -0.0841 -0.4827 -0.8619
 6610TIP3   OH241320   3.483   1.256  13.332  0.0609  0.0107 -0.2433
 6610TIP3    H141321   3.517   1.196  13.398  1.0823  0.4710 -0.3420
 6610TIP3    H241322   3.436   1.199  13.270  1.7767 -0.8431 -0.8359
 6611TIP3   OH241323   1.772   1.207  14.013  0.0487 -0.9342 -0.1277
 6611TIP3    H141324   1.684   1.180  14.040 -0.7705  0.1361 -1.5804
 6611TIP3    H241325   1.810   1.128  13.974 -0.7598 -1.0794 -0.6409
 6612TIP3   OH241326   3.724   2.746   4.655 -0.4388 -0.6826  0.4338
 6612TIP3    H141327   3.815   2.727   4.675 -0.1844 -1.1966 -1.0639
 6612TIP3    H241328   3.728   2.805   4.580 -1.3302  0.6320  1.3670
 6613TIP3   OH241329   2.706   6.164  13.548 -0.8341  0.0017 -0.5848
 6613TIP3    H141330   2.717   6.070  13.561 -0.4057  0.1435  0.1324
 6613TIP3    H241331   2.625   6.186  13.594  0.1536  0.3264  1.1047
 6614TIP3   OH241332   1.754   2.805   0.214 -0.3364 -0.5159 -0.3980
 6614TIP3    H141333   1.729   2.752   0.138 -2.1780 -1.2494  0.6478
 6614TIP3    H241334   1.736   2.749   0.290 -1.2445  1.1559  0.7025
 6615TIP3   OH241335   0.277   3.216  16.464  0.1433  0.1801  0.5102
 6615TIP3    H141336   0.320   3.156  16.403 -0.9095 -2.8023  2.4679
 6615TIP3    H241337   0.203   3.251  16.415  0.6690 -0.2675 -0.6495
 6616TIP3   OH241338   3.414   0.880  14.062  0.1377  0.1475  0.5357
 6616TIP3    H141339   3.360   0.837  14.129 -0.5747  1.1702  0.6495
 6616TIP3    H241340   3.480   0.815  14.038 -0.7012 -0.8787  0.9342
 6617TIP3   OH241341   1.079   2.849  12.603  0.0752  0.3664  0.0346
 6617TIP3    H141342   1.049   2.772  12.651 -0.1739  0.9896  0.9069
 6617TIP3    H241343   1.164   2.871  12.642  0.0216  0.6851 -0.0183
 6618TIP3   OH241344   5.088   5.046   1.918 -0.3811 -0.0752  0.2276
 6618TIP3    H141345   5.096   5.004   1.832 -2.7198 -1.0151  0.3902
 6618TIP3    H241346   5.145   5.123   1.912  0.8164 -1.0146 -1.5495
 6619TIP3   OH241347   6.050   4.611  15.850 -0.0137  0.3639 -0.2460
 6619TIP3    H141348   6.043   4.538  15.912 -0.2462  0.6482  0.0681
 6619TIP3    H241349   5.962   4.621  15.815 -0.1677  0.9845  0.2867
 6620TIP3   OH241350   0.378   3.089   4.604  0.5896  0.4086  0.1807
 6620TIP3    H141351   0.383   3.019   4.539  0.0466 -1.0931  1.7232
 6620TIP3    H241352   0.349   3.047   4.684  0.5117  2.3582  1.2414
 6621TIP3   OH241353   3.487   1.566  13.255 -0.4763 -0.6457 -0.5003
 6621TIP3    H141354   3.466   1.592  13.165 -1.3324 -0.5811 -0.2955
 6621TIP3    H241355   3.508   1.473  13.250  0.2948 -0.4581 -0.8862
 6622TIP3   OH241356   5.592   1.417  12.976 -0.1940 -0.5466 -0.0081
 6622TIP3    H141357   5.523   1.354  12.997  0.1066 -0.9954 -0.3593
 6622TIP3    H241358   5.545   1.498  12.956 -0.5335 -0.2617  1.7474
 6623TIP3   OH241359   4.534   3.700   3.618  0.1456  0.3283 -0.1749
 6623TIP3    H141360   4.589   3.671   3.691  0.3052 -1.5892 -1.0112
 6623TIP3    H241361   4.463   3.748   3.659  1.1757  0.8296  1.1013
 6624TIP3   OH241362   6.159   3.977   6.125  0.3175  0.2803 -0.2684
 6624TIP3    H141363   6.146   3.886   6.152  2.3046 -0.0932 -0.4799
 6624TIP3    H241364   6.227   4.011   6.183  1.6972  0.7114 -2.0389
 6625TIP3   OH241365   4.966   6.772  15.701 -0.0294  0.0306 -0.0939
 6625TIP3    H141366   4.981   6.864  15.680  1.2784 -0.0005  0.6167
 6625TIP3    H241367   5.040   6.747  15.757 -0.1291 -1.5637 -0.6119
 6626TIP3   OH241368   0.279   4.852  15.669 -0.6638  0.1015  0.0712
 6626TIP3    H141369   0.287   4.852  15.765  2.5624  2.3548 -0.0367
 6626TIP3    H241370   0.206   4.792  15.651 -1.1750 -0.6826  3.8770
 6627TIP3   OH241371   6.182   4.637   3.311  0.2424 -0.1027  0.2181
 6627TIP3    H141372   6.198   4.564   3.370 -0.8828  0.0502  0.7463
 6627TIP3    H241373   6.091   4.625   3.283 -0.2309  1.5021  0.9246
 6628TIP3   OH241374   1.492   4.969   0.326 -0.1084 -0.1101 -0.3635
 6628TIP3    H141375   1.401   4.956   0.299  0.1729  1.1171 -2.0996
 6628TIP3    H241376   1.542   4.907   0.273  0.1713  0.1415 -0.4004
 6629TIP3   OH241377   3.665   3.780  11.841  0.0760  0.1346 -0.0925
 6629TIP3    H141378   3.697   3.751  11.927  1.2583 -0.8728 -0.8474
 6629TIP3    H241379   3.687   3.709  11.782 -0.5026  0.9259 -1.2964
 6630TIP3   OH241380   4.936   6.590  17.072  0.4625  0.2638  0.0306
 6630TIP3    H141381   4.962   6.673  17.112  0.5930 -0.1489  0.8331
 6630TIP3    H241382   4.952   6.602  16.979  3.3540  0.1095  0.4162
 6631TIP3   OH241383   3.241   5.237   3.356 -0.1506 -0.4011 -0.1901
 6631TIP3    H141384   3.230   5.252   3.262 -2.7630  1.1678  0.2645
 6631TIP3    H241385   3.159   5.198   3.384 -0.3607  1.2527  1.7700
 6632TIP3   OH241386   4.589   4.009  15.483  0.0017 -0.6176  0.3131
 6632TIP3    H141387   4.546   4.093  15.499  0.4773 -0.5412  1.2823
 6632TIP3    H241388   4.605   4.008  15.389  2.0089  1.4076  0.5477
 6633TIP3   OH241389   0.383   0.798   6.555  0.0861 -0.0664  0.3308
 6633TIP3    H141390   0.461   0.841   6.590 -0.2718 -0.6319  1.9033
 6633TIP3    H241391   0.328   0.870   6.523  0.2544  0.5251  1.3308
 6634TIP3   OH241392   5.522   0.007  12.552 -0.5840  0.2649 -1.2073
 6634TIP3    H141393   5.430  -0.000  12.577 -0.4879 -1.7763 -1.3306
 6634TIP3    H241394   5.550   0.092  12.588 -2.1544  0.3135 -0.0193
 6635TIP3   OH241395   1.767   3.108   3.613  0.2661 -1.1164  0.2398
 6635TIP3    H141396   1.744   3.055   3.689  0.1543 -1.5426 -0.0871
 6635TIP3    H241397   1.860   3.089   3.598  0.2137 -1.2610  0.0929
 6636TIP3   OH241398   4.114   4.109   5.370  0.7986 -0.7421  0.4052
 6636TIP3    H141399   4.113   4.149   5.456  0.3522 -0.7020  0.3805
 6636TIP3    H241400   4.024   4.079   5.355  0.8136 -0.5318 -0.1447
 6637TIP3   OH241401   5.675   6.105   3.094  0.6164 -0.0212 -0.4334
 6637TIP3    H141402   5.756   6.098   3.145 -0.1858 -0.6575  0.8023
 6637TIP3    H241403   5.631   6.181   3.130 -0.7024 -1.3932  0.9855
 6638TIP3   OH241404   0.630   1.331   4.384  0.1924  0.3406 -0.2979
 6638TIP3    H141405   0.725   1.339   4.387  0.1841  0.1984  0.6595
 6638TIP3    H241406   0.602   1.395   4.319  0.9247  0.5922 -0.3679
 6639TIP3   OH241407   2.351   4.981  14.259  0.1472  0.2870 -0.9816
 6639TIP3    H141408   2.287   5.000  14.190 -0.2433 -0.4187 -0.8204
 6639TIP3    H241409   2.421   5.045  14.244 -1.4556  2.4220  0.0273
 6640TIP3   OH241410   1.397   2.668  12.608 -0.4251  0.8240 -0.4331
 6640TIP3    H141411   1.427   2.590  12.562  1.3852  0.3420  1.4072
 6640TIP3    H241412   1.302   2.659  12.611 -0.2318 -1.7736  0.4425
 6641TIP3   OH241413   1.207   5.661   2.776 -0.5597  1.3912 -0.2262
 6641TIP3    H141414   1.279   5.722   2.792 -1.2981  2.4683 -0.9034
 6641TIP3    H241415   1.153   5.666   2.856  1.3139 -1.2255  1.3372
 6642TIP3   OH241416   1.890   6.604   2.200  0.0012  0.5550  0.7125
 6642TIP3    H141417   1.957   6.623   2.266  0.2314  0.9358  0.3748
 6642TIP3    H241418   1.813   6.653   2.230  0.4066  1.5479  0.1772
 6643TIP3   OH241419   3.012   0.128  15.441 -0.8555 -0.1912  0.1345
 6643TIP3    H141420   2.921   0.108  15.463 -0.8540 -0.0172  0.3056
 6643TIP3    H241421   3.056   0.139  15.526 -0.8184  0.3411  0.0535
 6644TIP3   OH241422   3.673   4.124  14.053  0.5570  0.2424  0.1058
 6644TIP3    H141423   3.644   4.048  14.002 -1.2775  0.3418  0.9433
 6644TIP3    H241424   3.726   4.175  13.991 -0.0774 -0.5781 -1.1562
 6645TIP3   OH241425   0.326   5.805  15.526 -0.7900 -0.1328 -0.0587
 6645TIP3    H141426   0.299   5.890  15.491  0.1445  0.8947  1.6287
 6645TIP3    H241427   0.321   5.815  15.621 -1.1940 -2.1626  0.1752
 6646TIP3   OH241428   0.399   2.204  15.864  0.3674  0.2117  0.5540
 6646TIP3    H141429   0.313   2.234  15.834  1.0199  0.2862 -1.3759
 6646TIP3    H241430   0.398   2.219  15.959 -1.2905  1.3190  0.4003
 6647TIP3   OH241431   1.180   2.494  16.843  0.2044 -0.2828 -0.0690
 6647TIP3    H141432   1.109   2.534  16.792 -0.2980  0.2016  0.9639
 6647TIP3    H241433   1.259   2.509  16.791 -0.0579  1.5458 -0.0148
 6648TIP3   OH241434   4.074   5.439  15.919  0.4898 -0.4969  0.9624
 6648TIP3    H141435   4.141   5.430  15.851  0.5368 -0.0017  0.9410
 6648TIP3    H241436   4.112   5.395  15.996  0.5088 -0.9009  0.7235
 6649TIP3   OH241437   4.811   3.879  11.856  0.2798 -0.7992 -0.3005
 6649TIP3    H141438   4.855   3.795  11.864  0.3769 -0.6497  1.0016
 6649TIP3    H241439   4.826   3.922  11.940  0.5354  0.6756 -1.0530
 6650TIP3   OH241440   3.741   0.957  10.946  0.0196 -0.0781  0.0641
 6650TIP3    H141441   3.740   0.866  10.916 -0.5188 -0.4274  1.0849
 6650TIP3    H241442   3.754   1.008  10.867 -0.2422 -1.0180 -0.6070
 6651TIP3   OH241443   1.063   6.262   6.244  0.7756 -0.3068 -0.0713
 6651TIP3    H141444   1.127   6.217   6.300  0.3844 -0.1709  0.4946
 6651TIP3    H241445   1.111   6.282   6.164  1.9841  1.3317  0.9896
 6652TIP3   OH241446   6.760   4.187  16.601 -0.1520 -0.4359  0.3445
 6652TIP3    H141447   6.722   4.123  16.541  0.5546 -1.1758  0.6544
 6652TIP3    H241448   6.810   4.134  16.664 -0.4233  0.3538  1.2536
 6653TIP3   OH241449   5.249   2.947   2.031 -0.2822  0.0318 -0.1448
 6653TIP3    H141450   5.220   2.930   1.941  1.1585 -1.1021 -0.4429
 6653TIP3    H241451   5.183   2.904   2.085 -2.0801  2.1236 -0.5344
 6654TIP3   OH241452   5.788   0.465   3.912 -0.4032 -0.2609  0.2728
 6654TIP3    H141453   5.756   0.471   3.822  2.8486  1.2709 -0.9356
 6654TIP3    H241454   5.796   0.371   3.928 -0.1748 -0.5573 -1.3883
 6655TIP3   OH241455   0.323   1.737   4.887 -0.1351 -0.7722 -0.0093
 6655TIP3    H141456   0.382   1.674   4.927 -1.1931 -2.1396 -0.5259
 6655TIP3    H241457   0.282   1.782   4.961  0.6735 -0.6338  0.3645
 6656TIP3   OH241458   2.816   2.617  15.463  0.1649  0.4840  0.0463
 6656TIP3    H141459   2.844   2.675  15.533 -1.4979  1.6706 -0.2128
 6656TIP3    H241460   2.851   2.531  15.488  1.2699  1.2506  1.2912
 6657TIP3   OH241461   5.901   0.782  13.917 -0.3627 -0.0902  0.2922
 6657TIP3    H141462   5.988   0.822  13.908  0.7897 -2.2138  1.2898
 6657TIP3    H241463   5.910   0.696  13.877 -2.1720 -0.1923  0.0305
 6658TIP3   OH241464   6.019   3.686   6.421 -0.0111 -0.4185 -0.1358
 6658TIP3    H141465   6.099   3.726   6.456  0.4775  0.4042 -2.0852
 6658TIP3    H241466   5.956   3.758   6.417 -0.5068 -0.8173  0.3235
 6659TIP3   OH241467   0.226   0.366   3.863 -0.1905 -0.4378 -0.4401
 6659TIP3    H141468   0.233   0.316   3.944  1.6122 -0.0456 -0.3138
 6659TIP3    H241469   0.140   0.344   3.828 -1.4448  0.1069  2.0579
 6660TIP3   OH241470   5.251   1.299  13.343  0.4613  0.1788 -0.7307
 6660TIP3    H141471   5.177   1.322  13.286 -0.7510 -0.3470  0.5829
 6660TIP3    H241472   5.324   1.288  13.283 -0.3987  1.1891 -2.0328
 6661TIP3   OH241473   2.388   3.493   4.961 -0.2511  0.3598 -0.2095
 6661TIP3    H141474   2.383   3.405   4.922  0.1024 -0.1100  0.7749
 6661TIP3    H241475   2.428   3.547   4.894  0.1847 -0.3966 -0.5723
 6662TIP3   OH241476   0.611   5.039  16.220  0.4856  0.2944  0.2376
 6662TIP3    H141477   0.646   5.078  16.299 -0.9256  0.4680  0.8001
 6662TIP3    H241478   0.550   4.972  16.251  1.1739 -0.8033 -0.7075
 6663TIP3   OH241479   0.844   6.528   2.519 -0.0363 -0.1813  0.2451
 6663TIP3    H141480   0.808   6.449   2.481 -2.3611  0.2864  1.3095
 6663TIP3    H241481   0.906   6.561   2.453 -0.4296 -1.8432 -1.0097
 6664TIP3   OH241482   5.700   3.624   1.578  0.8969 -0.1548 -0.0451
 6664TIP3    H141483   5.662   3.537   1.590 -0.7619  0.3886 -0.9561
 6664TIP3    H241484   5.781   3.622   1.629  1.5134 -2.5862 -0.9757
 6665TIP3   OH241485   4.943   4.334   5.797  0.0516  1.0113  0.1005
 6665TIP3    H141486   4.926   4.384   5.876 -0.6452  0.8906  0.0374
 6665TIP3    H241487   4.857   4.325   5.755 -0.2441 -1.9272  1.1079
 6666TIP3   OH241488   6.128   3.063  11.575  0.1552  0.1512 -0.4030
 6666TIP3    H141489   6.123   3.150  11.535 -0.0784 -0.4611 -1.7802
 6666TIP3    H241490   6.039   3.045  11.604  0.0664  0.1179 -0.6934
 6667TIP3   OH241491   1.455   3.587  14.293 -0.2551  0.4747 -0.3962
 6667TIP3    H141492   1.542   3.570  14.330 -0.0518  0.1401 -1.0140
 6667TIP3    H241493   1.471   3.600  14.199 -0.7280  1.6093 -0.3268
 6668TIP3   OH241494   5.445   1.273  14.233 -0.0555  0.4555  0.6642
 6668TIP3    H141495   5.476   1.351  14.281 -0.4050  0.0088  1.6524
 6668TIP3    H241496   5.520   1.215  14.232  0.8291  1.5204 -1.7600
 6669TIP3   OH241497   2.904   4.129  15.745 -0.3392 -0.1489  0.2636
 6669TIP3    H141498   2.982   4.185  15.736 -0.6621  0.0571 -1.4369
 6669TIP3    H241499   2.898   4.083  15.662 -1.0111 -1.5471  1.0556
 6670TIP3   OH241500   5.819   5.008  11.556 -0.0833  1.1308 -0.1769
 6670TIP3    H141501   5.862   5.085  11.592  1.5966  0.0390  0.2862
 6670TIP3    H241502   5.890   4.956  11.518 -1.0043 -0.6335  0.3710
 6671TIP3   OH241503   3.911   2.207   2.964 -0.2766  0.1177  0.2480
 6671TIP3    H141504   3.882   2.126   3.004 -0.0083  0.3845  0.9987
 6671TIP3    H241505   3.985   2.181   2.909 -0.2075 -0.1483  0.4647
 6672TIP3   OH241506   6.801   5.995  15.178 -0.7630 -0.3146 -0.6834
 6672TIP3    H141507   6.829   5.940  15.251  0.4131  0.4271 -0.5561
 6672TIP3    H241508   6.795   5.936  15.103  1.9359 -0.4144 -0.9123
 6673TIP3   OH241509   1.511   4.868  15.565  0.1731 -0.4093  0.1627
 6673TIP3    H141510   1.434   4.853  15.620  0.8473  1.2779  1.6862
 6673TIP3    H241511   1.477   4.903  15.483 -0.6736  1.0313  1.0944
 6674TIP3   OH241512   1.123   0.147  10.820  0.2492 -0.5386  0.6191
 6674TIP3    H141513   1.172   0.096  10.885 -0.9362 -1.2606  0.9628
 6674TIP3    H241514   1.033   0.148  10.853  0.1057  1.2176  0.2741
 6675TIP3   OH241515   4.895   3.495   5.167  0.4782 -0.5464 -0.2204
 6675TIP3    H141516   4.891   3.573   5.112  1.8079 -0.3676 -0.0935
 6675TIP3    H241517   4.825   3.508   5.232 -1.0096 -0.6909 -1.7270
 6676TIP3   OH241518   5.860   6.532  13.538 -0.4339  0.0329 -0.4753
 6676TIP3    H141519   5.919   6.600  13.571 -0.5904  0.1091 -0.3477
 6676TIP3    H241520   5.874   6.532  13.443  0.1616 -0.3265 -0.3872
 6677TIP3   OH241521   0.260   1.804   0.567  0.1145 -0.0110  0.5903
 6677TIP3    H141522   0.297   1.861   0.500  1.2238 -1.7626 -0.3548
 6677TIP3    H241523   0.219   1.733   0.518  1.1336 -1.4384  1.7255
 6678TIP3   OH241524   5.379   4.196   0.197 -0.2365  0.6385 -0.9977
 6678TIP3    H141525   5.326   4.191   0.277  1.2612 -1.0531 -0.0569
 6678TIP3    H241526   5.443   4.126   0.206 -0.4645 -0.0767 -4.0407
 6679TIP3   OH241527   3.348   1.987   0.861  1.0262 -0.0795 -0.3874
 6679TIP3    H141528   3.430   1.985   0.811  0.5102 -0.7115 -1.2214
 6679TIP3    H241529   3.283   1.949   0.803  0.6289 -1.9163  1.1528
 6680TIP3   OH241530   4.636   2.489  12.724  0.5341 -0.0873 -0.3406
 6680TIP3    H141531   4.614   2.530  12.807  0.4625 -1.9650  0.6056
 6680TIP3    H241532   4.697   2.419  12.746 -1.4140 -2.2655 -1.4947
 6681TIP3   OH241533   1.817   3.845   0.068  0.7081  0.0923 -0.3735
 6681TIP3    H141534   1.813   3.916   0.004 -0.5872  1.0228  0.6706
 6681TIP3    H241535   1.828   3.766   0.017  2.1126  1.0154 -1.5925
 6682TIP3   OH241536   1.532   0.785  13.954  0.8728  0.0198  0.1814
 6682TIP3    H141537   1.586   0.742  13.887  1.6388  1.0374  0.1288
 6682TIP3    H241538   1.481   0.713  13.993  2.1353 -0.9511  0.1207
 6683TIP3   OH241539   3.202   5.790  12.844  0.4512 -0.4711 -0.0085
 6683TIP3    H141540   3.109   5.812  12.856  0.5230  0.4973 -1.1090
 6683TIP3    H241541   3.242   5.871  12.812  1.2470 -1.4894 -1.7017
 6684TIP3   OH241542   1.100   1.405   2.493 -0.6561 -0.3216 -0.0001
 6684TIP3    H141543   1.104   1.489   2.448  0.1951 -0.4920 -0.2601
 6684TIP3    H241544   1.054   1.347   2.433  2.1906 -1.0987 -1.6248
 6685TIP3   OH241545   2.273   5.130  15.800  0.8587 -0.2187 -0.5064
 6685TIP3    H141546   2.178   5.139  15.793  0.7469  0.5370  1.3386
 6685TIP3    H241547   2.289   5.036  15.788 -0.0628 -0.3124 -1.1491
 6686TIP3   OH241548   6.174   4.793   0.992 -0.4889 -0.5165  0.2709
 6686TIP3    H141549   6.134   4.844   1.062  1.9189  0.6267  0.9093
 6686TIP3    H241550   6.223   4.856   0.940 -2.2190 -1.3179 -2.5759
 6687TIP3   OH241551   0.473   0.136   5.073 -0.4075  0.3728  0.2804
 6687TIP3    H141552   0.556   0.173   5.103  0.3760 -1.2626  0.2588
 6687TIP3    H241553   0.464   0.055   5.123 -1.0053 -0.4691 -1.1283
 6688TIP3   OH241554   0.758   0.346   3.781  0.0543 -0.8696  0.1984
 6688TIP3    H141555   0.840   0.298   3.776 -0.3591 -1.5001 -0.6827
 6688TIP3    H241556   0.706   0.314   3.707 -0.1438  1.1006 -0.5832
 6689TIP3   OH241557   2.022   2.736   0.039  0.5465  0.0599  0.3522
 6689TIP3    H141558   2.087   2.771  -0.021 -0.8802  1.6651 -0.3411
 6689TIP3    H241559   1.999   2.811   0.096 -0.6529 -0.4531  0.5812
 6690TIP3   OH241560   1.579   6.597  14.643  0.2830 -0.1665  0.9401
 6690TIP3    H141561   1.501   6.651  14.656  0.7789  1.2993 -1.5093
 6690TIP3    H241562   1.621   6.634  14.565  0.8783 -3.8385 -0.7271
 6691TIP3   OH241563   6.132   4.070   2.693  0.7858  0.1376 -0.4387
 6691TIP3    H141564   6.200   4.125   2.732  1.3030 -0.6858 -0.1705
 6691TIP3    H241565   6.168   4.043   2.609  0.7939 -0.2963 -0.2978
 6692TIP3   OH241566   0.447   5.155  14.307  0.1878 -0.2204 -0.5777
 6692TIP3    H141567   0.451   5.188  14.397  1.7679  1.4879 -1.2223
 6692TIP3    H241568   0.354   5.139  14.291  0.0299 -2.8073  2.0776
 6693TIP3   OH241569   5.441   2.640  14.136 -0.0008 -0.4382 -0.2906
 6693TIP3    H141570   5.468   2.728  14.163 -1.2764 -0.3527  0.7838
 6693TIP3    H241571   5.393   2.654  14.054  1.0549 -0.3265 -0.9151
 6694TIP3   OH241572   1.438   4.780   5.577 -0.2123  0.0744 -0.2374
 6694TIP3    H141573   1.345   4.798   5.590 -0.2355  0.5699 -1.0098
 6694TIP3    H241574   1.442   4.685   5.565 -0.5251 -0.0362  0.5004
 6695TIP3   OH241575   3.301   5.402   4.869  0.0883  0.1534  0.0334
 6695TIP3    H141576   3.308   5.307   4.865 -1.0502  0.1070 -2.5610
 6695TIP3    H241577   3.375   5.434   4.818 -0.6066  0.5643 -0.7445
 6696TIP3   OH241578   1.132   3.446   1.260  0.2283  0.0968  0.1015
 6696TIP3    H141579   1.154   3.538   1.247 -0.7540  0.3210 -0.0899
 6696TIP3    H241580   1.150   3.404   1.176  3.4525 -0.5245  0.9614
 6697TIP3   OH241581   3.689   3.959  13.408  0.4303 -0.6678  0.2533
 6697TIP3    H141582   3.645   3.874  13.399  0.7470 -0.9837  1.4365
 6697TIP3    H241583   3.641   4.017  13.350 -1.8264 -0.9116  1.7531
 6698TIP3   OH241584   6.466   6.194  13.427 -0.8267  0.2371 -0.0735
 6698TIP3    H141585   6.478   6.288  13.416 -2.0102  0.2536 -1.7554
 6698TIP3    H241586   6.525   6.169  13.498 -0.1814  2.1626  0.1090
 6699TIP3   OH241587   4.849   3.739   0.828  0.0753  0.2735 -0.3202
 6699TIP3    H141588   4.929   3.686   0.837 -1.2775 -1.7925  0.3151
 6699TIP3    H241589   4.804   3.728   0.911 -1.9368 -0.5195 -1.4531
 6700TIP3   OH241590   1.964   1.647  11.426 -0.2444  0.4549 -0.3114
 6700TIP3    H141591   1.962   1.732  11.469 -0.7658  0.7471 -0.8918
 6700TIP3    H241592   1.972   1.668  11.332 -1.6706 -0.0917 -0.5713
 6701TIP3   OH241593   1.533   5.325   1.702  0.4412 -0.4932 -0.3109
 6701TIP3    H141594   1.455   5.318   1.648  0.6217 -0.6359 -0.5552
 6701TIP3    H241595   1.501   5.359   1.786  0.5393  2.4982 -1.3920
 6702TIP3   OH241596   1.564   2.005   2.925 -0.4229  0.4567  0.1550
 6702TIP3    H141597   1.614   2.052   2.858  1.9651 -0.8808  0.8722
 6702TIP3    H241598   1.591   2.045   3.008  0.5133 -1.1113  0.6568
 6703TIP3   OH241599   5.370   2.299   1.972 -0.6313 -0.6331 -0.0544
 6703TIP3    H141600   5.358   2.248   2.052 -0.3430 -1.0424 -0.2648
 6703TIP3    H241601   5.459   2.333   1.978 -0.9294  0.1266  0.2348
 6704TIP3   OH241602   0.668   6.706  13.677 -0.2719 -0.1530  0.4110
 6704TIP3    H141603   0.677   6.675  13.767  1.5250 -1.2009 -0.0716
 6704TIP3    H241604   0.663   6.627  13.624  1.3594  0.3633 -0.5961
 6705TIP3   OH241605   2.745   1.626   6.121  0.1253 -0.0486 -0.4723
 6705TIP3    H141606   2.770   1.563   6.189  2.0318  0.4443 -0.6761
 6705TIP3    H241607   2.801   1.702   6.135  1.3645 -0.3240 -3.1850
 6706TIP3   OH241608   0.809   1.271   3.353  0.2332  0.1132  0.2172
 6706TIP3    H141609   0.846   1.217   3.283 -0.5335 -1.2904  0.8371
 6706TIP3    H241610   0.749   1.331   3.308 -0.5962 -1.0753 -0.3149
 6707TIP3   OH241611   3.726   0.284  11.304  0.2045 -0.2825 -0.5497
 6707TIP3    H141612   3.783   0.319  11.236 -0.7979  0.0579 -1.2288
 6707TIP3    H241613   3.762   0.197  11.322  1.7018  0.3964 -0.0357
 6708TIP3   OH241614   2.390   0.479  16.159 -0.2734  0.0342 -0.2227
 6708TIP3    H141615   2.392   0.544  16.229  0.3833  1.0997 -1.2052
 6708TIP3    H241616   2.342   0.521  16.088 -0.3191 -0.7747 -0.6866
 6709TIP3   OH241617   0.960   1.101   3.152 -0.8689 -0.2187 -0.3971
 6709TIP3    H141618   0.893   1.124   3.089 -2.4085 -1.6830  0.6190
 6709TIP3    H241619   0.969   1.006   3.144 -0.4904 -0.3203  0.9729
 6710TIP3   OH241620   4.293   2.442  12.302  0.3164  0.1188 -0.2097
 6710TIP3    H141621   4.316   2.503  12.232 -0.1831  1.4933  0.7634
 6710TIP3    H241622   4.359   2.458  12.370  1.5599 -2.0861 -0.7954
 6711TIP3   OH241623   4.367   0.727   0.397  0.7044 -0.2018 -0.5373
 6711TIP3    H141624   4.299   0.660   0.396  1.7219 -1.3251  0.8276
 6711TIP3    H241625   4.358   0.768   0.483  1.1218  0.2952 -0.7291
 6712TIP3   OH241626   2.788   2.578  12.003  0.1227  0.0256  0.0611
 6712TIP3    H141627   2.880   2.593  11.981  0.6274  0.0462  1.9902
 6712TIP3    H241628   2.774   2.630  12.083 -1.2735 -0.7675  0.3613
 6713TIP3   OH241629   0.069   3.256   2.191 -0.5805 -0.1108 -0.3677
 6713TIP3    H141630   0.163   3.265   2.177 -0.3995 -2.2121 -0.8966
 6713TIP3    H241631   0.062   3.195   2.265 -1.5623  1.2820  0.7591
 6714TIP3   OH241632   6.162   6.465   1.433 -0.8187  0.1492  0.2952
 6714TIP3    H141633   6.137   6.485   1.524  0.3055  1.8228  0.2903
 6714TIP3    H241634   6.215   6.540   1.406  1.2475 -1.5814 -0.8224
 6715TIP3   OH241635   3.695   1.184   4.755  0.7295  0.0827 -0.1345
 6715TIP3    H141636   3.671   1.264   4.802  1.0427  0.7503 -1.0682
 6715TIP3    H241637   3.706   1.212   4.664 -0.7235 -1.3213 -0.8012
 6716TIP3   OH241638   6.621   2.352  16.650 -0.4278 -0.0582  0.1481
 6716TIP3    H141639   6.555   2.285  16.663 -2.2063  1.8968  1.9989
 6716TIP3    H241640   6.609   2.381  16.560 -0.8856 -0.9428 -0.0849
 6717TIP3   OH241641   5.280   3.890   4.335 -0.4869  0.5468  0.1667
 6717TIP3    H141642   5.221   3.915   4.405  0.3287  3.0782  0.0277
 6717TIP3    H241643   5.367   3.919   4.364 -0.3430  3.3038 -2.4760
 6718TIP3   OH241644   2.849   6.591   5.369 -0.3111 -0.9254  0.0290
 6718TIP3    H141645   2.923   6.534   5.388  0.9019  1.0266  1.4538
 6718TIP3    H241646   2.845   6.593   5.273  0.8060 -1.8718 -0.0629
 6719TIP3   OH241647   5.738   1.983   3.825 -0.2521  0.1007 -0.3608
 6719TIP3    H141648   5.787   1.905   3.800  0.4347  0.1110  0.8384
 6719TIP3    H241649   5.723   1.972   3.919 -0.4892  1.2263 -0.2498
 6720TIP3   OH241650   1.927   3.519  15.768 -0.4190  0.1839  0.8570
 6720TIP3    H141651   2.002   3.545  15.822  0.2032  0.1051  0.0542
 6720TIP3    H241652   1.861   3.489  15.831  0.2899  0.0865  1.5680
 6721TIP3   OH241653   6.536   4.489   4.730  0.5048 -0.3727 -0.0223
 6721TIP3    H141654   6.546   4.547   4.655 -0.0777  0.6975  0.7095
 6721TIP3    H241655   6.553   4.402   4.695  0.8396  0.1742 -1.2616
 6722TIP3   OH241656   2.822   1.884  15.776  0.1031 -0.8731 -0.3443
 6722TIP3    H141657   2.917   1.892  15.777 -0.0225  1.0318 -0.2610
 6722TIP3    H241658   2.792   1.957  15.722 -1.4482  0.7367  2.4794
 6723TIP3   OH241659   4.308   0.121  12.375 -0.2969  0.4240  0.0975
 6723TIP3    H141660   4.232   0.072  12.344  0.2418 -0.6633  0.4771
 6723TIP3    H241661   4.371   0.115  12.303 -0.3125  0.7651  0.0521
 6724TIP3   OH241662   6.298   6.279   4.726  0.0850 -0.1293 -0.2594
 6724TIP3    H141663   6.220   6.259   4.777  0.1839 -1.6073 -0.6371
 6724TIP3    H241664   6.333   6.360   4.765 -1.3862  0.3255  0.1707
 6725TIP3   OH241665   1.375   4.713  12.952  0.4812  0.0383 -0.1258
 6725TIP3    H141666   1.312   4.678  12.888 -0.1161  0.9455 -0.0554
 6725TIP3    H241667   1.349   4.673  13.035  2.1043 -2.2236 -0.6268
 6726TIP3   OH241668   4.759   3.973   5.802  0.5501  0.2941 -0.4489
 6726TIP3    H141669   4.843   3.985   5.847  0.5085  0.7706 -0.4930
 6726TIP3    H241670   4.719   4.060   5.801  0.1836  0.1276 -0.6847
 6727TIP3   OH241671   3.547   5.076   3.073  0.6569 -0.4321  0.4828
 6727TIP3    H141672   3.591   5.160   3.085  0.2318 -0.0865 -0.2774
 6727TIP3    H241673   3.595   5.015   3.130  1.4958  0.1427  0.4137
 6728TIP3   OH241674   2.620   5.253  13.477 -0.4618  0.2429 -0.2667
 6728TIP3    H141675   2.573   5.201  13.542 -1.7539  2.5416  0.7515
 6728TIP3    H241676   2.611   5.344  13.507  0.8585  1.1888 -2.4626
 6729TIP3   OH241677   2.959   5.332   4.450  1.0400 -0.0665  0.1268
 6729TIP3    H141678   2.919   5.417   4.432 -0.9273 -1.2156 -1.3833
 6729TIP3    H241679   2.997   5.341   4.537  0.1567  2.0928  0.3461
 6730TIP3   OH241680   2.597   6.123   0.043 -0.3268  0.2432  0.5869
 6730TIP3    H141681   2.681   6.079   0.056  0.3191  0.9044 -1.0370
 6730TIP3    H241682   2.596   6.144  -0.050 -0.8267  3.2115  1.1782
 6731TIP3   OH241683   6.447   3.308  11.019  0.3286  0.2123  0.5144
 6731TIP3    H141684   6.471   3.217  11.039  0.4015  0.4428  1.5769
 6731TIP3    H241685   6.438   3.311  10.924  0.7051 -0.8135  0.4364
 6732TIP3   OH241686   2.516   4.605  15.663 -0.2868 -0.2035 -0.8598
 6732TIP3    H141687   2.595   4.552  15.668 -0.9774 -1.5164 -2.9125
 6732TIP3    H241688   2.529   4.673  15.730  0.8718 -2.5676  1.5043
 6733TIP3   OH241689   2.403   6.247  15.358 -0.0744  0.0338 -0.0147
 6733TIP3    H141690   2.351   6.260  15.278  0.3011 -1.4391 -0.5386
 6733TIP3    H241691   2.463   6.321  15.360  1.7873 -1.2305 -2.6317
 6734TIP3   OH241692   3.131   6.669   5.745 -0.4157 -0.2473  0.3123
 6734TIP3    H141693   3.137   6.763   5.757  0.7617 -0.2410 -0.1430
 6734TIP3    H241694   3.114   6.634   5.832 -2.4015  0.4676  0.2598
 6735TIP3   OH241695   1.873   4.452  15.450  0.9642  0.3528 -0.1758
 6735TIP3    H141696   1.896   4.501  15.372 -0.5766 -0.6497 -1.3127
 6735TIP3    H241697   1.778   4.453  15.453  0.9543 -0.6951  0.9726
 6736TIP3   OH241698   1.303   4.335  16.861 -0.1591  0.0042  0.3244
 6736TIP3    H141699   1.394   4.305  16.859  0.9712  3.0866 -0.5077
 6736TIP3    H241700   1.285   4.366  16.772 -2.0919 -0.5946  0.4547
 6737TIP3   OH241701   2.383   4.582   1.477  0.0816 -0.2336  0.2761
 6737TIP3    H141702   2.444   4.528   1.527  1.5874  0.4630 -0.7253
 6737TIP3    H241703   2.413   4.573   1.386  0.6185  2.4763  0.0905
 6738TIP3   OH241704   5.614   5.339  12.821  0.0852 -0.6034 -0.1527
 6738TIP3    H141705   5.597   5.276  12.891 -2.0948 -1.1532 -1.0835
 6738TIP3    H241706   5.585   5.295  12.741  1.7558  0.3072 -1.3424
 6739TIP3   OH241707   2.932   2.753   3.871  0.4941 -0.9350 -0.0366
 6739TIP3    H141708   2.918   2.843   3.900  1.5089  0.0367 -2.3424
 6739TIP3    H241709   2.903   2.751   3.780 -0.2189 -3.1629  0.1795
 6740TIP3   OH241710   2.342   6.039  14.172 -0.0033 -0.5426  0.3993
 6740TIP3    H141711   2.393   6.101  14.225  1.4881 -0.4181 -1.1119
 6740TIP3    H241712   2.303   5.979  14.236 -1.3879  1.7961  1.9167
 6741TIP3   OH241713   0.703   5.573  15.235 -0.5785 -0.2529  0.5180
 6741TIP3    H141714   0.715   5.641  15.168  0.7167 -1.2156 -0.2656
 6741TIP3    H241715   0.766   5.596  15.304  1.8054 -2.0246 -0.9245
 6742TIP3   OH241716   2.292   5.717   3.620  0.4090  0.0316  0.0660
 6742TIP3    H141717   2.261   5.740   3.533 -0.5319  2.4731  0.9558
 6742TIP3    H241718   2.289   5.799   3.670 -0.4079 -1.5029  2.7920
 6743TIP3   OH241719   6.257   3.786   6.523 -0.7941  0.6101  0.1216
 6743TIP3    H141720   6.338   3.798   6.474 -1.4723 -1.0315 -1.5257
 6743TIP3    H241721   6.251   3.864   6.579  0.0391  2.6010 -2.3822
 6744TIP3   OH241722   2.644   2.340   2.803 -0.2476 -0.3825  0.0867
 6744TIP3    H141723   2.638   2.246   2.821  0.2529 -0.2955  0.7635
 6744TIP3    H241724   2.634   2.382   2.889  0.7491  0.1252 -0.0300
 6745TIP3   OH241725   6.485   3.263   3.152  0.0055  0.0185 -0.0734
 6745TIP3    H141726   6.575   3.251   3.183  0.0715 -0.7649 -0.5471
 6745TIP3    H241727   6.493   3.314   3.072 -0.0326  0.5381  0.2470
 6746TIP3   OH241728   5.386   4.143  14.443  0.4591  0.6851  0.1277
 6746TIP3    H141729   5.430   4.187  14.369  1.9769 -0.3905  0.3549
 6746TIP3    H241730   5.352   4.215  14.496 -0.2751  1.4948 -1.3803
 6747TIP3   OH241731   1.028   4.223   0.971  0.2266  0.2791 -0.6087
 6747TIP3    H141732   0.942   4.210   0.931 -0.7669 -1.1349  1.7223
 6747TIP3    H241733   1.011   4.281   1.046  0.7075 -1.9749  1.3881
 6748TIP3   OH241734   3.759   6.735  11.717 -0.9837 -0.3340 -0.0837
 6748TIP3    H141735   3.664   6.729  11.713 -0.8806 -1.9521 -2.5332
 6748TIP3    H241736   3.789   6.644  11.707  0.8269  0.0902  1.0072
 6749TIP3   OH241737   1.644   1.964  16.068  0.0776 -0.0873  0.1453
 6749TIP3    H141738   1.627   2.047  16.113 -1.4431 -0.0786 -0.3866
 6749TIP3    H241739   1.715   1.924  16.118 -0.1163  0.8992  1.2603
 6750TIP3   OH241740   5.855   5.628   6.124  0.0779 -0.1810 -0.1208
 6750TIP3    H141741   5.937   5.673   6.102  2.2006 -3.0809  1.2626
 6750TIP3    H241742   5.836   5.573   6.047 -0.1453 -0.1231 -0.1097
 6751TIP3   OH241743   1.529   0.276   4.761  0.4814 -0.6150  0.3092
 6751TIP3    H141744   1.589   0.201   4.766  0.7925 -0.4215 -0.4298
 6751TIP3    H241745   1.578   0.343   4.713  0.9418  0.7907  2.6000
 6752TIP3   OH241746   2.694   4.939  12.194 -0.1179  0.8048 -0.0296
 6752TIP3    H141747   2.665   4.918  12.283 -0.6448 -1.1282 -0.5995
 6752TIP3    H241748   2.715   4.854  12.156 -1.8385  1.3576 -2.4089
 6753TIP3   OH241749   1.327   1.658   4.053 -0.1706 -0.5082 -0.2041
 6753TIP3    H141750   1.254   1.693   4.002 -1.2146  0.2478  1.6897
 6753TIP3    H241751   1.387   1.620   3.988 -0.9089  1.3061 -2.0457
 6754TIP3   OH241752   5.736   3.798   2.378  0.6103 -0.0682 -0.2705
 6754TIP3    H141753   5.654   3.847   2.384  0.3839 -0.4094 -0.5199
 6754TIP3    H241754   5.740   3.749   2.460  1.1396  0.8254  0.2461
 6755TIP3   OH241755   1.961   4.245  15.606 -0.1863 -0.3708 -0.0370
 6755TIP3    H141756   1.940   4.331  15.571 -0.8350 -0.6552 -0.3563
 6755TIP3    H241757   1.892   4.188  15.573  0.1462 -0.9819  0.3075
 6756TIP3   OH241758   0.941   5.847  14.410 -0.3602  0.7904  0.5259
 6756TIP3    H141759   1.025   5.862  14.366 -0.7386 -1.2420 -1.0734
 6756TIP3    H241760   0.960   5.781  14.476 -0.5296  0.9956  0.7809
 6757TIP3   OH241761   3.053   1.340  12.202  0.7944 -0.4694 -0.6931
 6757TIP3    H141762   3.101   1.316  12.281  0.6389 -0.7205 -0.6701
 6757TIP3    H241763   3.077   1.273  12.138 -0.2984 -1.1971 -0.3704
 6758TIP3   OH241764   3.139   6.762   4.687  0.0010  0.3386 -0.9843
 6758TIP3    H141765   3.210   6.823   4.707  0.9191 -0.6805 -1.0730
 6758TIP3    H241766   3.068   6.818   4.653  1.7157  1.1297 -3.5421
 6759TIP3   OH241767   6.271   6.541   4.095  0.4070  0.2495  0.0269
 6759TIP3    H141768   6.325   6.609   4.055  1.8135 -0.2556  0.9697
 6759TIP3    H241769   6.287   6.549   4.189 -1.1134  0.0076  0.3349
 6760TIP3   OH241770   0.613   1.054  15.518 -0.2984  0.6072  0.2479
 6760TIP3    H141771   0.601   1.027  15.609  0.1650  3.4489  1.2329
 6760TIP3    H241772   0.556   0.995  15.468 -1.3381 -0.3708  2.4625
 6761TIP3   OH241773   2.153   6.555  11.892 -0.2415  0.9849 -0.5147
 6761TIP3    H141774   2.179   6.464  11.900 -1.2206  0.7922  0.8124
 6761TIP3    H241775   2.221   6.595  11.837  0.2557 -0.4974 -1.0209
 6762TIP3   OH241776   5.686   6.708  15.090  0.2535 -0.0001  0.1215
 6762TIP3    H141777   5.661   6.783  15.037 -0.1574  1.3363  2.0914
 6762TIP3    H241778   5.684   6.634  15.030 -1.2570  1.2442 -1.4469
 6763TIP3   OH241779   5.876   1.576  14.734  0.4401  0.0173  0.2261
 6763TIP3    H141780   5.853   1.654  14.684 -1.7016 -0.6318  0.1238
 6763TIP3    H241781   5.972   1.577  14.735  0.6018  0.7115 -2.8681
 6764TIP3   OH241782   4.892   0.729  16.501 -0.0031 -0.5489  0.1517
 6764TIP3    H141783   4.811   0.701  16.542 -0.0784 -0.4298  0.0884
 6764TIP3    H241784   4.909   0.816  16.537  0.2841 -0.7183  0.4291
 6765TIP3   OH241785   5.532   0.386  14.943  0.5790  0.0924  0.0488
 6765TIP3    H141786   5.493   0.399  14.857 -1.0912  0.1369  0.7562
 6765TIP3    H241787   5.537   0.291  14.953  0.8188  0.0875 -0.1124
 6766TIP3   OH241788   4.209   1.278  10.418 -0.2838  0.7295  0.4248
 6766TIP3    H141789   4.217   1.239  10.505  0.3957 -1.0365 -0.4021
 6766TIP3    H241790   4.119   1.310  10.415 -0.4940  0.2991  1.5604
 6767TIP3   OH241791   6.457   1.462   1.461  0.0903 -0.0355  0.5938
 6767TIP3    H141792   6.538   1.433   1.501 -0.6838 -3.3620  0.0129
 6767TIP3    H241793   6.395   1.469   1.534 -0.3903 -2.6267  0.5098
 6768TIP3   OH241794   2.662   6.516  12.956 -0.2903 -0.4283  0.7505
 6768TIP3    H141795   2.731   6.576  12.984 -1.8381  1.8345 -0.0037
 6768TIP3    H241796   2.659   6.526  12.861 -1.9625 -0.0766  0.8121
 6769TIP3   OH241797   5.731   6.711  15.634  0.4819 -0.1670 -0.2247
 6769TIP3    H141798   5.749   6.686  15.543 -1.5100 -1.1588 -0.4064
 6769TIP3    H241799   5.812   6.692  15.681  1.2615 -0.4597 -1.6423
 6770TIP3   OH241800   3.470   2.134   1.053  0.0774  0.2290 -0.2149
 6770TIP3    H141801   3.539   2.086   1.098 -0.0345 -0.5983 -0.8879
 6770TIP3    H241802   3.436   2.071   0.989 -2.1486  0.1589  0.9236
 6771TIP3   OH241803   1.650   5.872   5.008  0.2555  0.1045 -0.5064
 6771TIP3    H141804   1.727   5.911   5.049 -0.4360  0.4189  0.5280
 6771TIP3    H241805   1.600   5.835   5.081 -0.5151 -0.2044 -1.1743
 6772TIP3   OH241806   6.443   3.560  11.125  0.6756 -0.4387  0.9849
 6772TIP3    H141807   6.459   3.469  11.099 -0.3397 -0.4430  0.3238
 6772TIP3    H241808   6.513   3.609  11.083 -0.9243 -0.4457 -1.8951
 6773TIP3   OH241809   6.070   2.287  14.084 -0.2037  0.4099 -0.3992
 6773TIP3    H141810   6.006   2.359  14.078 -1.4752 -0.6256  0.2676
 6773TIP3    H241811   6.101   2.291  14.174 -0.6875 -0.1899 -0.1963
 6774TIP3   OH241812   0.274   6.041  13.044  0.2074  0.0640  0.3266
 6774TIP3    H141813   0.220   5.981  12.992  0.2660 -0.8569  1.2924
 6774TIP3    H241814   0.361   6.002  13.043  0.9324  1.5809 -1.2849
 6775TIP3   OH241815   4.968   3.580  11.287  0.5689 -1.0864 -0.8988
 6775TIP3    H141816   4.893   3.526  11.259  0.2472 -2.6939  2.6013
 6775TIP3    H241817   4.938   3.623  11.367  3.0026 -0.8183 -0.0607
 6776TIP3   OH241818   1.767   2.866  13.193 -0.2262  0.5612 -0.1099
 6776TIP3    H141819   1.844   2.841  13.143 -0.1936 -0.7543  0.5620
 6776TIP3    H241820   1.747   2.955  13.164  0.7848  0.4448 -1.2067
 6777TIP3   OH241821   2.657   2.806  13.794 -0.0608  0.1848 -0.2740
 6777TIP3    H141822   2.684   2.858  13.719 -0.1107 -0.5175 -0.7849
 6777TIP3    H241823   2.736   2.796  13.846 -0.1220  1.0326 -0.0097
 6778TIP3   OH241824   5.595   3.657   5.438  0.1737 -0.7028  0.3004
 6778TIP3    H141825   5.607   3.751   5.449 -2.9042 -0.0814 -0.6454
 6778TIP3    H241826   5.576   3.624   5.526 -4.7915  0.7960  0.1259
 6779TIP3   OH241827   2.067   0.573   4.814  0.6512 -0.0877 -0.2593
 6779TIP3    H141828   2.005   0.627   4.765  0.4838  0.8137  0.9008
 6779TIP3    H241829   2.033   0.484   4.806 -0.0842  0.2220 -0.6996
 6780TIP3   OH241830   4.940   0.539   3.801  0.0867 -0.5347 -0.0568
 6780TIP3    H141831   4.909   0.540   3.710  2.9523  0.1629 -1.1385
 6780TIP3    H241832   5.029   0.503   3.796  0.4162 -0.2640  2.4541
 6781TIP3   OH241833   6.588   3.468  11.882  0.0428 -0.1732 -0.0765
 6781TIP3    H141834   6.493   3.459  11.888 -0.0891  0.4113 -0.9676
 6781TIP3    H241835   6.605   3.559  11.908  0.5689 -0.8014  1.8803
 6782TIP3   OH241836   6.829   0.820  15.188 -0.2020  0.4428 -0.0946
 6782TIP3    H141837   6.844   0.911  15.212  0.8689  0.0272  0.9274
 6782TIP3    H241838   6.860   0.770  15.264 -0.9438 -0.7632 -0.5524
 6783TIP3   OH241839   6.141   1.165  16.135  0.4852 -0.3499 -0.0487
 6783TIP3    H141840   6.186   1.249  16.128  0.5778 -0.3256  0.7390
 6783TIP3    H241841   6.086   1.173  16.213  1.3721 -1.4221  0.7230
 6784TIP3   OH241842   3.088   0.035  11.932 -0.7448 -0.3463  0.0411
 6784TIP3    H141843   3.151   0.102  11.908  0.8576 -1.8121 -0.0461
 6784TIP3    H241844   3.096  -0.032  11.864  0.3185 -2.2533  1.9146
 6785TIP3   OH241845   2.366   0.669  14.623 -0.4417 -0.5116 -0.1485
 6785TIP3    H141846   2.431   0.726  14.583 -0.2348 -0.1751  0.6427
 6785TIP3    H241847   2.377   0.584  14.579 -0.1708 -0.1817 -0.7279
 6786TIP3   OH241848   6.287   4.892  15.613 -0.1072 -0.3725 -0.6320
 6786TIP3    H141849   6.381   4.892  15.599  0.0353 -2.3034 -0.0708
 6786TIP3    H241850   6.276   4.868  15.705 -1.1449  3.3129  0.3726
 6787TIP3   OH241851   1.682   5.036   1.903  0.0464  0.3968  0.4596
 6787TIP3    H141852   1.719   5.096   1.838 -0.6466 -0.2283 -0.5410
 6787TIP3    H241853   1.660   5.092   1.978 -0.4360  1.3788 -0.3877
 6788TIP3   OH241854   2.854   3.315  15.197 -0.5984 -0.3193 -0.3068
 6788TIP3    H141855   2.888   3.395  15.238  0.0156 -0.8407  0.2272
 6788TIP3    H241856   2.807   3.345  15.120 -0.1142  0.5348 -0.2766
 6789TIP3   OH241857   0.554   5.991  13.091 -0.0265 -0.7854 -0.2672
 6789TIP3    H141858   0.650   5.993  13.085  0.0177  2.1761  0.0023
 6789TIP3    H241859   0.535   5.912  13.140  2.3771 -0.8924  0.6376
 6790TIP3   OH241860   5.254   2.551   1.927  0.2022 -0.6016  0.1600
 6790TIP3    H141861   5.239   2.581   2.017 -0.6518 -2.5650  0.7364
 6790TIP3    H241862   5.317   2.480   1.935  1.0886  0.0103 -0.9830
 6791TIP3   OH241863   3.190   1.855  11.259 -0.0563 -0.0674 -0.1491
 6791TIP3    H141864   3.249   1.794  11.303  0.3260  0.9832  0.8364
 6791TIP3    H241865   3.133   1.799  11.207 -0.4976 -1.3754  1.6444
 6792TIP3   OH241866   5.329   2.562   4.084  0.0045 -0.3974 -0.0252
 6792TIP3    H141867   5.308   2.645   4.128  0.4773 -0.3769  0.1757
 6792TIP3    H241868   5.388   2.517   4.145  1.8400  0.2479 -1.2149
 6793TIP3   OH241869   3.615   1.317  12.194  0.2237  0.9260 -0.2074
 6793TIP3    H141870   3.644   1.258  12.124 -0.6760 -1.4283  1.2780
 6793TIP3    H241871   3.692   1.327  12.251 -0.2718 -0.9388  0.8660
 6794TIP3   OH241872   5.125   1.245   2.095 -0.4712 -0.6256 -0.1124
 6794TIP3    H141873   5.174   1.282   2.022 -2.0047 -0.4911 -1.1414
 6794TIP3    H241874   5.078   1.170   2.056 -0.5926 -1.1223  0.9590
 6795TIP3   OH241875   1.229   1.718  13.236  0.8631  0.4141  0.5901
 6795TIP3    H141876   1.193   1.633  13.262  0.5401  0.9807  2.0911
 6795TIP3    H241877   1.154   1.777  13.236  1.2060  0.8563  0.2486
 6796TIP3   OH241878   0.681   3.341   6.038  0.5947 -0.3406  0.9628
 6796TIP3    H141879   0.640   3.381   6.114 -0.0469 -0.9592  0.9548
 6796TIP3    H241880   0.638   3.255   6.030  1.1496 -0.5695  0.3266
 6797TIP3   OH241881   2.589   2.963  11.976  0.2441 -0.0067 -0.7103
 6797TIP3    H141882   2.495   2.973  11.960 -0.3177  0.2410  2.1890
 6797TIP3    H241883   2.624   3.051  11.969  0.2850 -0.0971 -1.7814
 6798TIP3   OH241884   0.342   6.407  16.267 -0.1354  0.1166 -0.7048
 6798TIP3    H141885   0.320   6.473  16.333 -1.3207 -0.0472 -0.9172
 6798TIP3    H241886   0.437   6.396  16.275 -0.0942  0.9718  0.1492
 6799TIP3   OH241887   6.537   2.082  12.085  0.3648 -0.3071 -0.1884
 6799TIP3    H141888   6.538   2.098  11.990  1.2678 -1.5716 -0.4255
 6799TIP3    H241889   6.565   1.991  12.093 -1.0063 -0.6342  1.2346
 6800TIP3   OH241890   5.593   0.793  13.114 -0.0800 -0.1788  1.1179
 6800TIP3    H141891   5.592   0.743  13.032  3.1346  1.1958  0.0930
 6800TIP3    H241892   5.528   0.862  13.101 -0.7395 -0.9067  0.4131
 6801TIP3   OH241893   4.078   0.975   5.737 -0.5505  0.5647 -0.2129
 6801TIP3    H141894   4.086   1.043   5.804 -2.5081  0.3559  0.2916
 6801TIP3    H241895   4.152   0.990   5.678  0.1944  1.8667  0.9898
 6802TIP3   OH241896   3.814   2.708   0.248 -0.0319  0.1745 -0.0588
 6802TIP3    H141897   3.794   2.749   0.164 -2.4151 -0.8754 -0.1063
 6802TIP3    H241898   3.729   2.703   0.293  0.7492 -1.4878  1.3708
 6803TIP3   OH241899   4.581   4.692   1.618 -0.4168 -0.2135  0.8016
 6803TIP3    H141900   4.637   4.763   1.651 -1.7281  0.4413  1.7305
 6803TIP3    H241901   4.503   4.737   1.585 -0.8705 -1.1697  0.5501
 6804TIP3   OH241902   2.091   2.632  11.153  0.2186 -0.0456 -0.5135
 6804TIP3    H141903   2.123   2.593  11.071  2.0861  1.8219 -0.7441
 6804TIP3    H241904   2.166   2.679  11.189 -1.2942  1.4363  0.8920
 6805TIP3   OH241905   5.325   1.015   1.991  0.1865  0.0676  0.5446
 6805TIP3    H141906   5.233   0.992   1.977  0.1946 -0.1161  0.7895
 6805TIP3    H241907   5.328   1.049   2.080  0.3998 -0.1593  0.6252
 6806TIP3   OH241908   4.704   4.221  11.822 -0.3105  0.3915  0.0496
 6806TIP3    H141909   4.709   4.133  11.786 -0.2653  0.7687 -0.8955
 6806TIP3    H241910   4.668   4.274  11.751  0.8017  1.3588  0.1835
 6807TIP3   OH241911   4.933   1.127   2.461 -0.8280 -0.0717 -0.5244
 6807TIP3    H141912   4.994   1.072   2.510 -0.5165 -0.7131 -1.6128
 6807TIP3    H241913   4.969   1.215   2.469  0.6867 -0.5405 -1.7737
 6808TIP3   OH241914   3.016   6.819   2.363  0.0294 -0.2266 -0.0460
 6808TIP3    H141915   3.071   6.884   2.319 -0.3360  0.2267  0.1587
 6808TIP3    H241916   3.052   6.813   2.451 -0.2046  0.0264  0.0697
 6809TIP3   OH241917   2.622   4.011  12.624  0.2316 -0.2005 -0.0734
 6809TIP3    H141918   2.677   4.071  12.573 -0.9106  1.5798  0.7117
 6809TIP3    H241919   2.682   3.940  12.648  1.0095 -0.7492 -3.1681
 6810TIP3   OH241920   5.603   2.547   0.735  0.4619  0.1855  0.2630
 6810TIP3    H141921   5.686   2.557   0.783  0.9804  2.8759 -1.0270
 6810TIP3    H241922   5.572   2.460   0.761  3.0335 -0.4158  1.7834
 6811TIP3   OH241923   2.931   2.557  16.172  0.8009  0.2555  0.5440
 6811TIP3    H141924   2.958   2.491  16.237 -0.4045  0.0281  0.8394
 6811TIP3    H241925   3.008   2.568  16.116  1.2384 -0.9453  0.8726
 6812TIP3   OH241926   5.437   1.223   0.227  0.2873  0.6726  0.6640
 6812TIP3    H141927   5.344   1.241   0.247 -0.1329 -0.1960 -0.4393
 6812TIP3    H241928   5.435   1.166   0.151  1.7668  1.2479  0.1580
 6813TIP3   OH241929   2.868   3.561  14.394  0.4167 -0.0606 -0.0547
 6813TIP3    H141930   2.785   3.607  14.406  0.2396  0.3898 -2.5146
 6813TIP3    H241931   2.927   3.603  14.457 -0.8525  0.5629  0.7663
 6814TIP3   OH241932   4.903   0.443  14.524 -0.0397 -0.4102 -0.3832
 6814TIP3    H141933   4.834   0.377  14.529 -0.6365  0.1823 -0.7057
 6814TIP3    H241934   4.871   0.506  14.460  0.6812  0.0145 -0.3321
 6815TIP3   OH241935   4.181   0.087   5.725  0.2170 -0.4981  0.0198
 6815TIP3    H141936   4.246   0.027   5.689  0.4831 -0.9191  1.1483
 6815TIP3    H241937   4.101   0.070   5.674 -0.0413 -2.6624  1.0566
 6816TIP3   OH241938   3.651   4.934  11.974  0.6764  0.2801 -0.3274
 6816TIP3    H141939   3.608   5.017  11.996  1.0510  0.7343 -1.2395
 6816TIP3    H241940   3.588   4.867  12.001  0.9799  0.7709  1.7841
 6817TIP3   OH241941   5.687   2.996   4.433  0.3752  0.0356  0.6738
 6817TIP3    H141942   5.704   2.947   4.353  0.5125  1.5517 -0.2709
 6817TIP3    H241943   5.717   2.939   4.504 -0.1757 -1.5274 -0.3052
 6818TIP3   OH241944   2.155   1.489  10.066  0.4054  0.2611  0.3552
 6818TIP3    H141945   2.106   1.453  10.139  0.7957 -0.9464  0.0559
 6818TIP3    H241946   2.206   1.561  10.103 -0.3803  0.4982  0.9891
 6819TIP3   OH241947   2.641   2.120   1.510 -0.1142 -1.1567  0.2902
 6819TIP3    H141948   2.548   2.107   1.491 -0.1744 -0.3031 -0.0620
 6819TIP3    H241949   2.685   2.051   1.462 -0.4591 -0.5845 -0.8962
 6820TIP3   OH241950   4.018   1.444  16.945  0.0292  0.4249 -0.2623
 6820TIP3    H141951   3.994   1.467  16.855  0.3470  1.4810 -0.0837
 6820TIP3    H241952   4.079   1.512  16.972  1.3567 -0.8753  0.1378
 6821TIP3   OH241953   0.304   5.736   2.545 -0.7064  0.2355 -0.0927
 6821TIP3    H141954   0.220   5.782   2.537 -1.4898 -1.3982 -1.7906
 6821TIP3    H241955   0.283   5.644   2.532  1.0854 -0.4774  1.5021
 6822TIP3   OH241956   2.263   3.684  12.921 -0.0139  0.2702  0.6393
 6822TIP3    H141957   2.289   3.735  12.844 -0.2407  0.0041  0.3828
 6822TIP3    H241958   2.170   3.665  12.907 -0.1278  0.4558  1.1142
 6823TIP3   OH241959   1.735   2.215  16.924  0.0377 -0.0694  0.1735
 6823TIP3    H141960   1.770   2.292  16.969 -1.1577  0.2319  0.6164
 6823TIP3    H241961   1.699   2.250  16.843  2.5889 -0.6666 -1.3341
 6824TIP3   OH241962   6.813   2.455  11.067  0.0402  0.1986 -0.3424
 6824TIP3    H141963   6.786   2.387  11.128  1.8734  0.9418  1.3819
 6824TIP3    H241964   6.736   2.468  11.010 -0.4612 -3.0781 -0.6069
 6825TIP3   OH241965   2.327   2.666  11.273 -0.5287 -0.4069 -0.0958
 6825TIP3    H141966   2.368   2.628  11.195  0.3099 -0.5857  0.4210
 6825TIP3    H241967   2.340   2.600  11.341  0.1029  0.3841  0.5743
 6826TIP3   OH241968   1.221   6.272  15.783  0.1520 -0.7613  0.3596
 6826TIP3    H141969   1.288   6.292  15.849  1.1133 -2.4221 -0.0460
 6826TIP3    H241970   1.141   6.312  15.817  1.1402  0.5169  1.3058
 6827TIP3   OH241971   2.337   2.717   2.922 -0.5343 -0.4143 -0.0343
 6827TIP3    H141972   2.388   2.768   2.858 -3.1875  0.1278 -1.8984
 6827TIP3    H241973   2.332   2.774   2.999  0.6090  0.0202 -0.2565
 6828TIP3   OH241974   4.020   3.219  11.380 -0.2111 -0.2651  0.6236
 6828TIP3    H141975   3.969   3.262  11.311  1.6235  0.7876 -0.1614
 6828TIP3    H241976   4.027   3.128  11.352  2.3546  0.5547 -1.8872
 6829TIP3   OH241977   4.348   6.196  16.528 -0.0108 -1.0849  0.0721
 6829TIP3    H141978   4.425   6.146  16.555 -0.5505 -1.1951  1.4538
 6829TIP3    H241979   4.327   6.162  16.441  1.7658 -0.7269 -0.5414
 6830TIP3   OH241980   2.285   4.227  15.430  0.6021  0.0984 -0.3381
 6830TIP3    H141981   2.265   4.295  15.493  3.2192 -0.1240  0.8616
 6830TIP3    H241982   2.261   4.145  15.474 -1.6567  0.0990 -1.4170
 6831TIP3   OH241983   4.886   4.451   5.280 -0.0063 -0.3239 -0.4558
 6831TIP3    H141984   4.809   4.507   5.267  0.7041  0.9163  0.5027
 6831TIP3    H241985   4.884   4.391   5.205 -0.6303  1.1800 -1.7101
 6832TIP3   OH241986   0.588   2.453  12.646  0.2333 -0.2469  0.1011
 6832TIP3    H141987   0.620   2.463  12.557  1.7747 -0.9441  0.5319
 6832TIP3    H241988   0.526   2.380  12.641  0.1656 -0.1562 -0.4333
 6833TIP3   OH241989   0.343   2.840  16.144 -0.8949 -0.3460 -0.3626
 6833TIP3    H141990   0.359   2.746  16.148 -0.7248 -0.2849  0.5830
 6833TIP3    H241991   0.263   2.848  16.093 -1.4521 -1.0841  0.3617
 6834TIP3   OH241992   0.693   2.242   5.190  0.0795 -0.8402 -0.0116
 6834TIP3    H141993   0.709   2.312   5.126 -0.5971  0.1588  0.8700
 6834TIP3    H241994   0.608   2.264   5.228  0.0236 -1.9576  0.5402
 6835TIP3   OH241995   1.053   2.864   5.132  0.1471  0.1000  0.2426
 6835TIP3    H141996   1.148   2.863   5.119  0.2773  0.6385  1.1209
 6835TIP3    H241997   1.038   2.805   5.206 -0.3488 -1.0491 -0.7440
 6836TIP3   OH241998   1.352   3.175  12.346  0.0038  0.0929 -0.1298
 6836TIP3    H141999   1.409   3.251  12.360  0.6111 -0.4633  0.4681
 6836TIP3    H242000   1.314   3.190  12.259  1.1241  0.4325 -0.5796
 6837TIP3   OH242001   4.856   0.017   3.012  0.1340  0.0130 -0.4487
 6837TIP3    H142002   4.768   0.036   3.045  0.7246 -0.2575  1.3934
 6837TIP3    H242003   4.877   0.092   2.956 -1.5621 -0.3032 -1.5747
 6838TIP3   OH242004   0.139   6.397   4.976  0.5249  0.6415 -0.5219
 6838TIP3    H142005   0.211   6.422   4.917  0.7809 -0.1391 -0.5554
 6838TIP3    H242006   0.153   6.304   4.991 -0.9601  0.2830 -1.1976
 6839TIP3   OH242007   4.593   0.795  15.409 -0.0668 -0.5574 -0.1628
 6839TIP3    H142008   4.541   0.730  15.363  1.8388 -0.0648 -3.2387
 6839TIP3    H242009   4.572   0.878  15.366  0.4247  0.2750  1.1277
 6840TIP3   OH242010   6.477   6.199   2.359 -0.2664  0.4380  0.0805
 6840TIP3    H142011   6.394   6.232   2.395  0.2646  1.7357  0.1644
 6840TIP3    H242012   6.474   6.104   2.375 -1.0807  0.6636  1.4118
 6841TIP3   OH242013   1.514   6.342   0.979 -0.0438  0.5107  0.2390
 6841TIP3    H142014   1.605   6.369   0.973  0.8566 -2.2921 -0.0721
 6841TIP3    H242015   1.495   6.342   1.073  0.3866  0.6906  0.3273
 6842TIP3   OH242016   5.084   2.774  13.259  0.3418 -0.0955 -0.6969
 6842TIP3    H142017   5.161   2.829  13.245  1.3306 -0.6484  1.9552
 6842TIP3    H242018   5.038   2.774  13.174  1.3534  3.0912 -1.3757
 6843TIP3   OH242019   2.534   3.627  16.159 -0.4556  0.1645  0.0732
 6843TIP3    H142020   2.618   3.589  16.133 -0.8834 -1.2502  0.6706
 6843TIP3    H242021   2.469   3.569  16.119 -1.1232 -0.1055  1.4886
 6844TIP3   OH242022   1.568   2.999   1.252  0.0603  0.1089 -0.1072
 6844TIP3    H142023   1.639   2.959   1.303 -0.6897 -0.6145  0.3820
 6844TIP3    H242024   1.583   2.966   1.163 -1.3743 -2.5619  0.5185
 6845TIP3   OH242025   3.838   2.862   2.649  0.6231 -0.2747 -0.5250
 6845TIP3    H142026   3.910   2.805   2.623  1.1420 -0.0386  0.3462
 6845TIP3    H242027   3.876   2.949   2.658  0.2151 -0.1254 -0.1528
 6846TIP3   OH242028   5.622   5.101  13.804  0.2670  0.5129 -0.4951
 6846TIP3    H142029   5.599   5.008  13.795 -0.4599  0.5660  0.6254
 6846TIP3    H242030   5.647   5.128  13.715 -1.4103 -0.2627 -1.2653
 6847TIP3   OH242031   2.101   0.802  16.377  0.2627 -0.1166 -0.0175
 6847TIP3    H142032   2.043   0.873  16.403 -0.2616 -0.5491  0.0274
 6847TIP3    H242033   2.075   0.782  16.287 -0.2471 -0.8780  0.2907
 6848TIP3   OH242034   6.363   1.007   5.203  0.2112 -0.5610 -0.6797
 6848TIP3    H142035   6.318   0.928   5.234  1.1582 -0.5187  0.9375
 6848TIP3    H242036   6.444   1.009   5.253  1.3271  0.1849 -2.4329
 6849TIP3   OH242037   2.829   6.307   1.888  0.3643 -0.1246  0.2138
 6849TIP3    H142038   2.826   6.298   1.793  1.4858  1.9484 -0.0809
 6849TIP3    H242039   2.914   6.269   1.913  0.8944  0.9785  0.1338
 6850TIP3   OH242040   6.765   0.026  10.464 -0.3276 -0.1773  0.4737
 6850TIP3    H142041   6.767  -0.054  10.517  0.5318 -0.3963  0.1188
 6850TIP3    H242042   6.830   0.012  10.396  0.0864  0.9735  0.6063
 6851TIP3   OH242043   6.786   4.708  16.981  0.1607 -0.1981 -0.0827
 6851TIP3    H142044   6.812   4.616  16.983  1.5821  0.1862  1.1929
 6851TIP3    H242045   6.823   4.742  16.900  0.6904 -0.4798  0.0350
 6852TIP3   OH242046   4.712   2.469   0.179  0.0925  0.1605 -0.2300
 6852TIP3    H142047   4.732   2.554   0.218 -0.5584 -0.6580  2.1171
 6852TIP3    H242048   4.684   2.488   0.090 -0.2567  2.4155  0.3192
 6853TIP3   OH242049   6.111   1.056   3.342  0.1729 -0.6973  0.3283
 6853TIP3    H142050   6.056   1.028   3.415  0.2392 -1.8885 -0.0550
 6853TIP3    H242051   6.074   1.139   3.314 -1.2120 -1.2888  0.3251
 6854TIP3   OH242052   0.394   5.258  16.733  0.2523  0.1204  0.0837
 6854TIP3    H142053   0.476   5.289  16.771  1.1581 -1.5813 -0.3639
 6854TIP3    H242054   0.420   5.181  16.681 -1.0892  1.5761 -2.9865
 6855TIP3   OH242055   2.073   2.282  14.292  0.4430  0.0412  0.3953
 6855TIP3    H142056   2.137   2.288  14.221 -0.2016  0.6821 -0.1502
 6855TIP3    H242057   1.991   2.313  14.253 -0.0540 -0.1500  1.2607
 6856TIP3   OH242058   2.030   0.760   2.964  0.2714 -0.1361  0.6912
 6856TIP3    H142059   2.025   0.853   2.986 -0.2769  0.4298 -1.6382
 6856TIP3    H242060   2.021   0.716   3.049 -1.0572  1.8639  1.6815
 6857TIP3   OH242061   4.495   0.898  11.167 -0.4606 -0.0455 -0.5543
 6857TIP3    H142062   4.432   0.902  11.096  0.1635  0.8283 -1.0731
 6857TIP3    H242063   4.554   0.972  11.152  0.1939 -0.3501  0.3852
 6858TIP3   OH242064   4.267   6.635  13.620  0.3588  0.4383 -0.3481
 6858TIP3    H142065   4.360   6.658  13.625  0.2375  0.7676  0.6315
 6858TIP3    H242066   4.267   6.539  13.619  0.6952  0.4268  0.2098
 6859TIP3   OH242067   6.705   4.944  15.301  0.6709 -0.0448  0.4726
 6859TIP3    H142068   6.699   4.999  15.223 -0.8822 -2.0401 -0.8930
 6859TIP3    H242069   6.797   4.949  15.327  0.6423  3.0253  0.3492
 6860TIP3   OH242070   1.639   5.917   3.500 -0.4200  0.1298  0.9954
 6860TIP3    H142071   1.699   5.953   3.435 -1.8953  0.0680 -0.4786
 6860TIP3    H242072   1.619   5.990   3.558 -1.3380  1.0538 -0.4079
 6861TIP3   OH242073   4.755   4.117  16.366  0.0181  0.6409  0.3201
 6861TIP3    H142074   4.724   4.184  16.305 -0.1996 -0.4279 -0.7924
 6861TIP3    H242075   4.710   4.037  16.339  1.6556 -0.3715  0.4015
 6862TIP3   OH242076   1.708   0.794   3.202 -0.3017  0.1247 -0.6948
 6862TIP3    H142077   1.700   0.819   3.111 -0.3735  0.3034 -0.6388
 6862TIP3    H242078   1.796   0.824   3.228 -0.8084  1.3323 -0.3126
 6863TIP3   OH242079   3.438   3.420  11.360 -0.0077  0.2960  0.0849
 6863TIP3    H142080   3.525   3.416  11.322  0.6311 -0.9125  1.5699
 6863TIP3    H242081   3.379   3.395  11.288  0.8795  0.8234 -0.8469
 6864TIP3   OH242082   1.616   0.075  16.639 -0.0403  0.3155  0.3066
 6864TIP3    H142083   1.584  -0.007  16.601 -1.6445  0.8289  0.4681
 6864TIP3    H242084   1.644   0.127  16.563 -1.9613  0.8041 -0.1415
 6865TIP3   OH242085   2.946   2.839   3.233 -0.2893 -0.1156  0.6776
 6865TIP3    H142086   2.970   2.747   3.225  0.3053 -0.1055  2.1565
 6865TIP3    H242087   2.850   2.839   3.228 -0.3911 -0.9984  2.1593
 6866TIP3   OH242088   6.388   4.166  14.706 -0.0419  0.2447  0.0019
 6866TIP3    H142089   6.411   4.126  14.622 -0.6154 -1.3383  0.5601
 6866TIP3    H242090   6.315   4.224  14.685 -0.3882 -0.3758 -0.5487
 6867TIP3   OH242091   4.494   0.504  12.549 -0.0334  0.1633 -0.0487
 6867TIP3    H142092   4.456   0.564  12.614  1.1757  0.9447 -0.0292
 6867TIP3    H242093   4.475   0.417  12.583  0.1771  0.5568  1.1166
 6868TIP3   OH242094   0.350   1.153   3.366  0.5488  0.7010  0.2851
 6868TIP3    H142095   0.265   1.116   3.345  0.1818  0.7354  1.6571
 6868TIP3    H242096   0.343   1.245   3.340 -0.2409  0.9850  1.4530
 6869TIP3   OH242097   3.528   0.448   4.925  0.6251 -0.0378  0.4282
 6869TIP3    H142098   3.442   0.481   4.947 -0.5752 -1.4132 -1.8184
 6869TIP3    H242099   3.542   0.374   4.983 -1.2303 -1.8534 -1.2921
 6870TIP3   OH242100   6.744   1.363  10.685  0.0394 -0.0187  0.9825
 6870TIP3    H142101   6.797   1.426  10.637  0.2690 -0.9368 -0.0152
 6870TIP3    H242102   6.805   1.324  10.749  0.6786 -1.1908 -0.2718
 6871TIP3   OH242103   5.811   6.022  12.635 -0.1676 -0.3630  0.5441
 6871TIP3    H142104   5.819   6.116  12.648 -0.7313 -0.1821 -0.3014
 6871TIP3    H242105   5.874   6.001  12.566 -1.5261 -0.1998 -0.8227
 6872TIP3   OH242106   1.467   4.584   5.869 -0.6320  0.0315 -0.1692
 6872TIP3    H142107   1.486   4.593   5.775 -1.9956  2.0083 -0.3299
 6872TIP3    H242108   1.372   4.597   5.875 -0.5874 -0.2475  1.4684
 6873TIP3   OH242109   5.272   5.487   0.492  0.1720  0.5564 -0.0302
 6873TIP3    H142110   5.316   5.558   0.445 -0.3087 -0.6460 -2.4511
 6873TIP3    H242111   5.239   5.429   0.424 -0.1507 -1.6194  1.8291
 6874TIP3   OH242112   1.473   2.639   5.547  0.3866  0.2998 -0.2424
 6874TIP3    H142113   1.521   2.587   5.611  2.2117 -0.1154 -1.8672
 6874TIP3    H242114   1.431   2.708   5.599  0.3600 -1.0051  1.5776
 6875TIP3   OH242115   1.811   3.825   4.147  0.5950 -0.5055  0.1296
 6875TIP3    H142116   1.829   3.870   4.064  1.5055  0.4032  0.7961
 6875TIP3    H242117   1.717   3.840   4.162  0.6955  0.4029 -0.1075
 6876TIP3   OH242118   6.119   1.710  12.061  0.4960  0.0289 -0.7003
 6876TIP3    H142119   6.214   1.718  12.053  0.3852  3.0503 -0.1732
 6876TIP3    H242120   6.105   1.683  12.152  0.8740  4.6506  0.9657
 6877TIP3   OH242121   5.819   5.795   0.587  0.1489  0.3655 -0.3440
 6877TIP3    H142122   5.791   5.725   0.646 -0.7769 -1.1976 -2.5076
 6877TIP3    H242123   5.737   5.839   0.562  0.2405 -0.4005 -2.0999
 6878TIP3   OH242124   1.774   5.272   2.972 -0.8980  0.0708  0.0757
 6878TIP3    H142125   1.782   5.249   2.879  2.5465  0.9000  0.0181
 6878TIP3    H242126   1.762   5.367   2.972  2.4669  0.6198  0.3564
 6879TIP3   OH242127   2.833   6.318  17.041  0.2009 -0.1818  0.4135
 6879TIP3    H142128   2.911   6.311  16.986 -0.2781 -0.1609 -0.2906
 6879TIP3    H242129   2.770   6.259  16.999 -0.4721  0.5246  0.4169
 6880TIP3   OH242130   5.981   4.694   3.948 -0.1851  0.6426 -0.1088
 6880TIP3    H142131   6.043   4.626   3.924  0.6641  0.7368  1.6677
 6880TIP3    H242132   5.909   4.684   3.886  0.6144 -0.8744 -0.8377
 6881TIP3   OH242133   1.941   2.168  13.050 -0.1497 -0.4026  0.3597
 6881TIP3    H142134   1.908   2.257  13.067 -0.6951 -0.8100  1.5318
 6881TIP3    H242135   1.884   2.134  12.981  0.5439  0.4123 -0.6479
 6882TIP3   OH242136   1.904   5.293  15.530  0.0879  0.3447 -0.9046
 6882TIP3    H142137   1.840   5.235  15.489  0.9937 -0.9180 -0.6302
 6882TIP3    H242138   1.940   5.241  15.602  0.7428  1.3681 -0.4683
 6883TIP3   OH242139   4.497   6.116  12.989 -0.7010  0.6642 -0.2318
 6883TIP3    H142140   4.436   6.063  12.937 -0.7565  0.1157  0.3679
 6883TIP3    H242141   4.500   6.201  12.945 -1.1886  0.3987 -0.7902
 6884TIP3   OH242142   5.591   2.466   1.901  0.1548 -0.2855 -0.5680
 6884TIP3    H142143   5.565   2.529   1.833 -1.2923 -0.9042 -0.6346
 6884TIP3    H242144   5.678   2.436   1.874  0.6812  1.3301 -0.7800
 6885TIP3   OH242145   0.538   6.026  11.157  0.3543 -0.0749 -0.0407
 6885TIP3    H142146   0.482   5.967  11.107  0.9782  0.6374 -1.6594
 6885TIP3    H242147   0.608   6.050  11.096  0.9891  1.0862  1.0884
 6886TIP3   OH242148   0.675   6.090  17.065 -0.0858  0.0572 -0.2764
 6886TIP3    H142149   0.673   6.169  17.010  1.4482  0.2774 -0.0629
 6886TIP3    H242150   0.667   6.123  17.154  0.7002 -0.0126 -0.1785
 6887TIP3   OH242151   2.557   0.929   2.495  0.7845 -0.5194 -0.0791
 6887TIP3    H142152   2.504   0.953   2.570 -0.3102 -2.0055 -0.3276
 6887TIP3    H242153   2.516   0.849   2.461  1.9547 -0.5502 -1.5359
 6888TIP3   OH242154   1.591   2.944  12.421 -0.0043  0.2239 -0.6530
 6888TIP3    H142155   1.504   2.943  12.462  0.1285 -0.2930 -0.3704
 6888TIP3    H242156   1.574   2.917  12.331  0.0093 -1.2370 -0.2510
 6889TIP3   OH242157   3.728   3.448  16.553  0.2517 -0.0018 -0.7624
 6889TIP3    H142158   3.663   3.513  16.527 -1.2462 -1.2707 -0.3485
 6889TIP3    H242159   3.694   3.413  16.636  1.1127 -1.1741 -0.8849
 6890TIP3   OH242160   3.774   3.260   3.991 -0.0317 -0.4230 -0.2027
 6890TIP3    H142161   3.793   3.353   3.983  1.5502 -0.6486  0.5858
 6890TIP3    H242162   3.687   3.250   3.952 -0.7382  1.5570  0.6925
 6891TIP3   OH242163   3.075   6.565  13.417  0.6410 -0.1303  0.3403
 6891TIP3    H142164   3.118   6.486  13.452  1.5254  1.2780  2.6027
 6891TIP3    H242165   3.124   6.583  13.336  2.6701 -0.0640  1.5031
 6892TIP3   OH242166   3.097   4.446  17.068 -0.1401 -0.3862 -0.0057
 6892TIP3    H142167   3.055   4.516  17.019 -0.3103 -1.3853 -1.3541
 6892TIP3    H242168   3.161   4.490  17.123 -1.7661  1.0132  0.8397
 6893TIP3   OH242169   1.395   4.855  14.642  0.2663 -0.1693  0.2003
 6893TIP3    H142170   1.343   4.775  14.654  1.8612 -1.2347  0.2491
 6893TIP3    H242171   1.485   4.824  14.633  0.6964  1.4673 -1.9736
 6894TIP3   OH242172   3.588   5.499   1.297  0.0032  0.1919 -0.4745
 6894TIP3    H142173   3.535   5.575   1.276 -0.0518  0.3993  0.3757
 6894TIP3    H242174   3.619   5.515   1.386 -1.1658 -1.4248  0.2833
 6895TIP3   OH242175   6.650   2.690   4.249  0.4024 -0.1254 -0.2188
 6895TIP3    H142176   6.652   2.786   4.255  1.0025  0.0216 -2.0700
 6895TIP3    H242177   6.684   2.671   4.162  1.7752 -2.1219  0.6741
 6896TIP3   OH242178   6.013   6.382  11.870  0.3208 -0.7891 -0.1278
 6896TIP3    H142179   6.023   6.457  11.811  2.1569  0.0431  1.1593
 6896TIP3    H242180   5.983   6.420  11.953  1.0896 -1.4760  0.4866
 6897TIP3   OH242181   4.998   2.706  11.593 -0.2284  0.9772 -0.6397
 6897TIP3    H142182   5.016   2.759  11.671  2.8270 -0.3292 -0.3062
 6897TIP3    H242183   5.008   2.616  11.622 -1.6552  0.3313 -2.0253
 6898TIP3   OH242184   1.054   5.868   4.056 -0.4930  0.5418 -0.3071
 6898TIP3    H142185   0.995   5.822   3.996 -0.3467 -0.7223  0.4806
 6898TIP3    H242186   1.007   5.871   4.139 -0.1094  0.9641 -0.0992
 6899TIP3   OH242187   0.746   4.855  15.148 -0.5124 -0.0415  0.2607
 6899TIP3    H142188   0.837   4.844  15.120 -0.6060  1.1673 -0.5955
 6899TIP3    H242189   0.697   4.867  15.066 -1.7290 -2.3032  0.5673
 6900TIP3   OH242190   6.539   0.031   0.189  0.1111  0.3682  0.0824
 6900TIP3    H142191   6.479   0.073   0.128 -0.0600  1.4498  0.9745
 6900TIP3    H242192   6.531  -0.063   0.169  0.3444  0.6950 -1.8021
 6901TIP3   OH242193   5.900   4.168  15.494  0.6660  0.6330 -0.1177
 6901TIP3    H142194   5.881   4.103  15.561 -1.1798  0.7290 -0.4913
 6901TIP3    H242195   5.819   4.173  15.442  0.8602  3.0074 -0.2787
 6902TIP3   OH242196   1.754   3.139   5.285 -0.3989  0.3798 -0.5142
 6902TIP3    H142197   1.757   3.136   5.380 -1.8037  1.4294 -0.4145
 6902TIP3    H242198   1.846   3.136   5.258  0.1182  1.8100  0.9396
 6903TIP3   OH242199   3.612   3.809   4.131  0.5730  0.6987  0.3648
 6903TIP3    H142200   3.598   3.819   4.037 -0.8647  0.0729  0.4846
 6903TIP3    H242201   3.534   3.762   4.162  2.3031 -1.6787  1.4070
 6904TIP3   OH242202   3.613   1.974   5.607 -0.1456  0.6883  0.3769
 6904TIP3    H142203   3.669   1.985   5.684  0.1699  0.6457  0.1530
 6904TIP3    H242204   3.593   1.881   5.606 -1.6682  0.9608  1.4647
 6905TIP3   OH242205   0.732   2.709  13.960  0.0214 -0.0994 -0.1149
 6905TIP3    H142206   0.658   2.656  13.931 -0.7451  0.6242  0.4791
 6905TIP3    H242207   0.692   2.790  13.993  1.1211  0.6005 -0.4534
 6906TIP3   OH242208   4.229   6.839  16.340 -0.1773  0.0556  0.0470
 6906TIP3    H142209   4.302   6.871  16.286 -0.4603  1.4516  0.4439
 6906TIP3    H242210   4.160   6.904  16.327 -0.4921  0.0512  1.5420
 6907TIP3   OH242211   5.047   0.767   1.353 -0.1445 -0.0913 -0.7111
 6907TIP3    H142212   5.092   0.742   1.272  1.2631 -1.0637  0.3120
 6907TIP3    H242213   5.045   0.863   1.351  0.0045 -0.0958 -1.8157
 6908TIP3   OH242214   2.464   2.217   2.510 -0.2702  0.3015 -0.6124
 6908TIP3    H142215   2.433   2.133   2.475  0.6315  0.3764 -1.6571
 6908TIP3    H242216   2.557   2.219   2.488 -0.4277  1.8815 -1.2470
 6909TIP3   OH242217   0.560   4.308   4.835 -0.3091 -0.7892  0.4703
 6909TIP3    H142218   0.480   4.338   4.793 -1.0373 -0.9289  1.7234
 6909TIP3    H242219   0.602   4.252   4.769 -0.9737 -0.3265 -0.3709
 6910TIP3   OH242220   3.081   4.706  11.889  0.3803  0.6428 -0.1546
 6910TIP3    H142221   3.052   4.718  11.979 -0.3652  1.9377 -0.5352
 6910TIP3    H242222   3.094   4.612  11.880  0.8001  0.5158  1.3890
 6911TIP3   OH242223   2.120   4.607   6.141 -0.4483 -0.2355 -0.0123
 6911TIP3    H142224   2.028   4.633   6.139 -0.4907 -0.3935 -0.1523
 6911TIP3    H242225   2.132   4.568   6.227 -0.4504  0.0114  0.0996
 6912TIP3   OH242226   4.125   3.917   1.881 -0.2531 -0.2179  0.3502
 6912TIP3    H142227   4.059   3.850   1.900 -0.0033 -0.6372 -0.2446
 6912TIP3    H242228   4.075   3.989   1.842 -0.3545 -0.5750 -0.1930
 6913TIP3   OH242229   0.378   5.521  17.068  0.4931 -0.5047 -0.4209
 6913TIP3    H142230   0.455   5.468  17.049 -0.2576 -1.5276 -0.6738
 6913TIP3    H242231   0.382   5.537  17.162 -0.5068 -3.0810  0.1484
 6914TIP3   OH242232   6.779   6.652  15.072  0.1944  0.4934 -0.0139
 6914TIP3    H142233   6.857   6.668  15.019  0.5641  0.5410  0.5395
 6914TIP3    H242234   6.810   6.601  15.146 -0.6742 -1.3332 -0.8584
 6915TIP3   OH242235   4.718   0.170   3.583  0.1665 -0.4862  0.2447
 6915TIP3    H142236   4.805   0.135   3.606  0.8489  1.2123  0.3490
 6915TIP3    H242237   4.734   0.229   3.510 -1.1516 -1.3108 -0.7452
 6916TIP3   OH242238   1.549   3.965   0.204  0.6607  0.5253 -0.7827
 6916TIP3    H142239   1.639   3.946   0.234  0.8522 -0.1175 -1.7217
 6916TIP3    H242240   1.494   3.916   0.265  0.9754  0.3892 -0.5991
 6917TIP3   OH242241   5.133   4.353   3.706 -1.1089  0.1053 -0.0989
 6917TIP3    H142242   5.166   4.429   3.657 -1.8607  1.1965  1.0257
 6917TIP3    H242243   5.058   4.387   3.755 -0.5711 -1.0025  1.5609
 6918TIP3   OH242244   0.497   3.914  15.731 -0.2107 -0.1542  0.0511
 6918TIP3    H142245   0.556   3.982  15.697 -2.0695  1.4761 -0.0952
 6918TIP3    H242246   0.410   3.954  15.726 -1.1506 -1.8758  1.7559
 6919TIP3   OH242247   1.397   2.240   1.168  0.0485  0.1214  0.2533
 6919TIP3    H142248   1.381   2.285   1.251  2.2678 -0.5486  1.1164
 6919TIP3    H242249   1.485   2.268   1.143 -0.4449  0.0451 -1.7344
 6920TIP3   OH242250   4.659   0.410   4.029  0.2507  0.1728 -0.6977
 6920TIP3    H142251   4.658   0.462   3.948 -3.6461  1.4335 -0.0227
 6920TIP3    H242252   4.593   0.342   4.015  0.6234 -0.5735  0.9111
 6921TIP3   OH242253   4.500   4.352   5.211 -0.1838 -0.7106  0.3050
 6921TIP3    H142254   4.419   4.369   5.162 -0.3520 -0.5053  0.6537
 6921TIP3    H242255   4.553   4.299   5.151 -1.2204 -2.2271  0.6473
 6922TIP3   OH242256   4.934   1.315  10.464 -0.2710  0.2994 -0.0996
 6922TIP3    H142257   5.022   1.344  10.440 -0.3096  0.8001  0.3636
 6922TIP3    H242258   4.946   1.223  10.490  0.2881  0.6614  0.9600
 6923TIP3   OH242259   0.242   5.639  12.460 -0.2364  0.2958  0.0934
 6923TIP3    H142260   0.268   5.728  12.482  0.0270  0.5620 -1.1959
 6923TIP3    H242261   0.313   5.605  12.405 -0.2759 -0.7532  0.6621
 6924TIP3   OH242262   1.829   6.758  13.989  0.2323 -0.0133 -0.4813
 6924TIP3    H142263   1.860   6.820  13.923  1.0576 -0.7668 -0.8180
 6924TIP3    H242264   1.736   6.779  14.000  0.7284  2.0438  0.2727
 6925TIP3   OH242265   3.404   4.086   0.497 -0.6084 -0.3168  0.2423
 6925TIP3    H142266   3.360   4.015   0.449 -0.9859  0.1251 -0.0661
 6925TIP3    H242267   3.492   4.089   0.459 -0.8086 -0.1704 -0.2095
 6926TIP3   OH242268   0.633   5.824   4.847 -0.5113  0.5637  0.1013
 6926TIP3    H142269   0.672   5.739   4.864 -1.5259  0.0108 -0.2404
 6926TIP3    H242270   0.708   5.883   4.837  0.2391 -0.4646 -0.5885
 6927TIP3   OH242271   0.532   5.336   3.389  0.7603 -0.2480  0.6487
 6927TIP3    H142272   0.559   5.247   3.366  1.1691 -0.3505  1.5091
 6927TIP3    H242273   0.603   5.370   3.443 -0.2431 -0.0680  1.8899
 6928TIP3   OH242274   2.257   6.163  15.606 -0.0521 -0.1449  0.0097
 6928TIP3    H142275   2.246   6.070  15.627  0.6889 -0.0406  0.9105
 6928TIP3    H242276   2.293   6.163  15.517  2.2936 -0.8445  0.8772
 6929TIP3   OH242277   2.695   0.147   5.940  0.4207 -0.1213 -0.1624
 6929TIP3    H142278   2.699   0.082   5.870 -0.4725  0.9913 -1.2842
 6929TIP3    H242279   2.616   0.126   5.989  0.4726 -0.2435 -0.1295
 6930TIP3   OH242280   5.794   3.943  13.514 -0.1710  0.0484 -1.1229
 6930TIP3    H142281   5.883   3.916  13.536  0.2261  1.9504 -0.1451
 6930TIP3    H242282   5.748   3.861  13.497  1.4725 -1.0580 -0.5526
 6931TIP3   OH242283   3.984   6.241   2.655 -0.6523  0.1605  0.2531
 6931TIP3    H142284   3.966   6.216   2.746 -0.9360  1.0263  0.4455
 6931TIP3    H242285   3.905   6.286   2.627 -0.9995 -1.0321 -0.7898
 6932TIP3   OH242286   0.667   5.528   1.623  0.1662  0.3931 -0.4148
 6932TIP3    H142287   0.604   5.468   1.664  0.2141  1.0227  0.6259
 6932TIP3    H242288   0.740   5.471   1.596 -0.4089 -0.2068 -0.7376
 6933TIP3   OH242289   5.578   3.489  16.160 -0.3497  0.5302 -0.2151
 6933TIP3    H142290   5.592   3.560  16.222  0.2958  0.1867  0.0457
 6933TIP3    H242291   5.539   3.531  16.083  1.4715  1.4581 -0.6932
 6934TIP3   OH242292   2.307   3.301  16.826  0.2031 -0.3694  0.4374
 6934TIP3    H142293   2.341   3.388  16.846 -0.6535 -0.3375  1.8433
 6934TIP3    H242294   2.258   3.313  16.744 -0.0099  0.4904  0.6808
 6935TIP3   OH242295   1.716   1.630  14.749 -0.2326  0.6223 -0.6260
 6935TIP3    H142296   1.683   1.613  14.661 -2.0519  3.2579 -0.5806
 6935TIP3    H242297   1.637   1.641  14.802  0.8266  0.7891  0.9778
 6936TIP3   OH242298   6.047   2.396  12.001  0.7364  0.1993 -0.5888
 6936TIP3    H142299   6.073   2.475  12.048  1.1257  0.2760 -0.9327
 6936TIP3    H242300   6.128   2.361  11.964  0.6762 -0.7074  0.0800
 6937TIP3   OH242301   1.043   4.016  16.552 -0.4470  0.4012 -0.0329
 6937TIP3    H142302   0.957   4.054  16.535  0.5808  2.6926 -0.5081
 6937TIP3    H242303   1.104   4.073  16.506  1.3604 -1.1284  0.3221
 6938TIP3   OH242304   2.113   4.410  12.975 -0.2965  0.1056  0.2225
 6938TIP3    H142305   2.073   4.483  12.929  1.9831  0.9414 -0.5652
 6938TIP3    H242306   2.207   4.423  12.965  0.2692 -1.2626  2.6828
 6939TIP3   OH242307   0.020   6.219   1.456 -0.2779  0.3652  0.0424
 6939TIP3    H142308   0.037   6.179   1.370  0.5203  0.8010 -0.0073
 6939TIP3    H242309  -0.071   6.247   1.451 -0.6178 -0.7263 -0.2117
 6940TIP3   OH242310   4.605   3.080  16.261  0.8368  0.5518 -0.3960
 6940TIP3    H142311   4.543   3.142  16.298 -1.6688 -2.1481  0.3163
 6940TIP3    H242312   4.592   3.086  16.166 -0.8508 -0.2045 -0.2448
 6941TIP3   OH242313   1.739   1.469  15.561 -0.1514  0.3314  0.2649
 6941TIP3    H142314   1.788   1.540  15.520 -0.7774  1.6479  1.6668
 6941TIP3    H242315   1.685   1.433  15.491  1.8431 -0.3116 -0.9988
 6942TIP3   OH242316   4.969   6.302   1.198  0.0350 -0.2077  0.0911
 6942TIP3    H142317   4.979   6.273   1.288  0.9922 -0.8718 -0.2130
 6942TIP3    H242318   4.885   6.349   1.197 -0.6671 -1.3898  1.0099
 6943TIP3   OH242319   4.887   1.529  11.260  0.0894  0.2769 -0.1024
 6943TIP3    H142320   4.934   1.480  11.193 -0.2025  1.6087 -1.3078
 6943TIP3    H242321   4.795   1.514  11.241 -0.0107 -0.2906  0.7422
 6944TIP3   OH242322   3.295   4.048   0.131 -0.4124 -0.0376 -0.3601
 6944TIP3    H142323   3.340   4.006   0.058  1.8691  0.7820  0.5057
 6944TIP3    H242324   3.242   3.977   0.169  1.2936 -1.4622 -0.5173
 6945TIP3   OH242325   3.408   3.532  11.596 -0.5833 -0.4454 -0.0254
 6945TIP3    H142326   3.490   3.505  11.639 -0.7081 -0.2072  0.3710
 6945TIP3    H242327   3.412   3.492  11.510  1.2832  1.8373 -1.1268
 6946TIP3   OH242328   5.582   5.453  12.448 -0.0708  0.0835 -0.0146
 6946TIP3    H142329   5.617   5.366  12.466 -0.5994 -0.2108 -0.3554
 6946TIP3    H242330   5.644   5.491  12.386 -0.2546 -0.3759 -0.4993
 6947TIP3   OH242331   5.135   4.016  12.074 -0.3305  0.0657  0.5698
 6947TIP3    H142332   5.160   3.984  12.161 -0.5408  0.2826  0.7135
 6947TIP3    H242333   5.042   4.036  12.082 -0.5883 -0.8597 -0.0023
 6948TIP3   OH242334   3.294   4.642  10.513 -0.2139  0.2542 -0.8111
 6948TIP3    H142335   3.338   4.717  10.552 -0.4515 -0.1462  0.2539
 6948TIP3    H242336   3.268   4.673  10.426  1.7971  0.6139 -1.3344
 6949TIP3   OH242337   6.122   0.839   5.598  0.2169 -0.3784 -0.3947
 6949TIP3    H142338   6.103   0.793   5.680  0.1841 -0.6718 -0.5657
 6949TIP3    H242339   6.089   0.927   5.612  1.7136  0.0729  0.5331
 6950TIP3   OH242340   1.928   2.259  16.279 -0.3493 -0.2436 -0.3917
 6950TIP3    H142341   1.954   2.171  16.252 -2.5910 -1.1872  0.2553
 6950TIP3    H242342   2.004   2.293  16.327  1.2760 -1.0234 -2.3030
 6951TIP3   OH242343   5.328   3.686   3.401  0.1709 -0.4846 -0.5148
 6951TIP3    H142344   5.252   3.744   3.407 -1.7540 -2.8839 -0.1488
 6951TIP3    H242345   5.377   3.717   3.325 -1.5142  0.7690 -1.1356
 6952TIP3   OH242346   0.476   1.466   4.164  0.2899 -0.5140 -0.0955
 6952TIP3    H142347   0.493   1.560   4.157  0.6632 -0.6385 -1.0606
 6952TIP3    H242348   0.503   1.431   4.079  1.3515 -1.6812  0.7063
 6953TIP3   OH242349   1.213   4.443   5.933 -0.6578 -0.4090 -0.1731
 6953TIP3    H142350   1.141   4.425   5.993 -1.2069 -2.6244 -1.3765
 6953TIP3    H242351   1.201   4.535   5.909 -1.0810  0.2087  2.1784
 6954TIP3   OH242352   3.431   2.403  14.585 -0.1503 -0.7771  0.5972
 6954TIP3    H142353   3.512   2.429  14.542  0.8453 -2.3859  1.3909
 6954TIP3    H242354   3.364   2.409  14.517  1.0402 -1.5370 -0.6951
 6955TIP3   OH242355   6.137   1.214   1.149 -0.3280  0.4992 -0.0739
 6955TIP3    H142356   6.162   1.130   1.188 -1.3859  0.9669  1.7586
 6955TIP3    H242357   6.193   1.223   1.072  1.9044 -0.5246  1.3226
 6956TIP3   OH242358   4.986   4.248  11.882 -0.2075  0.0139 -0.1666
 6956TIP3    H142359   4.892   4.242  11.863 -0.1248  1.2985 -1.0933
 6956TIP3    H242360   5.029   4.235  11.797  0.3247  2.0970 -0.2660
 6957TIP3   OH242361   6.410   3.290   5.608 -0.0501 -0.0228  0.1235
 6957TIP3    H142362   6.451   3.277   5.523  0.8010  1.2883  0.3064
 6957TIP3    H242363   6.373   3.378   5.604  0.1021  0.0998  1.1497
 6958TIP3   OH242364   3.898   5.705  14.017  0.3137 -0.1884 -0.0193
 6958TIP3    H142365   3.854   5.778  13.973  2.0465  0.0714 -1.4640
 6958TIP3    H242366   3.972   5.685  13.960  0.8430 -1.9814  1.2266
 6959TIP3   OH242367   0.555   6.310   1.465  0.6601 -0.8770 -0.5543
 6959TIP3    H142368   0.462   6.325   1.448  0.4688 -2.0940 -0.6363
 6959TIP3    H242369   0.597   6.391   1.435 -0.6447  1.1603  2.5892
 6960TIP3   OH242370   2.496   1.650   2.960 -0.4602  0.3683 -0.2402
 6960TIP3    H142371   2.522   1.559   2.978 -0.7940  0.8356  3.3109
 6960TIP3    H242372   2.428   1.643   2.893  1.6675 -1.6707 -2.3813
 6961TIP3   OH242373   6.354   2.109   2.023 -0.2613  0.0262  0.0238
 6961TIP3    H142374   6.404   2.028   2.007  1.0717  0.9040 -0.4295
 6961TIP3    H242375   6.400   2.151   2.096 -1.3669  0.0517  0.7207
 6962TIP3   OH242376   6.370   0.821  16.667 -0.5158  0.0525  0.4150
 6962TIP3    H142377   6.335   0.861  16.746  0.4053 -0.1172  0.9258
 6962TIP3    H242378   6.461   0.853  16.663 -0.1945 -0.8810  0.0749
 6963TIP3   OH242379   3.858   4.274   5.940  0.0360 -0.2109 -0.6097
 6963TIP3    H142380   3.922   4.211   5.907  1.4655 -0.6540  2.6393
 6963TIP3    H242381   3.910   4.350   5.967 -0.8905 -0.2160  1.3080
 6964TIP3   OH242382   1.287   5.556   0.994 -0.1788  0.1195  0.3308
 6964TIP3    H142383   1.196   5.529   1.007 -0.5943  0.5426 -1.4097
 6964TIP3    H242384   1.328   5.482   0.949  0.0214  0.3609  0.1097
 6965TIP3   OH242385   1.211   0.048  13.625  0.1988  0.3690  0.0474
 6965TIP3    H142386   1.184  -0.042  13.608 -2.3768  1.2843 -1.3556
 6965TIP3    H242387   1.154   0.101  13.568  0.9178  2.9431  1.5556
 6966TIP3   OH242388   2.310   5.009  15.018  0.2424 -0.5525  0.0306
 6966TIP3    H142389   2.297   5.055  15.101  1.0487  1.1743 -0.7413
 6966TIP3    H242390   2.405   5.010  15.006  0.0347  1.2436 -1.9494
 6967TIP3   OH242391   3.926   0.584   2.347 -0.0755 -0.0897 -0.0970
 6967TIP3    H142392   4.013   0.580   2.387  0.4164  3.2492 -0.5301
 6967TIP3    H242393   3.884   0.658   2.390 -1.5654  0.2562 -2.0144
 6968TIP3   OH242394   6.623   2.261   1.871  0.0649  0.3403  0.5638
 6968TIP3    H142395   6.531   2.277   1.890 -0.1035 -0.0575  0.1011
 6968TIP3    H242396   6.640   2.173   1.904 -0.3396 -0.5233 -1.4330
 6969TIP3   OH242397   3.971   0.174   0.093 -0.4201  0.4976 -0.2397
 6969TIP3    H142398   3.932   0.201   0.176 -2.7735 -1.1767 -0.6892
 6969TIP3    H242399   4.043   0.115   0.118 -1.9976 -1.1528  0.6943
 6970TIP3   OH242400   1.339   4.500   1.701 -0.6562  0.7199 -0.6724
 6970TIP3    H142401   1.401   4.560   1.661  0.4503  0.9147  1.2318
 6970TIP3    H242402   1.295   4.551   1.769 -1.4411  0.0335 -0.6417
 6971TIP3   OH242403   6.653   0.128   5.942 -0.5584  0.3921 -0.1356
 6971TIP3    H142404   6.691   0.214   5.960  1.1003 -0.2389 -0.4648
 6971TIP3    H242405   6.577   0.147   5.887 -1.0625  1.7401  0.9683
 6972TIP3   OH242406   0.290   1.955  11.684  0.0529 -0.2828  0.3993
 6972TIP3    H142407   0.356   1.923  11.623  0.1977  0.9944 -0.1372
 6972TIP3    H242408   0.339   1.973  11.765  0.6142  1.6403 -0.3067
 6973TIP3   OH242409   5.647   5.259   3.358  0.4118 -0.6453 -0.0799
 6973TIP3    H142410   5.710   5.328   3.336 -0.1831 -0.2741 -0.6254
 6973TIP3    H242411   5.561   5.299   3.345  0.0577 -1.4961 -0.4120
 6974TIP3   OH242412   3.974   0.276  15.474  0.4138  0.0809  0.3140
 6974TIP3    H142413   3.965   0.181  15.466 -0.7432  0.1320  0.8155
 6974TIP3    H242414   3.935   0.311  15.394  1.8852  0.1152 -0.4183
 6975TIP3   OH242415   5.839   6.513  11.253 -0.5672  0.3854 -0.3369
 6975TIP3    H142416   5.924   6.515  11.209  0.8169 -2.1409  1.9439
 6975TIP3    H242417   5.857   6.550  11.340 -1.7173 -0.3420  0.2297
 6976TIP3   OH242418   0.723   4.215   0.184 -0.5532  0.1243  0.0718
 6976TIP3    H142419   0.657   4.267   0.139  0.4431  1.0501 -0.3583
 6976TIP3    H242420   0.761   4.275   0.247  3.1623  1.2370 -2.8623
 6977TIP3   OH242421   0.904   4.836   5.717 -0.0990  0.7347  0.0218
 6977TIP3    H142422   0.895   4.744   5.689 -0.5858  1.3499 -1.9660
 6977TIP3    H242423   0.822   4.855   5.763  0.0971  0.1272  0.6455
 6978TIP3   OH242424   2.625   1.541  12.329  0.2151  0.2906  0.5439
 6978TIP3    H142425   2.624   1.482  12.254 -3.1713 -1.1119  1.5168
 6978TIP3    H242426   2.542   1.588  12.324  0.8959  1.8153  2.2317
 6979TIP3   OH242427   4.372   4.142  11.677 -0.1965  0.1280 -0.0111
 6979TIP3    H142428   4.422   4.184  11.607 -2.5989  0.1790 -1.8125
 6979TIP3    H242429   4.401   4.050  11.675  1.3646  0.5887  0.4753
 6980TIP3   OH242430   6.328   0.166  12.966  0.0739 -0.4371  0.3130
 6980TIP3    H142431   6.333   0.119  13.049  0.1935  0.2705  0.7208
 6980TIP3    H242432   6.359   0.104  12.901 -0.5895 -1.2007  0.7133
 6981TIP3   OH242433   0.428   4.990  16.866 -0.5529  0.1038  0.1099
 6981TIP3    H142434   0.350   4.995  16.812  0.4338 -0.7079 -1.4378
 6981TIP3    H242435   0.494   4.947  16.811  0.9019  0.4837  1.4690
 6982TIP3   OH242436   4.714   6.265   1.548 -0.3090  0.2719 -0.5295
 6982TIP3    H142437   4.809   6.257   1.547  0.2520  3.9907  1.6639
 6982TIP3    H242438   4.697   6.356   1.522 -3.2957 -0.2947 -0.9713
 6983TIP3   OH242439   2.272   3.802  12.677  0.3141  0.9963  0.0809
 6983TIP3    H142440   2.211   3.818  12.604 -0.5617 -0.9649  0.3163
 6983TIP3    H242441   2.353   3.843  12.649 -0.7319  2.5754 -0.8259
 6984TIP3   OH242442   2.799   4.785   0.064 -0.0173 -0.0451  0.4574
 6984TIP3    H142443   2.769   4.819  -0.020  2.4549  0.8680 -0.1214
 6984TIP3    H242444   2.810   4.691   0.049 -0.0743  0.0314 -0.0840
 6985TIP3   OH242445   4.393   5.150  15.420  0.3492  0.0098  0.0024
 6985TIP3    H142446   4.359   5.236  15.448 -1.6700 -1.5263  2.7457
 6985TIP3    H242447   4.324   5.089  15.443  3.0497 -2.7992  1.3659
 6986TIP3   OH242448   5.897   6.314   4.110 -0.0862 -0.7006 -0.5441
 6986TIP3    H142449   5.828   6.320   4.175  0.1200  0.8614 -0.4267
 6986TIP3    H242450   5.938   6.229   4.126 -1.0110 -0.9914  0.3617
 6987TIP3   OH242451   3.258   3.056   3.071 -0.2622 -0.8095 -0.3941
 6987TIP3    H142452   3.257   3.140   3.117 -2.0248 -1.0837  0.1724
 6987TIP3    H242453   3.305   2.997   3.129  0.2501 -0.4155 -0.4042
 6988TIP3   OH242454   6.026   3.815  16.782 -0.2794 -0.3597  0.7225
 6988TIP3    H142455   5.950   3.787  16.832 -2.6230  2.2663 -1.0607
 6988TIP3    H242456   6.040   3.907  16.808 -0.5360  0.5596 -2.0366
 6989TIP3   OH242457   4.006   3.766  14.558  0.4996 -0.1937 -0.6628
 6989TIP3    H142458   4.024   3.677  14.528  0.6995 -0.1979 -0.5294
 6989TIP3    H242459   4.025   3.821  14.483  1.5762 -0.1476 -0.3689
 6990TIP3   OH242460   5.090   5.449   0.030  0.3205  0.2051 -0.1233
 6990TIP3    H142461   5.077   5.395  -0.048  1.4287 -1.9247  1.0763
 6990TIP3    H242462   5.184   5.470   0.029  0.8369 -1.6959  1.6857
 6991TIP3   OH242463   0.019   4.117  12.292  0.4439  0.0810  0.0316
 6991TIP3    H142464   0.038   4.200  12.249 -0.7857  0.1991 -0.3209
 6991TIP3    H242465  -0.030   4.066  12.227  0.3465 -0.5438  0.5798
 6992TIP3   OH242466   6.266   0.790   6.209  0.1393  0.5120 -0.5689
 6992TIP3    H142467   6.182   0.792   6.254  0.6212  0.3832  0.3689
 6992TIP3    H242468   6.244   0.790   6.116 -0.9180 -0.2912 -0.3392
 6993TIP3   OH242469   2.164   3.314  14.160  0.0796 -0.5226 -0.1732
 6993TIP3    H142470   2.231   3.355  14.214  0.6343 -0.7768 -0.6448
 6993TIP3    H242471   2.184   3.344  14.071  0.5238 -1.8129 -0.5318
 6994TIP3   OH242472   1.322   1.267   0.296 -0.4389  0.3751 -0.2766
 6994TIP3    H142473   1.335   1.304   0.209  1.1245 -0.8922 -0.6108
 6994TIP3    H242474   1.405   1.224   0.317 -2.0703 -2.8410  0.1255
 6995TIP3   OH242475   3.937   5.730   3.806  0.4563 -0.1827 -0.0482
 6995TIP3    H142476   3.859   5.680   3.786  1.1830 -0.1994 -3.3045
 6995TIP3    H242477   4.004   5.664   3.822  0.2907 -0.1777  0.7020
 6996TIP3   OH242478   4.245   3.613   2.920  0.2812 -0.7926 -0.0275
 6996TIP3    H142479   4.159   3.649   2.942 -0.4866 -2.6791  0.3190
 6996TIP3    H242480   4.303   3.646   2.988  0.5676  2.7899 -1.7767
 6997TIP3   OH242481   3.718   5.320   3.999  0.8184 -0.7911  0.8830
 6997TIP3    H142482   3.790   5.358   4.050  1.2497 -0.6835  0.1937
 6997TIP3    H242483   3.759   5.284   3.921 -0.0959  1.1277 -0.5802
 6998TIP3   OH242484   3.101   4.622   3.389 -0.0600  0.1423 -0.1651
 6998TIP3    H142485   3.141   4.676   3.458 -1.5350 -1.2066  1.8879
 6998TIP3    H242486   3.029   4.676   3.356 -0.7774 -0.0351  1.0256
 6999TIP3   OH242487   0.082   0.563  13.286  0.8210 -0.1179  0.1393
 6999TIP3    H142488   0.127   0.647  13.296  0.7970  0.1322 -1.5717
 6999TIP3    H242489   0.110   0.531  13.200 -1.0363 -0.6964 -0.2961
 7000TIP3   OH242490   2.480   0.628   2.507 -0.4230  0.5126  0.2637
 7000TIP3    H142491   2.401   0.683   2.506  0.8397  2.3973 -0.6615
 7000TIP3    H242492   2.479   0.588   2.594 -2.3599  0.5251  0.2952
 7001TIP3   OH242493   4.178   0.084  16.702  0.0812 -0.3013 -0.1428
 7001TIP3    H142494   4.213   0.157  16.753  2.2677 -0.5349 -1.1873
 7001TIP3    H242495   4.103   0.120  16.655 -1.3287  0.1840  2.3391
 7002TIP3   OH242496   3.689   1.639  14.780  0.2551 -0.2530  0.1509
 7002TIP3    H142497   3.637   1.571  14.737 -3.4273  1.6733  1.1252
 7002TIP3    H242498   3.742   1.676  14.710 -2.9721  0.4930 -2.1262
 7003TIP3   OH242499   1.867   4.176  14.488 -0.4180  0.0672  0.4075
 7003TIP3    H142500   1.950   4.190  14.442 -0.6890  1.0668  0.1878
 7003TIP3    H242501   1.892   4.152  14.577  0.1175  0.7909  0.4614
 7004TIP3   OH242502   5.404   6.035   3.563 -0.1110  0.5459  0.1022
 7004TIP3    H142503   5.444   5.950   3.579 -0.0136  0.5852  0.0673
 7004TIP3    H242504   5.311   6.016   3.550  0.3584  0.0068 -3.4484
 7005TIP3   OH242505   6.328   5.318  15.672  0.4086 -0.4618 -0.7061
 7005TIP3    H142506   6.305   5.275  15.590 -0.6789  0.0620 -0.7004
 7005TIP3    H242507   6.309   5.253  15.739 -0.0353 -0.4112 -0.7805
 7006TIP3   OH242508   6.649   4.446   5.258  0.0578  0.9922  0.5008
 7006TIP3    H142509   6.594   4.482   5.188  1.2086  0.6443 -0.6006
 7006TIP3    H242510   6.612   4.359   5.274  1.1252  0.1653 -1.2578
 7007TIP3   OH242511   1.035   2.514   0.786 -0.6000 -0.7341 -0.1048
 7007TIP3    H142512   1.104   2.569   0.749  1.4519 -2.4053  1.0735
 7007TIP3    H242513   1.041   2.528   0.880 -0.8042 -2.1023  0.1258
 7008TIP3   OH242514   2.542   1.863   5.601  0.3144  0.4665 -0.1635
 7008TIP3    H142515   2.516   1.774   5.625 -0.2956  0.7612  0.3039
 7008TIP3    H242516   2.637   1.859   5.597  0.2352 -0.6172 -1.8255
 7009TIP3   OH242517   3.248   5.563   3.194  0.0804 -0.1665  0.1515
 7009TIP3    H142518   3.315   5.585   3.259  0.8248  0.6138 -0.8503
 7009TIP3    H242519   3.169   5.608   3.225  0.1215 -0.7222  1.1014
 7010TIP3   OH242520   2.944   0.434  11.647 -0.2573 -0.2375 -0.3307
 7010TIP3    H142521   2.887   0.381  11.591 -2.3949  1.6404 -0.0275
 7010TIP3    H242522   2.900   0.518  11.655  0.6682  0.0926  2.9937
 7011TIP3   OH242523   2.270   4.138  13.850 -0.4183  0.5169  0.3496
 7011TIP3    H142524   2.271   4.076  13.923  1.2083  0.5781  0.4327
 7011TIP3    H242525   2.186   4.183  13.857 -1.0851 -0.8070  1.0326
 7012TIP3   OH242526   6.457   2.169  16.546 -0.7188 -0.3165  0.3567
 7012TIP3    H142527   6.513   2.192  16.472 -1.0017 -0.9069 -0.0487
 7012TIP3    H242528   6.483   2.080  16.569 -0.5203 -0.0810  1.0851
 7013TIP3   OH242529   2.149   1.368  12.209 -0.0147  0.0399  0.0962
 7013TIP3    H142530   2.244   1.364  12.200 -0.0359 -1.1783  0.1185
 7013TIP3    H242531   2.121   1.435  12.147  0.8169  0.0475 -0.2814
 7014TIP3   OH242532   5.655   1.121  14.223 -0.3112 -0.3123 -0.0711
 7014TIP3    H142533   5.688   1.065  14.294  0.7906  0.5799  0.1493
 7014TIP3    H242534   5.668   1.070  14.144 -1.2278 -1.1813  0.3164
 7015TIP3   OH242535   4.336   5.037   2.531 -0.5458 -0.2030 -0.1618
 7015TIP3    H142536   4.411   5.000   2.577 -1.1090  0.6556  1.5442
 7015TIP3    H242537   4.292   4.961   2.493 -0.2078 -1.0181  0.9950
 7016TIP3   OH242538   3.149   5.019   0.967 -0.3502  0.2253  0.1779
 7016TIP3    H142539   3.130   5.090   1.028  1.1146  1.5583 -0.8296
 7016TIP3    H242540   3.236   4.988   0.992 -0.6361 -0.6727  0.0931
 7017TIP3   OH242541   5.539   0.054  15.430  0.1525  0.1116 -0.2230
 7017TIP3    H142542   5.488  -0.001  15.371  2.4785 -1.1653 -1.1973
 7017TIP3    H242543   5.487   0.059  15.510 -1.8432 -0.3835 -1.4160
 7018TIP3   OH242544   3.409   6.811  13.926  0.1570 -0.1472  0.1458
 7018TIP3    H142545   3.437   6.769  14.007  1.5891 -2.3103 -1.3783
 7018TIP3    H242546   3.393   6.739  13.865 -0.6189  1.4075 -1.6128
 7019TIP3   OH242547   4.561   6.130   4.915 -0.2725 -0.2767  0.0555
 7019TIP3    H142548   4.630   6.144   4.850 -1.8444  1.8335 -1.2762
 7019TIP3    H242549   4.496   6.197   4.896 -2.2079 -1.4860  1.9607
 7020TIP3   OH242550   0.257   2.921   0.936 -0.6377  0.0736  0.1575
 7020TIP3    H142551   0.233   3.013   0.932  0.9060  0.4637 -2.3256
 7020TIP3    H242552   0.289   2.908   1.025 -1.1873  1.8185  0.6452
 7021TIP3   OH242553   2.656   0.563  12.190  0.0539 -0.1739 -0.5356
 7021TIP3    H142554   2.599   0.496  12.152 -1.1103  0.1940  0.5378
 7021TIP3    H242555   2.682   0.527  12.275  0.9191 -0.0594 -0.7424
 7022TIP3   OH242556   0.965   4.380  16.987  0.0215  0.0815  0.4332
 7022TIP3    H142557   0.925   4.439  16.923  0.9485 -0.6194 -0.8377
 7022TIP3    H242558   1.059   4.389  16.972  0.2387 -0.3865  1.4594
 7023TIP3   OH242559   2.338   2.514  16.261 -0.7861  0.1930 -0.1495
 7023TIP3    H142560   2.314   2.571  16.334  2.3442  1.0260  0.3803
 7023TIP3    H242561   2.341   2.572  16.185 -1.7431 -0.2068 -0.5175
 7024TIP3   OH242562   3.344   1.445  16.046 -0.3264 -0.1716  0.5772
 7024TIP3    H142563   3.264   1.409  16.085 -1.7602  1.3847 -0.7715
 7024TIP3    H242564   3.359   1.391  15.968  1.2611 -1.8495  1.9473
 7025TIP3   OH242565   1.517   6.205  14.904 -0.3801  0.0447  0.1730
 7025TIP3    H142566   1.591   6.226  14.847 -0.1687  2.4769  1.2418
 7025TIP3    H242567   1.553   6.213  14.992 -0.8023 -3.2507  0.7743
 7026TIP3   OH242568   1.131   4.703   0.853 -0.1642  0.2087 -0.1266
 7026TIP3    H142569   1.078   4.760   0.908  1.3605  1.7268 -0.1509
 7026TIP3    H242570   1.199   4.670   0.910 -0.1717 -0.4327 -0.4728
 7027TIP3   OH242571   0.015   6.582   3.974 -0.0205 -0.1728  0.6173
 7027TIP3    H142572   0.013   6.600   3.880  1.4240  0.0805  0.6022
 7027TIP3    H242573  -0.069   6.614   4.007 -1.4355 -2.0947 -0.8646
 7028TIP3   OH242574   4.271   1.722  13.116  0.3199  1.0613 -0.0264
 7028TIP3    H142575   4.309   1.798  13.072  1.2271  0.0047 -1.1193
 7028TIP3    H242576   4.313   1.721  13.202 -1.0955  2.8519  0.7680
 7029TIP3   OH242577   1.769   2.591   0.805  0.0815  0.4591  0.2604
 7029TIP3    H142578   1.725   2.564   0.886 -2.2428  0.5770 -0.8792
 7029TIP3    H242579   1.717   2.666   0.774  1.3060  0.8184 -1.0346
 7030TIP3   OH242580   5.043   5.660   3.869  0.4129  0.4475  0.5058
 7030TIP3    H142581   4.975   5.719   3.837  0.5038  0.0971 -0.3623
 7030TIP3    H242582   5.036   5.665   3.964  0.1359  1.5151  0.4436
 7031TIP3   OH242583   2.008   3.987  13.411 -0.6338 -0.3860 -0.0586
 7031TIP3    H142584   1.985   3.960  13.499  0.9259 -2.6837 -0.3003
 7031TIP3    H242585   2.054   4.071  13.422 -0.4625 -0.6490  1.2911
 7032TIP3   OH242586   4.547   2.382   2.940 -0.5698 -0.2544 -0.3752
 7032TIP3    H142587   4.573   2.385   3.033  2.6076 -2.8166 -0.9952
 7032TIP3    H242588   4.622   2.420   2.894 -1.0326 -1.2160 -1.9915
 7033TIP3   OH242589   2.097   1.391  15.144 -0.2835  0.4176  0.1059
 7033TIP3    H142590   2.034   1.459  15.169  1.2281  1.7365  0.4917
 7033TIP3    H242591   2.153   1.433  15.079 -0.3709 -1.0471 -0.9714
 7034TIP3   OH242592   5.685   1.143   3.716  0.1352 -0.1002 -0.2917
 7034TIP3    H142593   5.596   1.165   3.688  0.7924  0.2368 -2.2713
 7034TIP3    H242594   5.673   1.088   3.794 -1.7535  0.8152  0.1282
 7035TIP3   OH242595   5.503   4.285  14.234 -0.1345  0.4742 -0.4370
 7035TIP3    H142596   5.527   4.243  14.151 -0.2421 -0.1070 -0.1751
 7035TIP3    H242597   5.473   4.372  14.208  1.0691  0.7737 -0.8927
 7036TIP3   OH242598   4.525   4.683  16.522 -0.2632  0.1277 -0.8509
 7036TIP3    H142599   4.537   4.650  16.433 -0.3464  0.7884 -1.1099
 7036TIP3    H242600   4.445   4.641  16.553 -0.5033  0.2730 -1.2684
 7037TIP3   OH242601   1.924   3.409   2.772  0.0715 -0.2797 -0.1716
 7037TIP3    H142602   1.886   3.323   2.789  0.7413 -0.7015 -0.7235
 7037TIP3    H242603   1.954   3.404   2.681 -1.2736  1.0812 -0.7336
 7038TIP3   OH242604   4.769   2.950   2.905  0.3830  0.4124  0.3566
 7038TIP3    H142605   4.791   3.043   2.917 -1.9524  1.4512 -2.2032
 7038TIP3    H242606   4.712   2.949   2.827 -1.3357 -2.9316  1.4568
 7039TIP3   OH242607   3.992   1.244   0.545  0.1421 -0.3968 -0.2161
 7039TIP3    H142608   4.072   1.194   0.531  0.6769  1.1505 -3.9955
 7039TIP3    H242609   4.013   1.304   0.617  2.2236 -0.4305 -0.7389
 7040TIP3   OH242610   3.165   1.813  14.936  0.2422  0.6394  0.3886
 7040TIP3    H142611   3.200   1.826  14.847 -1.1000  0.6992 -0.1616
 7040TIP3    H242612   3.235   1.840  14.994 -0.2171  4.6651 -0.6569
 7041TIP3   OH242613   6.806   2.600  17.076  0.1729  0.3033  0.4066
 7041TIP3    H142614   6.858   2.677  17.054  0.0806  1.1322  2.7594
 7041TIP3    H242615   6.809   2.596  17.172  0.0773 -2.5723  0.3840
 7042TIP3   OH242616   5.438   3.076   6.651  0.0493  0.3013  0.8310
 7042TIP3    H142617   5.481   3.161   6.648 -0.4543  0.5425 -0.9678
 7042TIP3    H242618   5.383   3.074   6.572  0.0649 -1.6954  0.8058
 7043TIP3   OH242619   2.940   4.339  13.713 -0.2738  0.2443 -0.5675
 7043TIP3    H142620   2.870   4.394  13.750 -0.5765  0.5714 -1.5842
 7043TIP3    H242621   3.021   4.376  13.750 -0.6827 -1.5058  2.3872
 7044TIP3   OH242622   0.960   5.481   6.322 -0.1260 -0.1996  0.7677
 7044TIP3    H142623   0.886   5.442   6.274  0.2687  0.0526 -0.0752
 7044TIP3    H242624   0.956   5.574   6.299  0.0413 -0.0640  1.2811
 7045TIP3   OH242625   2.003   2.275   0.623 -0.0677  0.3863 -0.0438
 7045TIP3    H142626   2.046   2.295   0.540 -0.4453 -0.0967 -0.3605
 7045TIP3    H242627   1.997   2.180   0.624 -1.7361  0.4577 -0.3254
 7046TIP3   OH242628   6.652   5.605   4.004  0.2942 -0.1810  0.0221
 7046TIP3    H142629   6.585   5.603   3.937  1.7783  0.5186 -1.5666
 7046TIP3    H242630   6.711   5.534   3.981  1.8244  1.2062 -0.5958
 7047TIP3   OH242631   4.336   5.235  13.746 -0.2000 -0.0887  0.8103
 7047TIP3    H142632   4.309   5.153  13.788  1.3697 -0.3415  1.4127
 7047TIP3    H242633   4.420   5.214  13.704 -0.5948  0.7873 -0.4714
 7048TIP3   OH242634   1.395   2.720   0.817 -0.0480 -0.0941  0.4191
 7048TIP3    H142635   1.451   2.785   0.776 -0.0658 -0.1300  0.3373
 7048TIP3    H242636   1.357   2.671   0.744  0.5426 -0.6835  0.4992
 7049TIP3   OH242637   4.004   0.242   5.145 -0.2984  0.8417  0.4822
 7049TIP3    H142638   3.940   0.312   5.151 -1.5779 -0.2352 -0.1198
 7049TIP3    H242639   4.044   0.253   5.059 -1.8022 -0.2044 -0.3962
 7050TIP3   OH242640   4.532   1.145   3.284  0.6710  0.5006 -0.0063
 7050TIP3    H142641   4.570   1.147   3.372  0.2542 -0.5891  0.2088
 7050TIP3    H242642   4.439   1.163   3.297  1.0147  3.1990 -0.5388
 7051TIP3   OH242643   0.146   4.269  12.992 -0.1272 -0.2467  0.1760
 7051TIP3    H142644   0.210   4.334  12.964 -1.4774  1.3765  0.6787
 7051TIP3    H242645   0.156   4.265  13.087  0.2009 -1.0861  0.1154
 7052TIP3   OH242646   3.666   3.125   5.139  0.0012 -0.8258  0.2044
 7052TIP3    H142647   3.604   3.106   5.209 -0.2684  1.3095  0.6200
 7052TIP3    H242648   3.619   3.186   5.081  1.7784  1.2063  0.7708
 7053TIP3   OH242649   5.913   5.169  12.950 -0.8565 -0.3039  0.0412
 7053TIP3    H142650   5.870   5.253  12.967  1.6761  1.2452 -0.7069
 7053TIP3    H242651   5.907   5.121  13.033 -1.5736  0.9816  0.7620
 7054TIP3   OH242652   1.619   6.452  16.149 -0.2158 -0.1968 -0.4076
 7054TIP3    H142653   1.618   6.369  16.196  0.7596 -0.6817 -1.2072
 7054TIP3    H242654   1.707   6.486  16.162 -0.7175  0.9182  0.2264
 7055TIP3   OH242655   1.959   0.252  16.711  0.9623  0.0339  0.3932
 7055TIP3    H142656   2.048   0.235  16.683  0.5446 -0.9255 -0.4207
 7055TIP3    H242657   1.912   0.170  16.692 -0.4283  1.0196 -0.5971
 7056TIP3   OH242658   0.139   2.984  11.885  0.1171  0.4887 -0.3533
 7056TIP3    H142659   0.150   3.019  11.797 -0.0485  0.0707 -0.5407
 7056TIP3    H242660   0.108   2.895  11.872  1.8252 -0.2193  0.0749
 7057TIP3   OH242661   3.400   2.209  16.337 -0.3688  0.0709  0.6261
 7057TIP3    H142662   3.458   2.252  16.400  0.0314 -1.6077  1.4568
 7057TIP3    H242663   3.384   2.123  16.375 -0.2425 -0.9390 -1.5039
 7058TIP3   OH242664   1.728   2.084  12.900 -0.5511  0.3553  0.0549
 7058TIP3    H142665   1.689   1.996  12.897  1.2286 -0.4574 -2.4034
 7058TIP3    H242666   1.682   2.133  12.832  0.1897  0.5196 -0.3394
 7059TIP3   OH242667   1.047   0.491  12.815 -0.2664  0.1073  0.8529
 7059TIP3    H142668   1.036   0.525  12.904  2.4616 -0.6296  1.5663
 7059TIP3    H242669   1.073   0.400  12.828 -0.3221 -0.1620 -0.7532
 7060TIP3   OH242670   6.506   6.075  13.189 -0.0831 -0.0502 -0.1694
 7060TIP3    H142671   6.496   6.109  13.278 -0.4651 -1.8806  0.5389
 7060TIP3    H242672   6.417   6.052  13.162  0.1514 -0.4887 -0.5933
 7061TIP3   OH242673   2.872   3.216  12.943  0.1382  0.3636  0.0538
 7061TIP3    H142674   2.890   3.166  13.022 -0.4789  1.0311  0.6376
 7061TIP3    H242675   2.812   3.285  12.972  0.8269  1.3297 -0.7479
 7062TIP3   OH242676   1.981   0.318   0.629 -0.3320 -0.2359 -0.0708
 7062TIP3    H142677   1.997   0.242   0.573 -0.7499 -0.9788  0.8042
 7062TIP3    H242678   1.906   0.293   0.684  0.6934  0.0776  1.5322
 7063TIP3   OH242679   3.509   5.844  11.920 -0.1665 -0.5661 -0.1463
 7063TIP3    H142680   3.570   5.900  11.969 -0.3262 -0.1941 -0.3621
 7063TIP3    H242681   3.437   5.903  11.896 -0.6814 -1.0386  0.2303
 7064TIP3   OH242682   2.073   1.629  16.346 -0.2098 -0.4380 -0.1372
 7064TIP3    H142683   2.062   1.722  16.365 -0.7408 -0.2457 -1.3532
 7064TIP3    H242684   1.997   1.605  16.293 -0.0073 -1.5383  0.0338
 7065TIP3   OH242685   1.843   5.702   2.135 -0.0290  0.1111 -0.0070
 7065TIP3    H142686   1.845   5.797   2.127 -0.5431  0.1247 -0.0558
 7065TIP3    H242687   1.764   5.684   2.187  0.6363 -0.2340  0.9128
 7066TIP3   OH242688   3.813   0.156  14.416  0.2631 -0.1881  0.4162
 7066TIP3    H142689   3.724   0.167  14.382  0.6976  1.9066 -0.1510
 7066TIP3    H242690   3.803   0.096  14.490 -1.9910  1.6693  1.7449
 7067TIP3   OH242691   0.841   5.682   2.106  0.2275 -0.2648 -0.2014
 7067TIP3    H142692   0.818   5.758   2.160 -0.2770 -1.0677  0.7443
 7067TIP3    H242693   0.826   5.607   2.163  1.3791 -1.0494 -0.8943
 7068TIP3   OH242694   0.429   0.347  16.677 -0.4113 -0.6263  0.1456
 7068TIP3    H142695   0.489   0.345  16.602 -1.7295  1.6996 -1.0990
 7068TIP3    H242696   0.471   0.293  16.743  1.5138 -1.6064 -1.7665
 7069TIP3   OH242697   5.673   4.481  15.528  0.3892  0.0574 -0.2132
 7069TIP3    H142698   5.642   4.391  15.538 -0.6502  0.2104 -1.7731
 7069TIP3    H242699   5.763   4.472  15.496  0.4266 -0.4187  0.0216
 7070TIP3   OH242700   6.434   2.520   5.402  0.6581 -0.5341 -0.1954
 7070TIP3    H142701   6.478   2.439   5.428 -1.5769 -2.5043 -2.0891
 7070TIP3    H242702   6.490   2.558   5.334  2.1966  0.1093  1.3522
 7071TIP3   OH242703   1.047   5.372   3.612  0.4575  0.0775 -0.2775
 7071TIP3    H142704   1.007   5.287   3.632  1.7443 -0.3272  0.6617
 7071TIP3    H242705   1.087   5.360   3.526  1.5054 -0.6154  0.2821
 7072TIP3   OH242706   2.037   0.307  11.018 -0.9357 -0.0846 -0.1874
 7072TIP3    H142707   2.014   0.301  10.925 -1.7984 -2.6939  0.1296
 7072TIP3    H242708   1.970   0.363  11.056 -0.6021  0.9722 -1.1081
 7073TIP3   OH242709   4.755   0.052   2.686  0.1350 -0.7453  0.2175
 7073TIP3    H142710   4.681   0.027   2.741  0.5737 -1.6686  0.4202
 7073TIP3    H242711   4.729   0.025   2.597 -0.3162  0.1680  0.0663
 7074TIP3   OH242712   5.788   2.248  16.248 -0.0039  0.3313 -0.1545
 7074TIP3    H142713   5.769   2.300  16.170  0.0754  0.2490 -0.2286
 7074TIP3    H242714   5.845   2.177  16.216 -0.1439  0.1764 -0.0596
 7075TIP3   OH242715   2.159   2.098  10.132  0.1446  0.1356  0.2796
 7075TIP3    H142716   2.106   2.174  10.156 -0.9019 -0.6921  0.6613
 7075TIP3    H242717   2.242   2.111  10.178  0.1911  1.3054 -0.0925
 7076TIP3   OH242718   6.406   0.122  16.249 -0.2735 -0.3738 -0.0047
 7076TIP3    H142719   6.361   0.178  16.312  1.5889 -0.7750  1.7790
 7076TIP3    H242720   6.344   0.052  16.230 -0.8375 -0.3477  1.5750
 7077TIP3   OH242721   5.085   5.071   0.096 -0.1879  0.3904  0.6319
 7077TIP3    H142722   5.087   4.976   0.100 -0.2077  0.4326  1.8127
 7077TIP3    H242723   5.165   5.095   0.049 -1.4893 -0.2934 -2.1087
 7078TIP3   OH242724   3.458   3.124  13.493  0.4579  0.4752 -0.0255
 7078TIP3    H142725   3.422   3.048  13.537 -0.4775  1.7988  1.5895
 7078TIP3    H242726   3.436   3.111  13.401 -0.2321 -0.8825  0.3092
 7079TIP3   OH242727   4.580   1.240  16.640  0.3067 -0.6150  0.2690
 7079TIP3    H142728   4.579   1.238  16.736  0.0135  3.2286  0.5100
 7079TIP3    H242729   4.670   1.263  16.617  0.2677 -1.0781 -0.3766
 7080TIP3   OH242730   2.450   4.945  13.117 -0.2648  0.2785 -0.2957
 7080TIP3    H142731   2.429   5.038  13.107 -2.6863 -0.3057 -1.5668
 7080TIP3    H242732   2.390   4.915  13.185 -0.0354 -0.5066 -0.4336
 7081TIP3   OH242733   1.761   5.179   2.726  0.4067 -0.4000  0.4727
 7081TIP3    H142734   1.839   5.153   2.677  0.6934 -1.9003  1.6820
 7081TIP3    H242735   1.690   5.130   2.685 -0.2510  2.0246 -1.5724
 7082TIP3   OH242736   3.925   1.436   0.749 -0.4963  0.5519  0.3745
 7082TIP3    H142737   3.865   1.373   0.788 -0.1945 -0.8209 -1.2350
 7082TIP3    H242738   3.870   1.494   0.697 -0.5299 -0.4376 -0.7485
 7083TIP3   OH242739   6.826   3.174   4.970 -0.4567  0.2100 -0.3977
 7083TIP3    H142740   6.856   3.261   4.997 -0.7816 -0.3129  1.8256
 7083TIP3    H242741   6.732   3.173   4.988 -0.2207 -1.0318  0.9701
 7084TIP3   OH242742   2.265   5.613  11.738 -0.1270 -0.1563  0.0567
 7084TIP3    H142743   2.308   5.530  11.761  0.2178  0.1569  0.5579
 7084TIP3    H242744   2.242   5.603  11.646 -0.5699 -1.0211  0.2445
 7085TIP3   OH242745   2.304   6.394   1.232  0.2554 -0.6192  0.0400
 7085TIP3    H142746   2.265   6.443   1.160 -2.9657 -1.9724  0.6917
 7085TIP3    H242747   2.280   6.303   1.215  0.4732 -1.1239  2.1605
 7086TIP3   OH242748   4.356   0.153   1.502 -0.0002  0.9596 -0.2893
 7086TIP3    H142749   4.274   0.105   1.489  1.8944 -2.7737  0.1204
 7086TIP3    H242750   4.386   0.173   1.414  1.0272 -2.4065 -0.8610
 7087TIP3   OH242751   3.594   6.793   2.375 -0.0930  0.3327 -0.0248
 7087TIP3    H142752   3.663   6.768   2.313 -1.4731  0.3122 -1.6188
 7087TIP3    H242753   3.579   6.886   2.358 -0.5955  0.2887  0.1674
 7088TIP3   OH242754   1.828   1.723   1.165 -0.0133  0.0765 -0.1106
 7088TIP3    H142755   1.769   1.648   1.167 -0.7250  0.5536  3.6463
 7088TIP3    H242756   1.903   1.697   1.219  0.4451  1.5250  0.0044
 7089TIP3   OH242757   1.562   3.896  16.135  0.0238 -0.1999 -0.0195
 7089TIP3    H142758   1.630   3.838  16.100  1.2015  0.2128  1.4554
 7089TIP3    H242759   1.503   3.837  16.183  0.7110 -0.3216  0.7127
 7090TIP3   OH242760   6.547   5.576  11.010 -0.3720  0.5973 -0.2063
 7090TIP3    H142761   6.555   5.669  11.032  1.9358  0.4113 -0.0094
 7090TIP3    H242762   6.604   5.564  10.934 -0.6846 -0.6633 -0.2656
 7091TIP3   OH242763   4.443   6.233   2.575  0.3437 -0.2004  0.3339
 7091TIP3    H142764   4.527   6.271   2.600  0.4954  1.8834 -2.7976
 7091TIP3    H242765   4.378   6.295   2.608  0.4799  1.7483 -2.6794
 7092TIP3   OH242766   4.542   0.941   3.906 -0.9236 -0.1202 -0.6091
 7092TIP3    H142767   4.594   0.914   3.982 -0.0459  2.7097 -0.0878
 7092TIP3    H242768   4.474   0.874   3.900 -0.1884 -1.2326  1.7946
 7093TIP3   OH242769   3.190   1.630   5.617 -0.0149 -0.6013 -0.1283
 7093TIP3    H142770   3.101   1.594   5.617 -0.4608  0.4534  0.4802
 7093TIP3    H242771   3.245   1.558   5.647 -0.3811 -1.8481 -2.2127
 7094TIP3   OH242772   1.802   3.111  14.032 -0.0629 -0.5045  0.3942
 7094TIP3    H142773   1.862   3.038  14.014  0.9182  0.3591  0.0629
 7094TIP3    H242774   1.717   3.070  14.041  0.3439 -1.6222 -0.5661
 7095TIP3   OH242775   2.933   6.657  14.047 -0.5837 -0.0745 -0.3547
 7095TIP3    H142776   2.996   6.683  13.981  2.1738 -3.2477  0.7187
 7095TIP3    H242777   2.963   6.699  14.128  0.3582 -1.6895  0.1866
 7096TIP3   OH242778   5.466   0.000  13.974  0.5089  0.1789 -0.4408
 7096TIP3    H142779   5.543   0.047  13.943  1.8662  0.7269  3.2004
 7096TIP3    H242780   5.402   0.069  13.992  0.6610  0.1435  0.2563
 7097TIP3   OH242781   2.198   0.622  16.043  0.1410  0.1861  0.1156
 7097TIP3    H142782   2.196   0.647  15.951  1.9022  0.6232  0.1671
 7097TIP3    H242783   2.226   0.700  16.089  1.6863 -0.6966  0.7399
 7098TIP3   OH242784   3.192   6.760  15.401 -0.0630  0.3673 -0.5135
 7098TIP3    H142785   3.116   6.816  15.385 -0.4957 -0.0814 -0.0860
 7098TIP3    H242786   3.215   6.778  15.492  0.8162  1.0510 -0.8553
 7099TIP3   OH242787   3.209   4.554   1.895 -0.2653 -0.2730 -0.1631
 7099TIP3    H142788   3.228   4.532   1.804  0.0343  0.9808 -0.4241
 7099TIP3    H242789   3.214   4.650   1.898 -0.3568 -0.2927  1.1529
 7100TIP3   OH242790   0.109   1.425   1.181 -0.5150  0.2326  0.2192
 7100TIP3    H142791   0.064   1.365   1.240  0.0952  0.5479  1.0289
 7100TIP3    H242792   0.051   1.433   1.105 -0.8489 -0.9472  0.3367
 7101TIP3   OH242793   5.630   4.587  13.505 -0.4490 -0.2322 -0.5196
 7101TIP3    H142794   5.547   4.554  13.539 -0.9981  0.4017 -1.2278
 7101TIP3    H242795   5.697   4.545  13.561 -1.3202  0.9653  1.5294
 7102TIP3   OH242796   6.250   0.671  11.815  0.0635  0.5967  0.1559
 7102TIP3    H142797   6.312   0.665  11.887  0.5720  0.5009 -0.2814
 7102TIP3    H242798   6.268   0.756  11.775 -0.3266  0.7200  0.2367
 7103TIP3   OH242799   2.427   3.392  13.347 -0.1595 -0.0083  0.0189
 7103TIP3    H142800   2.376   3.406  13.267 -0.8018 -0.4832  0.3342
 7103TIP3    H242801   2.369   3.341  13.404  0.4031  0.0600  0.6704
 7104TIP3   OH242802   1.637   4.921   5.699 -0.2578  0.0398  0.1716
 7104TIP3    H142803   1.561   4.890   5.650 -0.2018 -0.0112  0.1174
 7104TIP3    H242804   1.622   4.891   5.788  0.1870 -0.8439 -0.0455
 7105TIP3   OH242805   5.407   5.429  13.046 -0.4640 -0.2083  0.2325
 7105TIP3    H142806   5.365   5.371  13.109 -0.3497 -0.7085 -0.1371
 7105TIP3    H242807   5.461   5.370  12.992  0.3956  0.3698  0.4464
 7106TIP3   OH242808   0.814   2.825  11.565  0.3219 -0.2671  0.3056
 7106TIP3    H142809   0.823   2.730  11.560  0.2076 -0.2552 -0.1457
 7106TIP3    H242810   0.749   2.847  11.498  0.4233  0.1411  0.3365
 7107TIP3   OH242811   4.342   2.125   2.009 -0.3594 -0.3844  0.6851
 7107TIP3    H142812   4.259   2.089   1.976  0.3057 -2.4234  1.0986
 7107TIP3    H242813   4.349   2.211   1.967 -1.4614 -1.2332 -1.3845
 7108TIP3   OH242814   5.233   4.853  12.864  0.1764  0.4158 -0.5101
 7108TIP3    H142815   5.182   4.931  12.888  0.1545  0.3502 -0.3446
 7108TIP3    H242816   5.178   4.808  12.800  0.8052  1.2683 -1.6945
 7109TIP3   OH242817   5.281   0.521   5.074  0.4165 -0.1369 -0.1182
 7109TIP3    H142818   5.201   0.535   5.126 -0.9307 -1.5664 -1.6759
 7109TIP3    H242819   5.335   0.597   5.094 -1.3927  0.9770  0.9040
 7110TIP3   OH242820   4.813   3.288  15.327 -0.0437  0.0844 -0.2753
 7110TIP3    H142821   4.860   3.260  15.406  1.4829 -0.5081 -1.3479
 7110TIP3    H242822   4.834   3.221  15.262 -0.8077  0.8686 -1.3585
 7111TIP3   OH242823   4.888   6.650  11.026  0.1847 -0.0010  0.3660
 7111TIP3    H142824   4.953   6.719  11.038 -0.7908  1.3515 -1.6257
 7111TIP3    H242825   4.898   6.622  10.935 -1.2687 -0.5320  0.3417
 7112TIP3   OH242826   0.740   2.991   5.952  0.7778 -0.6947 -0.3307
 7112TIP3    H142827   0.667   3.052   5.968  0.7602 -0.9739  0.7030
 7112TIP3    H242828   0.771   3.014   5.864  1.3873  1.4678  0.3928
 7113TIP3   OH242829   1.033   5.680  10.665 -0.1416  0.1839 -0.2679
 7113TIP3    H142830   1.030   5.732  10.584 -0.1101  1.6288  0.6219
 7113TIP3    H242831   1.117   5.635  10.661  0.4145  1.1945 -0.5023
 7114TIP3   OH242832   4.799   5.463  13.760 -0.0272 -0.3911  0.3810
 7114TIP3    H142833   4.707   5.443  13.782 -0.5538  3.0240  1.8572
 7114TIP3    H242834   4.802   5.455  13.664 -1.9249 -0.3906  0.2659
 7115TIP3   OH242835   3.569   5.153  10.900 -0.0183 -0.2057 -0.2247
 7115TIP3    H142836   3.522   5.152  10.983  1.1034  2.0487  0.5003
 7115TIP3    H242837   3.506   5.189  10.837 -0.1642  0.1682  0.1308
 7116TIP3   OH242838   1.829   1.951   0.474  0.5983 -0.7247 -0.0647
 7116TIP3    H142839   1.869   1.955   0.561 -0.3054 -1.6846  0.4178
 7116TIP3    H242840   1.895   1.990   0.415  1.1298  0.1380  1.0634
 7117TIP3   OH242841   6.662   6.699  11.747  0.0868 -0.2975 -0.2408
 7117TIP3    H142842   6.588   6.693  11.807  0.8995  1.9414  1.1315
 7117TIP3    H242843   6.624   6.687  11.660 -1.6303 -0.6676  0.5199
 7118TIP3   OH242844   0.162   3.775  13.559  0.0263 -0.2907 -0.5232
 7118TIP3    H142845   0.214   3.856  13.559  0.0198 -0.2489 -2.1310
 7118TIP3    H242846   0.082   3.798  13.512 -0.8299 -0.7543  0.6571
 7119TIP3   OH242847   5.035   2.689   1.780 -0.3354  0.1014  0.1506
 7119TIP3    H142848   5.038   2.642   1.697 -0.7634  0.2120  0.0684
 7119TIP3    H242849   5.089   2.638   1.840 -0.0861 -0.0179 -0.1774
 7120TIP3   OH242850   5.750   2.417  13.927 -0.1612  0.0873 -0.0374
 7120TIP3    H142851   5.824   2.475  13.947  0.6695 -0.7848 -0.4797
 7120TIP3    H242852   5.710   2.399  14.012  0.1688  0.5216  0.2160
 7121TIP3   OH242853   5.462   1.797   5.807  0.7261  0.2862 -0.1401
 7121TIP3    H142854   5.515   1.787   5.729  1.1425  0.1957  0.1505
 7121TIP3    H242855   5.524   1.790   5.880  0.1855 -0.8099  0.2327
 7122TIP3   OH242856   0.487   0.892   3.936 -0.4904 -0.1530  0.2796
 7122TIP3    H142857   0.458   0.967   3.884  0.6040 -1.4667 -2.4648
 7122TIP3    H242858   0.406   0.852   3.968 -1.1914  0.9751 -0.0186
 7123TIP3   OH242859   6.424   5.682   3.079  0.1700 -0.6551 -0.3908
 7123TIP3    H142860   6.498   5.742   3.089 -0.3987  0.0029 -0.0412
 7123TIP3    H242861   6.356   5.734   3.036 -0.7109 -0.7225  0.8742
 7124TIP3   OH242862   1.626   3.664   5.666  0.2410  0.0030  0.1015
 7124TIP3    H142863   1.544   3.703   5.695 -0.1524  0.0836 -1.0741
 7124TIP3    H242864   1.627   3.677   5.571  1.2834 -0.6187  0.0091
 7125TIP3   OH242865   6.106   3.817   3.223 -0.1151  0.1983 -0.1808
 7125TIP3    H142866   6.058   3.780   3.148 -2.9368 -1.4368  2.1981
 7125TIP3    H242867   6.082   3.909   3.223 -0.6057  0.0829 -0.9423
 7126TIP3   OH242868   2.671   4.106  16.131 -0.0589 -0.0523 -0.3114
 7126TIP3    H142869   2.693   4.144  16.046 -0.9713 -0.3888 -0.7168
 7126TIP3    H242870   2.608   4.037  16.111 -0.0529 -0.3426  0.6103
 7127TIP3   OH242871   2.921   5.790   3.594 -0.1232 -0.0189  0.1520
 7127TIP3    H142872   2.912   5.700   3.563  0.2274  0.1367 -0.4140
 7127TIP3    H242873   3.013   5.812   3.578  0.0291  0.1293  1.1394
 7128TIP3   OH242874   5.393   2.422   0.231  0.6408  0.5540  0.9172
 7128TIP3    H142875   5.422   2.332   0.245  0.4865  0.5029  0.9109
 7128TIP3    H242876   5.410   2.438   0.138 -0.5411  0.0845  0.6029
 7129TIP3   OH242877   3.661   1.376  14.323 -0.0977 -0.1823  0.0069
 7129TIP3    H142878   3.628   1.418  14.244  1.1275  0.0827 -0.3714
 7129TIP3    H242879   3.657   1.283  14.304 -0.4688 -0.1484 -0.0935
 7130TIP3   OH242880   0.342   6.456   0.289  0.0514  0.0955  0.6316
 7130TIP3    H142881   0.330   6.445   0.195  0.3989  0.7520  0.5043
 7130TIP3    H242882   0.288   6.531   0.312  1.2253  0.9642  0.6513
 7131TIP3   OH242883   6.812   5.131  11.831 -0.1519 -0.1816 -0.8939
 7131TIP3    H142884   6.831   5.037  11.834 -0.9699 -0.3377  0.3801
 7131TIP3    H242885   6.739   5.138  11.768  0.1822 -0.3370 -1.3045
 7132TIP3   OH242886   2.781   0.401  13.494  0.0878 -0.4308 -0.5250
 7132TIP3    H142887   2.719   0.450  13.440 -1.6721 -1.9279  0.0008
 7132TIP3    H242888   2.739   0.396  13.580  0.6453 -1.9521 -0.2991
 7133TIP3   OH242889   5.793   1.447   3.741 -0.2819  0.0767 -0.3319
 7133TIP3    H142890   5.759   1.406   3.821  2.4969  1.6752  1.8708
 7133TIP3    H242891   5.861   1.388   3.711 -0.5117  0.0671 -0.8448
 7134TIP3   OH242892   0.458   6.831   0.532 -0.0129  0.2117 -0.0024
 7134TIP3    H142893   0.442   6.749   0.578 -2.3239  0.9817  0.6676
 7134TIP3    H242894   0.474   6.805   0.441  0.0016 -1.0128  0.3429
 7135TIP3   OH242895   1.610   3.092  13.117 -0.4488 -0.1610  0.0106
 7135TIP3    H142896   1.543   3.075  13.184 -0.1089 -1.1250  0.1216
 7135TIP3    H242897   1.682   3.132  13.165  0.3854 -2.1839  0.5245
 7136TIP3   OH242898   2.772   3.745  15.383 -0.2295 -0.0194  0.8439
 7136TIP3    H142899   2.698   3.738  15.323 -0.4641 -1.5262  1.2643
 7136TIP3    H242900   2.741   3.706  15.465  0.4416  1.0003  1.6183
 7137TIP3   OH242901   4.158   4.299  11.829  0.2017 -0.3009 -0.2119
 7137TIP3    H142902   4.246   4.293  11.793  1.6302  0.4180  2.8708
 7137TIP3    H242903   4.150   4.223  11.887 -1.2087 -0.3120 -0.3720
 7138TIP3   OH242904   4.486   3.357  13.013 -0.1723  0.1192  0.0631
 7138TIP3    H142905   4.441   3.274  13.000 -0.3480  0.4063 -1.2905
 7138TIP3    H242906   4.448   3.393  13.093  0.0504 -1.1859  0.7679
 7139TIP3   OH242907   3.705   4.551  12.518 -0.8087 -0.0020 -0.6970
 7139TIP3    H142908   3.625   4.587  12.480 -1.6911 -0.7704  0.3860
 7139TIP3    H242909   3.755   4.518  12.443 -0.7902  1.8121 -1.5359
 7140TIP3   OH242910   0.316   1.135   3.880 -0.5885  0.0094 -0.4500
 7140TIP3    H142911   0.250   1.176   3.824 -1.7754 -0.1213  0.8074
 7140TIP3    H242912   0.338   1.201   3.944 -0.4586 -0.3893 -0.0785
 7141TIP3   OH242913   4.549   3.147   4.614 -0.0081 -0.3100  0.4889
 7141TIP3    H142914   4.593   3.066   4.639 -0.0781 -0.6561 -0.4840
 7141TIP3    H242915   4.476   3.119   4.558  1.2410  0.5378 -1.6635
 7142TIP3   OH242916   0.809   4.843  12.835  0.2873 -0.0206  0.4771
 7142TIP3    H142917   0.773   4.777  12.894  0.8124 -2.1996 -1.4846
 7142TIP3    H242918   0.903   4.831  12.841  0.3513 -0.1610 -0.6435
 7143TIP3   OH242919   6.639   0.494  12.544  0.0057  0.5395 -0.0292
 7143TIP3    H142920   6.689   0.569  12.578  0.0876  0.0136  1.0666
 7143TIP3    H242921   6.649   0.427  12.612 -0.3083 -0.3633 -0.8648
 7144TIP3   OH242922   1.931   1.905   1.386 -0.1429  0.4612 -0.4436
 7144TIP3    H142923   1.852   1.853   1.398  0.1822  0.1131  0.2534
 7144TIP3    H242924   1.920   1.980   1.443  0.4983 -0.1478  0.5219
 7145TIP3   OH242925   3.051   1.553  14.171  0.1504  0.0794 -0.0962
 7145TIP3    H142926   3.131   1.592  14.207  0.6752 -0.5112 -0.5807
 7145TIP3    H242927   2.980   1.598  14.215  0.7492  0.9192  0.0349
 7146TIP3   OH242928   2.470   1.700   2.636 -0.2163 -0.1078 -0.5562
 7146TIP3    H142929   2.552   1.653   2.649  0.5018  0.7990 -1.6864
 7146TIP3    H242930   2.412   1.637   2.593  0.1063 -0.5343 -0.3685
 7147TIP3   OH242931   5.482   3.731   0.714  0.3037 -0.4263  0.2711
 7147TIP3    H142932   5.508   3.765   0.800  0.5950  0.5100 -0.1726
 7147TIP3    H242933   5.386   3.737   0.714  0.3155 -0.2135  0.4482
 7148TIP3   OH242934   2.046   3.318   2.531  0.0828 -0.0555  0.0264
 7148TIP3    H142935   2.026   3.241   2.477  2.4642 -1.8370  1.4647
 7148TIP3    H242936   2.124   3.292   2.581  0.7043  3.1566  0.9398
 7149TIP3   OH242937   0.054   5.953   5.636  0.0996 -0.1365  0.2750
 7149TIP3    H142938  -0.022   5.899   5.659 -0.1987  0.2988  0.3330
 7149TIP3    H242939   0.019   6.043   5.635  0.7879  0.1540  1.0867
 7150TIP3   OH242940   5.474   4.679  15.561  0.2790  0.4652 -0.6736
 7150TIP3    H142941   5.550   4.621  15.559 -0.6890 -0.8905 -0.0429
 7150TIP3    H242942   5.493   4.741  15.631  0.5167 -0.3156 -0.0220
 7151TIP3   OH242943   3.696   5.962  15.019 -0.4443  0.0458 -0.2581
 7151TIP3    H142944   3.697   6.034  14.956 -1.8167 -1.2051 -1.7886
 7151TIP3    H242945   3.625   5.905  14.989  2.2368 -3.3764 -0.7762
 7152TIP3   OH242946   4.153   3.456   5.779  0.6128 -0.2384 -0.1740
 7152TIP3    H142947   4.100   3.434   5.857  1.6548 -0.0923  0.5973
 7152TIP3    H242948   4.089   3.484   5.714 -0.1533  2.1358  1.4590
 7153TIP3   OH242949   1.473   1.551   1.714 -0.0093 -0.0109  0.0420
 7153TIP3    H142950   1.500   1.466   1.681 -0.0164 -0.2648  0.6772
 7153TIP3    H242951   1.483   1.610   1.640  0.6036 -0.4429 -0.2252
 7154TIP3   OH242952   6.373   1.849  17.015 -0.2274  0.0741  0.6121
 7154TIP3    H142953   6.453   1.862  17.066 -0.2955  0.2552  0.6728
 7154TIP3    H242954   6.305   1.833  17.081 -0.1325 -0.6846  0.5405
 7155TIP3   OH242955   6.621   1.630   0.727 -0.2326  0.0609 -0.1122
 7155TIP3    H142956   6.586   1.713   0.693  1.3048  0.4810 -0.7349
 7155TIP3    H242957   6.650   1.651   0.815  1.8683  0.7124 -0.9103
 7156TIP3   OH242958   6.321   3.696   3.348 -0.6334  0.4187 -0.1375
 7156TIP3    H142959   6.264   3.733   3.281  0.1298  0.6053 -0.6936
 7156TIP3    H242960   6.294   3.604   3.354 -0.1646  0.1865 -1.3061
 7157TIP3   OH242961   3.693   2.611   1.738 -0.1361 -0.0813  0.2462
 7157TIP3    H142962   3.737   2.642   1.659 -0.4909  0.4553  0.2552
 7157TIP3    H242963   3.763   2.572   1.791 -0.0810 -1.5367 -0.8447
 7158TIP3   OH242964   6.182   5.512  11.763 -0.5881 -0.3050  0.3822
 7158TIP3    H142965   6.154   5.533  11.852  0.7252  1.3230  0.4538
 7158TIP3    H242966   6.154   5.588  11.711  1.7610  0.4445  0.0949
 7159TIP3   OH242967   0.419   4.289   1.427  0.3063 -0.6060 -0.2225
 7159TIP3    H142968   0.513   4.272   1.432  0.4298  0.2041  0.6817
 7159TIP3    H242969   0.407   4.339   1.346  1.1805  2.1019  1.1984
 7160TIP3   OH242970   2.402   3.333  14.349  0.3957 -0.5021  0.2685
 7160TIP3    H142971   2.463   3.384  14.296 -0.6884  0.5012 -0.0716
 7160TIP3    H242972   2.419   3.361  14.439 -0.9185  1.3575 -0.0007
 7161TIP3   OH242973   4.352   3.144  14.435 -0.2074 -0.6085  0.3213
 7161TIP3    H142974   4.293   3.161  14.509  1.5119 -2.0165  2.1273
 7161TIP3    H242975   4.307   3.076  14.384 -1.7515  0.8994 -0.3936
 7162TIP3   OH242976   3.885   3.871  13.737 -0.6726 -0.1154 -0.2432
 7162TIP3    H142977   3.834   3.943  13.701 -0.3080  1.1079  1.5440
 7162TIP3    H242978   3.975   3.890  13.711 -0.7119 -0.5417 -0.7037
 7163TIP3   OH242979   5.368   1.520  13.628 -0.5001 -0.4420  0.4189
 7163TIP3    H142980   5.410   1.604  13.646 -0.5731 -0.8133  2.5088
 7163TIP3    H242981   5.292   1.542  13.574  1.0637  0.4740 -1.5774
 7164TIP3   OH242982   0.940   4.396   5.005 -0.0249  0.4355  0.3720
 7164TIP3    H142983   0.951   4.301   5.000 -1.6967  0.2748 -1.4366
 7164TIP3    H242984   0.845   4.409   5.009  0.1989  2.0334  1.6541
 7165TIP3   OH242985   4.748   3.024  12.739  0.0634 -0.4574 -0.4822
 7165TIP3    H142986   4.805   3.066  12.802 -1.0999 -1.7443  1.5511
 7165TIP3    H242987   4.674   3.084  12.728 -0.1770 -0.6359  0.1284
 7166TIP3   OH242988   6.208   1.391  16.314 -0.5245 -0.7728  0.0840
 7166TIP3    H142989   6.241   1.432  16.394 -0.7536 -0.5327  0.0552
 7166TIP3    H242990   6.129   1.344  16.342 -1.4255  0.4938 -0.2679
 7167TIP3   OH242991   6.042   3.771  11.341 -0.2023  0.1896 -0.9453
 7167TIP3    H142992   6.075   3.822  11.415 -0.2458  0.2464 -0.9650
 7167TIP3    H242993   5.973   3.716  11.378  0.1356 -0.1743 -0.8362
 7168TIP3   OH242994   4.735   0.530   0.980  0.0132  0.0550 -0.2076
 7168TIP3    H142995   4.656   0.582   0.997 -0.2217 -1.0610  2.4401
 7168TIP3    H242996   4.705   0.457   0.926 -0.8186 -0.4070  0.8546
 7169TIP3   OH242997   5.552   6.524   0.692  1.0801 -0.7318 -0.0623
 7169TIP3    H142998   5.644   6.507   0.713  1.2102 -0.2682 -0.2477
 7169TIP3    H242999   5.514   6.557   0.773  1.0207 -1.1443  0.0785
 7170TIP3   OH243000   1.551   2.954   1.557 -0.0993  0.2193 -0.7859
 7170TIP3    H143001   1.545   3.042   1.594  1.9522  0.9506 -2.0342
 7170TIP3    H243002   1.482   2.905   1.601  1.1138  1.4046  2.8558
 7171TIP3   OH243003   3.836   4.517   3.350 -0.3901 -0.1078 -0.2477
 7171TIP3    H143004   3.783   4.534   3.428 -1.1601  0.6149 -0.9085
 7171TIP3    H243005   3.775   4.474   3.290  0.0442 -0.1367 -0.6669
 7172TIP3   OH243006   3.082   4.647  16.749  0.6792  0.2981  0.0196
 7172TIP3    H143007   3.068   4.661  16.843 -0.8068 -0.3626 -0.0648
 7172TIP3    H243008   3.147   4.576  16.745 -1.0806 -1.4596  0.6461
 7173TIP3   OH243009   5.246   0.201   3.740 -0.2961  0.0450 -0.0523
 7173TIP3    H143010   5.216   0.237   3.824  0.4202  0.3100  0.0993
 7173TIP3    H243011   5.170   0.155   3.705 -0.4679 -0.4903  0.9761
 7174TIP3   OH243012   3.530   5.691   1.773 -0.3192 -0.5808  1.3048
 7174TIP3    H143013   3.552   5.732   1.857  0.1632 -1.1123  1.4364
 7174TIP3    H243014   3.560   5.754   1.707  1.0126 -0.9906  1.4915
 7175TIP3   OH243015   6.619   1.162   1.664  0.2552 -0.2515  0.0920
 7175TIP3    H143016   6.654   1.167   1.753  0.2423 -1.0967  0.1525
 7175TIP3    H243017   6.584   1.249   1.647  1.4838  0.3308  0.4084
 7176TIP3   OH243018   2.929   5.131   0.261  1.0449 -0.5998  0.2434
 7176TIP3    H143019   2.956   5.082   0.338  0.4162 -0.3338  0.6416
 7176TIP3    H243020   2.833   5.132   0.266  1.0259 -0.0320 -0.1960
 7177TIP3   OH243021   6.239   3.102   4.083  0.6781 -0.5724 -0.6147
 7177TIP3    H143022   6.184   3.024   4.086 -0.5899  0.2490  2.8688
 7177TIP3    H243023   6.206   3.153   4.009 -2.7758 -0.5523  0.7780
 7178TIP3   OH243024   0.395   6.472   2.294 -0.1610 -0.0058 -0.2954
 7178TIP3    H143025   0.305   6.443   2.310 -0.4097  1.5228  1.4693
 7178TIP3    H243026   0.403   6.554   2.343  3.2238 -1.8010  2.6599
 7179TIP3   OH243027   2.649   4.866  10.902 -0.1115 -0.0078 -0.8226
 7179TIP3    H143028   2.721   4.927  10.888  0.7227 -0.6377  0.5060
 7179TIP3    H243029   2.688   4.794  10.951 -1.8655  0.1443  0.9299
 7180TIP3   OH243030   6.217   2.288   3.681  0.6631  0.2497 -0.3828
 7180TIP3    H143031   6.200   2.318   3.770  2.0647  1.6651 -0.5290
 7180TIP3    H243032   6.313   2.289   3.673  0.7283 -2.5662 -1.0522
 7181TIP3   OH243033   4.390   1.812  15.702 -0.1317  0.1441 -0.4825
 7181TIP3    H143034   4.418   1.722  15.683  0.5226  0.2490 -0.0430
 7181TIP3    H243035   4.439   1.836  15.781  0.2545  1.1566 -1.0162
 7182TIP3   OH243036   3.950   2.540  13.384 -0.1580 -0.7382 -0.2417
 7182TIP3    H143037   4.009   2.576  13.450  2.3275 -2.3393 -1.4610
 7182TIP3    H243038   3.962   2.596  13.308 -0.2396 -1.0497 -0.4850
 7183TIP3   OH243039   0.268   2.995  13.552 -0.0833  0.1995  0.9985
 7183TIP3    H143040   0.346   3.040  13.522  0.5264  0.3962  2.7276
 7183TIP3    H243041   0.201   3.063  13.555 -0.3976 -0.0082 -0.6602
 7184TIP3   OH243042   6.197   2.354   2.514  0.0880 -0.5634  0.3710
 7184TIP3    H143043   6.177   2.439   2.553 -1.6457 -1.0981  0.7187
 7184TIP3    H243044   6.152   2.355   2.429 -0.3862 -1.3160  0.6043
 7185TIP3   OH243045   4.821   6.251   5.552 -0.1166 -0.5308 -0.3671
 7185TIP3    H143046   4.895   6.220   5.605 -0.3776 -0.4225  0.0599
 7185TIP3    H243047   4.744   6.209   5.591 -0.6720  1.7002  1.1321
 7186TIP3   OH243048   1.583   1.856  15.808  0.3191 -0.1972 -0.3679
 7186TIP3    H143049   1.676   1.835  15.798 -0.0638 -2.4618  0.2013
 7186TIP3    H243050   1.572   1.869  15.902 -0.0610 -0.6719 -0.3422
 7187TIP3   OH243051   0.692   2.034   3.476 -0.2946 -0.3610 -0.1215
 7187TIP3    H143052   0.783   2.011   3.459 -0.7479 -1.1509 -1.5649
 7187TIP3    H243053   0.659   1.964   3.532 -0.4260 -0.8573 -0.8194
 7188TIP3   OH243054   2.083   4.996  15.528 -0.1180  0.1267  0.4567
 7188TIP3    H143055   2.007   5.010  15.584 -0.8527 -1.7692 -0.0031
 7188TIP3    H243056   2.147   4.951  15.583  0.4410  1.1111  0.6458
 7189TIP3   OH243057   1.068   0.327  15.653  0.5494  0.2044  0.3614
 7189TIP3    H143058   1.081   0.332  15.558 -1.5339 -1.8901 -0.1266
 7189TIP3    H243059   0.974   0.316  15.663  0.8722 -1.0218  2.6078
 7190TIP3   OH243060   2.555   0.564  11.824  0.2002  0.2124  0.1442
 7190TIP3    H143061   2.498   0.589  11.752  0.6840 -0.0762 -0.3502
 7190TIP3    H243062   2.571   0.645  11.872  2.5360  1.1601 -1.9929
 7191TIP3   OH243063   0.202   3.597   0.204 -0.3003 -0.1786 -0.4072
 7191TIP3    H143064   0.157   3.539   0.265 -0.6005 -1.0958 -1.4663
 7191TIP3    H243065   0.133   3.654   0.170  0.1838  1.6857  1.5226
 7192TIP3   OH243066   3.417   6.738   5.674 -0.1509  0.3890  0.4772
 7192TIP3    H143067   3.395   6.807   5.737 -2.2445 -1.3138  1.7462
 7192TIP3    H243068   3.428   6.659   5.727  1.8377 -0.4055 -0.9683
 7193TIP3   OH243069   5.257   4.520  12.438  0.1450  0.1006  0.1637
 7193TIP3    H143070   5.287   4.611  12.435 -0.1071  0.1608 -0.6192
 7193TIP3    H243071   5.318   4.477  12.498  1.2926  0.4148 -0.7429
 7194TIP3   OH243072   5.784   0.612   5.673 -0.2902 -0.3577  0.4400
 7194TIP3    H143073   5.733   0.563   5.738 -2.1727  1.4785  0.4456
 7194TIP3    H243074   5.858   0.647   5.722  0.0705 -1.6092  0.8373
 7195TIP3   OH243075   1.595   1.226   1.322  0.6005  0.2920 -0.4437
 7195TIP3    H143076   1.527   1.200   1.261 -1.2642  2.0541  0.7538
 7195TIP3    H243077   1.548   1.252   1.401  2.8455 -1.0446  1.4896
 7196TIP3   OH243078   1.590   4.806  11.328 -0.4364  0.0930 -0.0796
 7196TIP3    H143079   1.526   4.848  11.385 -0.0623 -0.3255  0.6685
 7196TIP3    H243080   1.609   4.872  11.261 -0.4618  0.8181  0.6076
 7197TIP3   OH243081   5.890   0.458   3.174  0.6271  0.3572 -0.1433
 7197TIP3    H143082   5.952   0.473   3.245 -0.4539 -1.0652  1.1595
 7197TIP3    H243083   5.888   0.363   3.163 -0.4794  0.4487 -0.9069
 7198TIP3   OH243084   6.267   4.508  17.116 -0.1351 -0.6600 -0.3867
 7198TIP3    H143085   6.308   4.474  17.036 -0.0800  0.3020 -0.7779
 7198TIP3    H243086   6.222   4.432  17.153 -0.7075 -0.9947 -1.6856
 7199TIP3   OH243087   2.030   6.287   0.660  0.3903  0.3157 -0.5429
 7199TIP3    H143088   2.013   6.252   0.747 -0.5646  1.6343 -0.1723
 7199TIP3    H243089   2.015   6.213   0.601 -3.9387  0.4917 -0.0131
 7200TIP3   OH243090   6.654   4.255  13.666  0.1363  0.6372  0.3334
 7200TIP3    H143091   6.588   4.274  13.732  2.4745 -1.2696  3.4816
 7200TIP3    H243092   6.711   4.332  13.667  0.5443  0.3314  1.0652
 7201TIP3   OH243093   5.670   5.314  11.600  1.0077  0.0869  0.5199
 7201TIP3    H143094   5.586   5.316  11.555  1.1364 -0.1722  0.2613
 7201TIP3    H243095   5.648   5.296  11.691  0.7097  1.1505  0.6641
 7202TIP3   OH243096   0.088   6.396   3.412  0.2337 -0.1294  0.8071
 7202TIP3    H143097   0.146   6.425   3.482  1.7221 -1.2286  0.0937
 7202TIP3    H243098   0.138   6.413   3.331 -0.5942 -0.7366  0.1505
 7203TIP3   OH243099   4.641   6.565  15.015  0.5069  0.1567  0.1870
 7203TIP3    H143100   4.640   6.610  14.931  0.8355 -0.5114 -0.1854
 7203TIP3    H243101   4.733   6.540  15.028  0.8308  1.9332  1.6671
 7204TIP3   OH243102   5.656   3.157  15.205  0.2578 -0.1953  0.2444
 7204TIP3    H143103   5.648   3.250  15.227  1.7501 -0.2221  0.9848
 7204TIP3    H243104   5.675   3.157  15.111 -0.8042  0.1709  0.0067
 7205TIP3   OH243105   1.619   5.534  12.068 -0.3402 -0.2832 -0.1069
 7205TIP3    H143106   1.625   5.493  11.982  0.1238 -0.0973 -0.1704
 7205TIP3    H243107   1.633   5.463  12.131 -1.0252 -0.4825 -0.1676
 7206TIP3   OH243108   5.643   1.911   0.575 -0.5993  0.2170 -0.1235
 7206TIP3    H143109   5.560   1.948   0.543  0.5786  0.6185 -3.0344
 7206TIP3    H243110   5.677   1.978   0.635 -1.3933  1.0264 -0.5422
 7207TIP3   OH243111   4.456   4.765  12.887 -0.2468 -0.2924 -0.3809
 7207TIP3    H143112   4.501   4.825  12.827  0.0911 -0.8605 -0.7066
 7207TIP3    H243113   4.370   4.805  12.901  0.0336  0.3495 -0.4579
 7208TIP3   OH243114   1.299   6.405   3.238  0.4184 -0.4880  0.3336
 7208TIP3    H143115   1.222   6.461   3.250  0.8231  0.1255  0.1187
 7208TIP3    H243116   1.320   6.374   3.326  0.4400  0.0418  0.5190
 7209TIP3   OH243117   2.819   2.987  11.779 -0.5013  0.3785  0.1520
 7209TIP3    H143118   2.741   2.943  11.812 -0.2342  0.2456  0.6158
 7209TIP3    H243119   2.819   3.072  11.824  0.8164 -0.4925  1.8788
 7210TIP3   OH243120   2.062   0.634  13.491  0.3585 -0.3119  0.1179
 7210TIP3    H143121   2.054   0.554  13.542 -0.5227  0.0859  0.6253
 7210TIP3    H243122   1.996   0.626  13.423 -1.0234  0.7415  1.2528
 7211TIP3   OH243123   4.164   5.061   1.725  0.7133 -0.3349 -0.1319
 7211TIP3    H143124   4.136   5.144   1.765 -0.6497 -1.5058  1.5136
 7211TIP3    H243125   4.251   5.079   1.690 -0.1498  2.1866 -1.1623
 7212TIP3   OH243126   5.619   1.029  13.588  0.5328  0.2210  0.3214
 7212TIP3    H143127   5.595   1.112  13.632  1.1561  0.2753  0.5779
 7212TIP3    H243128   5.634   1.054  13.497 -0.9664  0.0741  0.0108
 7213TIP3   OH243129   0.765   1.963   0.469 -0.2411  0.1600  0.6253
 7213TIP3    H143130   0.749   2.053   0.496  0.6712  0.3845  0.4367
 7213TIP3    H243131   0.858   1.961   0.445 -0.8776 -0.1236 -2.0824
 7214TIP3   OH243132   3.134   4.291   4.980 -0.6265 -0.0209 -0.1445
 7214TIP3    H143133   3.137   4.384   5.000 -1.4106  0.5191 -2.2285
 7214TIP3    H243134   3.185   4.249   5.050  2.1899  2.2484 -0.6325
 7215TIP3   OH243135   5.961   5.055   5.088 -0.2189  0.2697 -0.1762
 7215TIP3    H143136   5.912   4.987   5.135  1.0202 -0.2001  0.4711
 7215TIP3    H243137   6.044   5.013   5.067 -0.8647  0.3071 -3.2112
 7216TIP3   OH243138   6.711   6.470   1.102  0.1388 -0.3781 -0.3109
 7216TIP3    H143139   6.662   6.552   1.114 -0.5061 -0.6957 -0.7021
 7216TIP3    H243140   6.689   6.418   1.179  1.7789  0.3969  0.7319
 7217TIP3   OH243141   4.839   0.148  17.036  0.2929  0.1502 -0.5077
 7217TIP3    H143142   4.758   0.099  17.047  0.9014 -0.4613  1.6637
 7217TIP3    H243143   4.884   0.105  16.964  0.1485 -1.6188  0.4099
 7218TIP3   OH243144   1.989   1.715   3.597 -0.1924 -0.5426 -0.3895
 7218TIP3    H143145   1.979   1.646   3.662  2.3780 -1.2416 -0.6453
 7218TIP3    H243146   2.025   1.672   3.520  1.7027  1.0399 -0.4869
 7219TIP3   OH243147   2.551   2.509   5.016  0.5530 -0.5589 -0.0980
 7219TIP3    H143148   2.575   2.456   5.091  2.4839  1.4514  0.8217
 7219TIP3    H243149   2.466   2.548   5.040  1.1397  0.0481  1.0830
 7220TIP3   OH243150   3.600   1.573   3.558  0.5758 -0.1867 -0.3687
 7220TIP3    H143151   3.515   1.546   3.593  1.0514 -2.7423 -0.9687
 7220TIP3    H243152   3.656   1.582   3.635 -0.0741  1.0752 -0.0083
 7221TIP3   OH243153   3.687   0.290   2.505  0.3704 -0.1548 -0.1776
 7221TIP3    H143154   3.682   0.275   2.410  0.7217  1.1818 -0.4259
 7221TIP3    H243155   3.773   0.329   2.518  0.0617  0.2726  0.6096
 7222TIP3   OH243156   4.314   5.380   1.649 -0.0588 -0.5880 -0.0833
 7222TIP3    H143157   4.235   5.430   1.628  0.4923  0.5807  0.4846
 7222TIP3    H243158   4.303   5.296   1.604 -0.9428  0.1197 -1.2463
 7223TIP3   OH243159   2.301   6.747  12.991 -0.8122  0.0956 -0.4604
 7223TIP3    H143160   2.351   6.824  13.017 -1.2395  0.8535 -1.7954
 7223TIP3    H243161   2.224   6.747  13.047  0.6679 -1.1422  1.6979
 7224TIP3   OH243162   3.737   4.307  14.265 -0.6447 -0.2439 -0.0864
 7224TIP3    H143163   3.730   4.230  14.208  1.0796  0.2334 -0.9918
 7224TIP3    H243164   3.665   4.364  14.236  0.5501  0.2591 -2.2858
 7225TIP3   OH243165   6.429   0.200  13.548 -0.5034 -0.1849  0.2887
 7225TIP3    H143166   6.477   0.282  13.548 -1.6418  0.5310 -1.1180
 7225TIP3    H243167   6.430   0.171  13.639  2.2929 -0.0835  0.3610
 7226TIP3   OH243168   6.255   4.273  11.850  0.1192 -0.3063 -0.1556
 7226TIP3    H143169   6.166   4.284  11.883  0.2879 -0.5098  0.3905
 7226TIP3    H243170   6.295   4.360  11.861  0.4372 -0.5790  1.0212
 7227TIP3   OH243171   4.737   1.524   4.174 -0.4276  0.4504 -0.2673
 7227TIP3    H143172   4.699   1.606   4.141  0.0638  0.8375  0.1046
 7227TIP3    H243173   4.776   1.483   4.097 -0.8975  0.4385 -0.5028
 7228TIP3   OH243174   0.926   6.619  14.187 -0.3330  0.5039  0.5285
 7228TIP3    H143175   0.969   6.623  14.101 -1.2419  2.1076  0.1059
 7228TIP3    H243176   0.998   6.611  14.249  0.4373  0.6838 -0.3109
 7229TIP3   OH243177   4.806   1.377  16.315 -0.5151 -0.8256 -0.0216
 7229TIP3    H143178   4.778   1.347  16.228  1.8448 -1.5561 -0.5886
 7229TIP3    H243179   4.828   1.469  16.302 -1.9207 -0.4193  0.2822
 7230TIP3   OH243180   1.126   2.445  11.679 -0.1356  0.4767 -0.1076
 7230TIP3    H143181   1.039   2.414  11.704  0.4327 -0.3712  0.8996
 7230TIP3    H243182   1.116   2.540  11.672 -0.6086  0.6688  2.3777
 7231TIP3   OH243183   4.579   3.561   1.257 -0.5468 -0.4180 -0.5004
 7231TIP3    H143184   4.499   3.584   1.304 -0.3516  0.1622 -0.4484
 7231TIP3    H243185   4.636   3.522   1.324 -0.7659 -0.7906 -0.5291
 7232TIP3   OH243186   5.162   1.088   1.638  0.1522 -0.2578  0.4877
 7232TIP3    H143187   5.204   1.004   1.620  0.7282  0.1099  0.0572
 7232TIP3    H243188   5.118   1.111   1.556 -0.0738 -0.1774  0.6299
 7233TIP3   OH243189   3.163   0.758   0.780  0.1252  0.1736  0.2892
 7233TIP3    H143190   3.227   0.689   0.765  1.8188  1.5852  0.7691
 7233TIP3    H243191   3.080   0.711   0.793  0.4646 -1.5953 -2.9826
 7234TIP3   OH243192   0.855   5.975   4.932 -0.3240 -0.3168 -0.3676
 7234TIP3    H143193   0.862   5.888   4.972  0.1476  0.4251  1.2389
 7234TIP3    H243194   0.937   6.019   4.954 -0.2202  0.2734 -1.8533
 7235TIP3   OH243195   1.131   0.333   4.458  0.2598 -0.1869 -0.2301
 7235TIP3    H143196   1.226   0.328   4.459  0.2540 -0.2742  0.7554
 7235TIP3    H243197   1.110   0.396   4.527 -0.3659  0.4785 -1.0078
 7236TIP3   OH243198   3.170   5.827  13.639  0.3550 -0.1417 -0.2085
 7236TIP3    H143199   3.183   5.919  13.661  1.9905 -0.2646 -0.5460
 7236TIP3    H243200   3.163   5.826  13.544  2.1757 -0.5258 -0.3709
 7237TIP3   OH243201   5.714   1.518  16.755 -0.4746 -0.0134 -0.0527
 7237TIP3    H143202   5.792   1.520  16.699  1.2513 -2.1929  2.1107
 7237TIP3    H243203   5.714   1.603  16.799  1.1703 -0.2637  0.4915
 7238TIP3   OH243204   4.261   1.316  16.587  0.7074  0.2692  0.3464
 7238TIP3    H143205   4.266   1.411  16.597 -0.6202  0.3017  0.8897
 7238TIP3    H243206   4.351   1.286  16.601  2.0409  1.7278 -3.8030
 7239TIP3   OH243207   0.126   0.676  11.326 -0.2068  0.0122  0.1063
 7239TIP3    H143208   0.118   0.614  11.253  0.6198  0.6446 -0.5551
 7239TIP3    H243209   0.211   0.719  11.311 -0.7867  1.3323  0.5100
 7240TIP3   OH243210   1.557   0.589  13.133 -0.1391 -0.1209  0.2998
 7240TIP3    H143211   1.586   0.553  13.217 -0.1450  0.6803  0.6590
 7240TIP3    H243212   1.632   0.579  13.075 -0.6078 -2.0106 -0.0394
 7241TIP3   OH243213   3.314   5.617   2.829 -0.2058 -0.1825 -0.6870
 7241TIP3    H143214   3.316   5.532   2.874 -0.6636 -0.2433 -0.7735
 7241TIP3    H243215   3.362   5.676   2.887 -0.1655 -0.4272 -0.4683
 7242TIP3   OH243216   6.307   4.218  11.162  0.0604  0.8277 -0.2441
 7242TIP3    H143217   6.370   4.204  11.231  1.0154 -1.4715 -1.4809
 7242TIP3    H243218   6.359   4.245  11.086 -0.3845 -0.9254 -1.2316
 7243TIP3   OH243219   5.560   0.182   4.683  0.3113  0.0116 -0.2247
 7243TIP3    H143220   5.535   0.184   4.590  0.9887  1.7728 -0.4173
 7243TIP3    H243221   5.481   0.211   4.729  0.4242  0.6318 -0.4047
 7244TIP3   OH243222   6.053   3.281  12.713  0.1709 -0.4547  0.1832
 7244TIP3    H143223   6.017   3.195  12.730 -0.6346 -0.1541  0.0219
 7244TIP3    H243224   5.977   3.338  12.702  0.6904  0.2969  0.3801
 7245TIP3   OH243225   2.574   6.405  11.250  0.0140  0.0754 -0.1647
 7245TIP3    H143226   2.483   6.434  11.258 -0.6023 -1.6482 -0.5710
 7245TIP3    H243227   2.581   6.370  11.161  1.0957  0.2169 -0.1557
 7246TIP3   OH243228   0.332   6.608  15.233 -0.3400 -0.2093 -0.1095
 7246TIP3    H143229   0.290   6.689  15.203 -1.3620 -0.3255  0.9199
 7246TIP3    H243230   0.421   6.634  15.255 -0.2867  0.3706 -0.9643
 7247TIP3   OH243231   2.079   4.442   5.779 -0.0476 -0.5250  0.6293
 7247TIP3    H143232   2.047   4.358   5.812 -0.2436 -0.4694  0.5797
 7247TIP3    H243233   2.134   4.476   5.850  0.0074 -0.6792  0.6625
 7248TIP3   OH243234   6.641   3.900  12.508  0.0662  0.2409 -0.4369
 7248TIP3    H143235   6.679   3.982  12.541 -0.1213  0.5490 -0.9611
 7248TIP3    H243236   6.707   3.867  12.446 -1.1277  1.5750 -2.5249
 7249TIP3   OH243237   3.087   1.467   3.937 -0.4396  0.0732 -0.3455
 7249TIP3    H143238   3.173   1.424   3.940 -0.0368  0.6328 -2.1800
 7249TIP3    H243239   3.038   1.417   3.872 -1.6873 -0.5126  1.0200
 7250TIP3   OH243240   0.301   0.192  12.422  0.2043 -0.2262  0.6164
 7250TIP3    H143241   0.277   0.116  12.474  0.6966 -0.8219 -0.0200
 7250TIP3    H243242   0.333   0.256  12.486 -0.0014 -0.6328  1.1257
 7251TIP3   OH243243   1.926   6.651   0.498  0.0674 -0.3012  0.4071
 7251TIP3    H143244   1.948   6.650   0.591  2.1013  0.8118  0.0119
 7251TIP3    H243245   1.835   6.681   0.494  0.1865  0.3422  2.0062
 7252TIP3   OH243246   2.621   0.042  17.092 -1.0610  0.5938 -0.1871
 7252TIP3    H143247   2.649   0.028  17.001 -0.2498 -0.5464  0.2158
 7252TIP3    H243248   2.655   0.129  17.114  1.1900 -0.2223 -0.1265
 7253TIP3   OH243249   4.251   5.105   1.006  0.2550 -0.1561 -0.0765
 7253TIP3    H143250   4.196   5.183   1.001  0.5833  0.0985  0.2388
 7253TIP3    H243251   4.338   5.138   1.028 -0.0797 -0.7824  2.5166
 7254TIP3   OH243252   1.868   4.667   4.056  0.4078  0.0149  0.0280
 7254TIP3    H143253   1.921   4.661   3.977  0.4937 -0.2959  0.1074
 7254TIP3    H243254   1.900   4.597   4.112  1.3381  1.1258  0.9352
 7255TIP3   OH243255   6.562   5.019  16.917  0.3121  0.6042  0.5758
 7255TIP3    H143256   6.617   5.065  16.854 -1.3939  2.2002  0.1415
 7255TIP3    H243257   6.483   5.073  16.923  0.5483  0.7957  4.4462
 7256TIP3   OH243258   0.026   4.387  16.759  0.5470 -0.5483 -0.2986
 7256TIP3    H143259  -0.042   4.449  16.783  1.0635  0.9122 -2.2998
 7256TIP3    H243260  -0.015   4.330  16.693  1.3445  0.7304 -1.9767
 7257TIP3   OH243261   4.619   4.478  11.348  0.4559 -0.7738 -0.0101
 7257TIP3    H143262   4.697   4.512  11.303  0.9063 -1.2163  0.4159
 7257TIP3    H243263   4.550   4.541  11.329  1.0068 -0.1964 -0.1179
 7258TIP3   OH243264   1.973   0.850  14.466 -0.1622  0.1388 -0.3457
 7258TIP3    H143265   2.035   0.803  14.521 -0.7415  0.2878  0.4589
 7258TIP3    H243266   1.999   0.942  14.475 -2.0143  0.5388  2.1151
 7259TIP3   OH243267   2.501   4.471  14.978  0.4306 -0.1662  0.4358
 7259TIP3    H143268   2.518   4.564  14.966 -0.5556  0.1902  1.5636
 7259TIP3    H243269   2.532   4.452  15.067  0.8020 -0.9718  0.1516
 7260TIP3   OH243270   6.601   2.773  13.970 -0.1715  0.0251  0.7948
 7260TIP3    H143271   6.621   2.736  13.885  0.2256 -1.3216  1.4413
 7260TIP3    H243272   6.630   2.864  13.965 -1.5192  0.4025 -0.9654
 7261TIP3   OH243273   2.819   3.668  14.808  0.3813 -0.5780  0.0707
 7261TIP3    H143274   2.908   3.702  14.802  0.4182 -0.7206 -0.2538
 7261TIP3    H243275   2.772   3.731  14.862 -0.0158  1.0036 -2.0002
 7262TIP3   OH243276   6.563   5.430  11.711 -0.2602  0.4832 -0.2906
 7262TIP3    H143277   6.658   5.429  11.701 -0.1340  0.1522  0.7664
 7262TIP3    H243278   6.545   5.506  11.766 -0.5406  0.1816  0.0417
 7263TIP3   OH243279   6.001   0.151   3.715  0.2199 -0.1796  0.5492
 7263TIP3    H143280   5.937   0.172   3.783 -0.4844 -0.2670 -0.0796
 7263TIP3    H243281   6.066   0.096   3.760 -0.5418 -0.7205  1.0226
 7264TIP3   OH243282   0.510   6.793   5.761  0.2711  0.0233  0.2629
 7264TIP3    H143283   0.488   6.701   5.747  2.8362 -0.8595  1.2513
 7264TIP3    H243284   0.464   6.816   5.842 -0.5215 -0.3250 -0.0774
 7265TIP3   OH243285   2.884   3.991  15.487 -0.3886 -0.0230 -0.0242
 7265TIP3    H143286   2.940   3.990  15.410  3.6390 -0.4342  2.6349
 7265TIP3    H243287   2.835   3.908  15.482  0.8904 -0.7377 -1.3904
 7266TIP3   OH243288   5.489   0.477  11.931  0.1915  0.0576 -0.5625
 7266TIP3    H143289   5.400   0.458  11.902  0.6388  0.0511 -2.0105
 7266TIP3    H243290   5.538   0.398  11.909  0.4650 -0.1780  0.7741
 7267TIP3   OH243291   3.149   4.411  16.445  0.7857 -0.0600 -0.0979
 7267TIP3    H143292   3.054   4.420  16.456  0.4808 -0.3395 -2.2026
 7267TIP3    H243293   3.173   4.339  16.504 -0.3660 -0.2639  0.1432
 7268TIP3   OH243294   5.593   4.785   6.034  0.3575 -0.5707 -0.1248
 7268TIP3    H143295   5.627   4.843   5.967  1.0468 -0.6789  0.1265
 7268TIP3    H243296   5.565   4.844   6.104 -1.2742 -0.3911 -0.8867
 7269TIP3   OH243297   0.178   4.223   6.640  0.4474  0.7619  0.1619
 7269TIP3    H143298   0.226   4.208   6.559 -0.7522 -1.0550 -0.2598
 7269TIP3    H243299   0.237   4.191   6.709  1.2485  1.8246  0.0000
 7270TIP3   OH243300   5.834   3.352  12.225  0.1359  0.4820 -0.8482
 7270TIP3    H143301   5.850   3.281  12.288 -0.9420  1.8332  1.0416
 7270TIP3    H243302   5.905   3.344  12.161  1.6914 -0.5401  0.9214
 7271TIP3   OH243303   0.667   0.122   1.474  0.0579 -0.4340 -0.4294
 7271TIP3    H143304   0.694   0.121   1.382  2.6148 -1.0771  0.2359
 7271TIP3    H243305   0.683   0.032   1.504  3.3338  0.6616  1.6068
 7272TIP3   OH243306   2.694   1.534  15.301  0.1733 -0.0457 -0.0737
 7272TIP3    H143307   2.729   1.526  15.389  2.1972  0.0077 -0.8175
 7272TIP3    H243308   2.770   1.556  15.247 -1.2524  1.3753 -1.6180
 7273TIP3   OH243309   3.000   4.028  16.471 -0.1030  0.2233 -0.5405
 7273TIP3    H143310   3.038   4.115  16.486 -1.6098  1.5858 -3.6514
 7273TIP3    H243311   3.074   3.968  16.477  1.0799  1.7561  1.1897
 7274TIP3   OH243312   2.580   6.217   2.058 -0.3581 -0.3991 -0.1624
 7274TIP3    H143313   2.612   6.211   2.148 -1.6851  1.2461  0.4673
 7274TIP3    H243314   2.594   6.309   2.034 -2.2103 -0.2255 -0.7497
 7275TIP3   OH243315   2.784   3.927   3.996  0.1548 -0.2587 -0.6744
 7275TIP3    H143316   2.877   3.908   3.991  0.0459 -1.7812  1.5765
 7275TIP3    H243317   2.779   4.016   4.031  0.7678 -0.2017 -0.7216
 7276TIP3   OH243318   2.132   1.903  10.383  0.4364  0.1338  0.1461
 7276TIP3    H143319   2.127   1.814  10.417  1.2242  0.8389  2.3133
 7276TIP3    H243320   2.199   1.900  10.315  0.6164 -0.8846  0.3620
 7277TIP3   OH243321   0.652   2.652  10.203 -0.5472 -0.1944  0.0621
 7277TIP3    H143322   0.694   2.570  10.228 -0.2616 -0.1981 -0.4238
 7277TIP3    H243323   0.663   2.656  10.108  0.8427  1.1841  0.2586
 7278TIP3   OH243324   3.091   4.403  11.210 -0.2481 -0.6215  0.6696
 7278TIP3    H143325   3.090   4.383  11.116  1.4289  1.9172 -0.0062
 7278TIP3    H243326   3.009   4.450  11.225 -0.9792 -1.8757  0.7453
 7279TIP3   OH243327   0.084   5.175  13.857 -0.7679 -0.1467  0.0044
 7279TIP3    H143328   0.031   5.251  13.831 -1.0315  0.4381  2.0757
 7279TIP3    H243329   0.174   5.209  13.858 -0.9667  0.4213  1.7108
 7280TIP3   OH243330   3.518   0.429  12.876  0.6362 -0.4446 -0.4866
 7280TIP3    H143331   3.494   0.495  12.940 -1.6101 -0.2333 -1.4423
 7280TIP3    H243332   3.611   0.411  12.892  0.6926  1.2193  1.2997
 7281TIP3   OH243333   1.361   4.183   3.544  0.3056  0.0254  0.1828
 7281TIP3    H143334   1.380   4.111   3.484  2.5672  2.2395 -2.0311
 7281TIP3    H243335   1.427   4.176   3.612  1.7934  1.0085 -1.0934
 7282TIP3   OH243336   0.065   5.278   4.296 -0.0295 -0.5888 -0.2843
 7282TIP3    H143337   0.086   5.307   4.207 -0.1248 -2.4359 -0.9488
 7282TIP3    H243338   0.073   5.183   4.293 -3.6054 -1.0739  0.6767
 7283TIP3   OH243339   1.741   4.770   0.717  0.5097  0.1757 -0.3454
 7283TIP3    H143340   1.829   4.744   0.691  0.3205  1.1328 -2.1756
 7283TIP3    H243341   1.708   4.697   0.769  1.0320 -1.9553 -2.7879
 7284TIP3   OH243342   1.310   0.727   0.761 -0.2706  0.7179 -0.3755
 7284TIP3    H143343   1.223   0.766   0.747 -0.6347 -0.3370 -1.0915
 7284TIP3    H243344   1.371   0.794   0.732 -0.8292  1.4947  0.1806
 7285TIP3   OH243345   4.591   0.530   3.172 -0.2959 -0.6634  0.5140
 7285TIP3    H143346   4.571   0.467   3.103 -0.5855  0.6514 -0.6488
 7285TIP3    H243347   4.557   0.613   3.139 -0.8377 -0.0675  2.4427
 7286TIP3   OH243348   0.627   6.845  15.852 -0.2238 -0.1565 -0.4246
 7286TIP3    H143349   0.582   6.764  15.875 -2.0831  0.6807 -0.9293
 7286TIP3    H243350   0.662   6.877  15.935 -0.4244 -0.9219 -0.0319
 7287TIP3   OH243351   0.931   3.639  11.780  0.1219 -0.3237 -0.2440
 7287TIP3    H143352   0.938   3.714  11.721 -0.9102 -0.4400 -0.5390
 7287TIP3    H243353   0.886   3.673  11.857  0.4992 -0.4247  0.0215
 7288TIP3   OH243354   3.575   0.288   1.983 -0.1911 -0.1848  0.4073
 7288TIP3    H143355   3.564   0.314   1.891  2.1352 -2.8186 -0.7708
 7288TIP3    H243356   3.506   0.223   1.997 -0.8797  0.5957  0.7517
 7289TIP3   OH243357   5.230   4.658   4.360 -0.1292 -0.2355 -0.3318
 7289TIP3    H143358   5.275   4.719   4.418 -1.0102  1.2889 -1.1978
 7289TIP3    H243359   5.279   4.662   4.278 -0.0683 -0.8720 -0.3324
 7290TIP3   OH243360   6.588   4.525   2.912  0.2111  1.0488 -0.1709
 7290TIP3    H143361   6.594   4.513   2.817  0.7114  1.2993 -0.1703
 7290TIP3    H243362   6.659   4.585   2.934 -0.3878  1.6155  0.2599
 7291TIP3   OH243363   1.190   1.600   6.271  0.2525  0.2043  0.2096
 7291TIP3    H143364   1.119   1.654   6.304 -0.0026 -0.9819  1.7223
 7291TIP3    H243365   1.147   1.532   6.219  0.2860 -0.3359  0.8742
 7292TIP3   OH243366   1.231   6.252  14.093  0.2176 -0.2161 -0.3350
 7292TIP3    H143367   1.278   6.223  14.171 -1.3516 -0.4616  0.5675
 7292TIP3    H243368   1.242   6.180  14.030  1.5106 -0.0081 -0.3676
 7293TIP3   OH243369   2.860   6.597   5.857 -0.2470  0.7269 -0.0257
 7293TIP3    H143370   2.849   6.561   5.944  2.0836 -1.1716 -0.4395
 7293TIP3    H243371   2.851   6.522   5.798  1.3472  1.3690 -1.1678
 7294TIP3   OH243372   5.613   5.064  12.117  0.4550 -0.1738 -0.2644
 7294TIP3    H143373   5.643   5.124  12.186  2.9228 -0.3369 -1.0841
 7294TIP3    H243374   5.634   5.110  12.035 -1.7201 -0.3102 -0.9635
 7295TIP3   OH243375   2.904   6.408  11.824  0.0832 -0.0371 -0.0748
 7295TIP3    H143376   2.892   6.356  11.745  1.1753  0.7230 -0.7840
 7295TIP3    H243377   2.816   6.424  11.856 -0.2674 -2.5876  0.3865
 7296TIP3   OH243378   4.841   1.155  14.052 -0.7307 -0.1230  0.5582
 7296TIP3    H143379   4.808   1.078  14.006 -0.0265 -1.2842  1.9392
 7296TIP3    H243380   4.926   1.173  14.011 -1.5392  0.8922 -0.7846
 7297TIP3   OH243381   1.858   1.074   4.570  0.1241 -0.0112  0.2430
 7297TIP3    H143382   1.871   1.031   4.655 -0.3986  2.3214  1.5867
 7297TIP3    H243383   1.936   1.129   4.559  0.3338 -0.5269 -0.9710
 7298TIP3   OH243384   0.425   5.979  14.102 -0.5108  1.2332 -0.3167
 7298TIP3    H143385   0.470   5.899  14.076  4.3974  3.0054  1.4746
 7298TIP3    H243386   0.489   6.049  14.085 -3.4253  4.4512  0.7803
 7299TIP3   OH243387   5.590   4.577  12.577  0.7570  0.0585 -0.1213
 7299TIP3    H143388   5.667   4.621  12.610  0.8727  1.3275 -1.9315
 7299TIP3    H243389   5.608   4.564  12.484 -1.3391  0.7691 -0.6841
 7300TIP3   OH243390   6.718   6.686  14.214  0.4272 -0.1432 -0.3382
 7300TIP3    H143391   6.788   6.736  14.171 -0.9114  1.7832 -0.3797
 7300TIP3    H243392   6.739   6.692  14.307  0.0380  0.9339 -0.3065
 7301TIP3   OH243393   1.774   0.594   1.100 -0.0300 -0.2229  0.0653
 7301TIP3    H143394   1.757   0.671   1.047 -0.0185 -1.4869 -1.8845
 7301TIP3    H243395   1.688   0.567   1.132 -0.0919  0.3035  0.3569
 7302TIP3   OH243396   0.846   2.549  13.292 -0.4983  0.1320  0.0625
 7302TIP3    H143397   0.759   2.563  13.255 -0.6640  1.3392  0.8271
 7302TIP3    H243398   0.830   2.505  13.376 -0.4001  0.5565  0.3089
 7303TIP3   OH243399   4.944   5.712   6.359 -0.2892  0.1490 -0.3066
 7303TIP3    H143400   4.903   5.698   6.444 -0.7836 -2.4048 -0.8726
 7303TIP3    H243401   4.906   5.794   6.327  0.1968  1.3809  2.0339
 7304TIP3   OH243402   2.557   3.119   3.230 -0.1925 -0.2409  0.1742
 7304TIP3    H143403   2.568   3.207   3.195  0.2207  0.4552  1.9368
 7304TIP3    H243404   2.489   3.127   3.296  0.7184 -0.9444  1.2428
 7305TIP3   OH243405   5.424   2.783  13.900  0.3726  0.3862 -0.2668
 7305TIP3    H143406   5.501   2.839  13.909  0.5257  0.2136 -0.5120
 7305TIP3    H243407   5.458   2.699  13.868  0.0143  0.4990 -0.9539
 7306TIP3   OH243408   3.489   2.771  15.631 -0.3128  0.3829 -0.2807
 7306TIP3    H143409   3.470   2.864  15.637  1.7257  0.9335 -1.3434
 7306TIP3    H243410   3.476   2.750  15.538  0.0925 -0.1755 -0.2200
 7307TIP3   OH243411   4.623   6.747   1.139  0.4193 -0.2632 -0.5155
 7307TIP3    H143412   4.540   6.712   1.107 -0.1896  1.1149 -0.5076
 7307TIP3    H243413   4.603   6.837   1.165  1.8886  0.0653 -0.4229
 7308TIP3   OH243414   6.753   2.299  11.988 -0.2654 -0.0540 -0.2162
 7308TIP3    H143415   6.776   2.279  12.079 -1.9363 -1.4908 -0.0415
 7308TIP3    H243416   6.754   2.213  11.945  0.6188  0.6246 -1.6093
 7309TIP3   OH243417   6.774   3.776   5.485 -0.0289  0.0401 -0.1382
 7309TIP3    H143418   6.764   3.835   5.560 -0.3204 -1.0688  0.7183
 7309TIP3    H243419   6.829   3.705   5.518  0.7892  0.1065 -1.3217
 7310TIP3   OH243420   2.215   5.830  14.819  0.5592  0.2880 -0.0676
 7310TIP3    H143421   2.256   5.836  14.905  2.6109  0.7894 -1.0167
 7310TIP3    H243422   2.145   5.896  14.821 -0.0067 -0.3241  1.4853
 7311TIP3   OH243423   6.188   5.016  12.651  0.2148 -0.3176  0.4634
 7311TIP3    H143424   6.277   5.032  12.620 -0.1847 -1.0238 -1.1818
 7311TIP3    H243425   6.164   4.932  12.612 -1.1235 -0.2006  0.9797
 7312TIP3   OH243426   0.311   1.309  16.189  0.0347 -0.2558 -0.3913
 7312TIP3    H143427   0.276   1.220  16.185  0.9223 -0.5866 -1.3275
 7312TIP3    H243428   0.235   1.366  16.176 -0.4110 -0.9034 -0.6342
 7313TIP3   OH243429   1.209   6.338   6.004 -0.2232 -0.2634  0.4390
 7313TIP3    H143430   1.244   6.422   6.034 -1.2003  0.8331 -1.2934
 7313TIP3    H243431   1.286   6.288   5.978  0.2987  0.6735  0.1164
 7314TIP3   OH243432   5.489   1.508  14.649 -0.0015  0.5334  0.5509
 7314TIP3    H143433   5.545   1.449  14.699 -0.9286 -1.5524 -0.7486
 7314TIP3    H243434   5.439   1.555  14.715  0.1026 -0.8218  1.6441
 7315TIP3   OH243435   2.413   5.827   1.967  0.2458  0.2374  0.6273
 7315TIP3    H143436   2.418   5.856   1.876  2.7056  1.5772  1.1067
 7315TIP3    H243437   2.384   5.736   1.962 -2.3959  1.0656 -1.2609
 7316TIP3   OH243438   6.163   3.002   5.812  0.3920 -0.2192 -0.4190
 7316TIP3    H143439   6.251   3.041   5.814  1.1593 -1.8340 -0.6319
 7316TIP3    H243440   6.179   2.910   5.792 -1.3105 -0.7265  0.3896
 7317TIP3   OH243441   4.291   1.721   1.851  0.3217  0.7983  0.2446
 7317TIP3    H143442   4.321   1.726   1.941  0.4355 -0.5269  0.2926
 7317TIP3    H243443   4.330   1.641   1.816 -0.8243  0.5555 -0.5628
 7318TIP3   OH243444   2.733   4.544  14.815  0.2868 -0.0641  0.0644
 7318TIP3    H143445   2.721   4.636  14.837 -1.8928 -0.5530  1.2259
 7318TIP3    H243446   2.709   4.538  14.723 -1.6087  0.2397  0.5001
 7319TIP3   OH243447   1.536   0.862  14.881 -0.5674  0.3692  0.2883
 7319TIP3    H143448   1.539   0.926  14.952  2.2479  0.2936  0.3438
 7319TIP3    H243449   1.618   0.874  14.834  0.0663 -3.0732  0.2426
 7320TIP3   OH243450   0.017   2.029   4.900  0.3246 -0.8782 -0.0387
 7320TIP3    H143451  -0.071   1.994   4.912 -1.0346  2.2326  0.2431
 7320TIP3    H243452   0.040   2.009   4.809 -0.3070 -2.4172  0.1268
 7321TIP3   OH243453   0.060   2.889  14.667 -0.0232 -0.3053  0.0164
 7321TIP3    H143454   0.007   2.969  14.666  1.1918  0.6459  2.1820
 7321TIP3    H243455   0.147   2.918  14.638  0.4311 -0.8157  0.8158
 7322TIP3   OH243456   0.610   4.055   4.258 -0.1073 -0.0684 -0.1617
 7322TIP3    H143457   0.624   4.077   4.166 -0.7647 -2.1848 -0.8279
 7322TIP3    H243458   0.523   4.016   4.261  0.0421 -0.3625  1.3088
 7323TIP3   OH243459   1.859   6.286   0.021  0.2371  0.1827 -0.4549
 7323TIP3    H143460   1.774   6.251  -0.008  0.2859  0.9077 -1.5464
 7323TIP3    H243461   1.844   6.381   0.027  0.7272  0.2217  0.2473
 7324TIP3   OH243462   0.289   4.727  15.341  0.1303 -0.7967 -0.2622
 7324TIP3    H143463   0.300   4.806  15.394  2.5120 -0.5477 -1.0075
 7324TIP3    H243464   0.202   4.736  15.303  0.2199  1.3421 -0.0985
 7325TIP3   OH243465   2.763   1.424   1.442 -0.1520 -0.0358  0.3183
 7325TIP3    H143466   2.688   1.365   1.436 -0.1097 -0.0889  0.3039
 7325TIP3    H243467   2.725   1.510   1.459 -0.1392 -0.2975  1.7374
 7326TIP3   OH243468   3.951   3.109   2.679  0.6832 -0.0836  0.1536
 7326TIP3    H143469   4.016   3.166   2.638 -1.3134  0.9830 -1.6989
 7326TIP3    H243470   3.899   3.168   2.734 -1.7088  0.1406 -2.1543
 7327TIP3   OH243471   0.194   2.261   3.816  0.4086  0.2092  0.2483
 7327TIP3    H143472   0.218   2.337   3.763 -0.3434  0.4720  0.2579
 7327TIP3    H243473   0.133   2.296   3.881  0.5159 -0.2971  0.6277
 7328TIP3   OH243474   5.054   2.819  15.909 -0.1658  0.1573 -0.5706
 7328TIP3    H143475   5.014   2.741  15.947  0.2697  1.0941  1.9974
 7328TIP3    H243476   5.136   2.829  15.957 -0.3416  2.3414 -0.6471
 7329TIP3   OH243477   5.403   4.993  13.530  0.3741  0.9433  0.2488
 7329TIP3    H143478   5.430   4.926  13.592  1.7358 -0.5612 -1.8580
 7329TIP3    H243479   5.312   4.971  13.510  1.3029 -1.5110 -1.7743
 7330TIP3   OH243480   1.222   0.983   4.336 -0.4641  0.2245 -0.5484
 7330TIP3    H143481   1.234   0.970   4.242  1.3243 -0.5213 -0.2563
 7330TIP3    H243482   1.176   0.904   4.366 -0.4225  0.1503 -0.6813
 7331TIP3   OH243483   5.467   6.314   4.064 -0.2038  0.0622 -0.2103
 7331TIP3    H143484   5.532   6.260   4.019  0.0900  0.9076 -0.8250
 7331TIP3    H243485   5.474   6.288   4.156  0.2497 -0.6195 -0.4304
 7332TIP3   OH243486   1.191   1.740  10.985 -0.1185 -0.1966 -0.2015
 7332TIP3    H143487   1.246   1.808  10.946 -0.0011  0.1806  0.6099
 7332TIP3    H243488   1.236   1.658  10.965  1.6689  0.1920  1.8496
 7333TIP3   OH243489   5.533   4.953   2.568  0.2291 -0.0613 -0.0725
 7333TIP3    H143490   5.591   4.928   2.639  1.7391  2.1451 -0.4571
 7333TIP3    H243491   5.564   5.039   2.539 -2.3769  0.6120 -1.2176
 7334TIP3   OH243492   4.836   2.298   4.557  0.3758  0.2860  0.2874
 7334TIP3    H143493   4.742   2.305   4.578  0.7728  1.3835  1.8601
 7334TIP3    H243494   4.837   2.273   4.465 -1.4676 -1.3181  0.6287
 7335TIP3   OH243495   0.342   5.841  14.993  0.1964 -0.0247 -0.6271
 7335TIP3    H143496   0.302   5.793  14.920 -0.8735 -0.0994 -0.0122
 7335TIP3    H243497   0.278   5.909  15.014 -0.6716 -1.4900  1.8145
 7336TIP3   OH243498   1.015   5.245  16.312  0.2534 -0.0381 -0.5107
 7336TIP3    H143499   1.021   5.211  16.223 -1.0835 -2.0156  0.1133
 7336TIP3    H243500   1.063   5.182  16.366  1.3228  1.2948  0.1825
 7337TIP3   OH243501   1.052   3.149   3.814 -0.1006 -0.4658 -0.5146
 7337TIP3    H143502   0.996   3.150   3.737 -0.8831 -0.7983  0.0405
 7337TIP3    H243503   0.999   3.109   3.883 -0.0998  1.4909  0.7136
 7338TIP3   OH243504   4.928   3.544  14.145 -0.0864  0.1767 -0.0291
 7338TIP3    H143505   5.010   3.526  14.100  0.5967  0.5398  1.0529
 7338TIP3    H243506   4.913   3.638  14.130 -0.7792 -0.0696 -0.9767
 7339TIP3   OH243507   4.776   4.659  13.589  0.0916 -0.7217 -0.0041
 7339TIP3    H143508   4.724   4.673  13.668 -0.8802 -1.5117 -0.4765
 7339TIP3    H243509   4.854   4.613  13.619  0.4265  0.2787  0.6895
 7340TIP3   OH243510   0.798   2.681   3.113 -0.3091 -0.2341  0.1483
 7340TIP3    H143511   0.736   2.619   3.073 -0.9068  0.8058 -0.5920
 7340TIP3    H243512   0.811   2.747   3.045  0.2475  0.4945  0.9581
 7341TIP3   OH243513   2.597   3.011  10.787 -0.1366  0.5754 -0.3165
 7341TIP3    H143514   2.511   3.048  10.765 -2.0415 -3.2295 -0.0774
 7341TIP3    H243515   2.613   3.039  10.877 -3.7429 -2.6023  1.5597
 7342TIP3   OH243516   4.593   6.219   0.819  0.0095 -0.1901  0.1135
 7342TIP3    H143517   4.625   6.296   0.866  0.9407 -0.8445  0.6047
 7342TIP3    H243518   4.636   6.224   0.734 -1.9284  1.1664 -0.8378
 7343TIP3   OH243519   0.235   4.262  14.593 -0.5564 -0.1302 -0.1867
 7343TIP3    H143520   0.167   4.201  14.563 -1.2272  1.6961 -2.6897
 7343TIP3    H243521   0.189   4.326  14.646 -0.5799  0.3326 -0.7511
 7344TIP3   OH243522   4.467   0.436   2.144  0.6748  0.3628  0.0222
 7344TIP3    H143523   4.549   0.485   2.141  1.4406 -0.9357 -1.9118
 7344TIP3    H243524   4.455   0.403   2.055 -1.0662 -0.9026  0.6651
 7345TIP3   OH243525   4.580   3.073   0.836 -0.1751  0.3058 -0.1939
 7345TIP3    H143526   4.568   3.064   0.741 -0.2172  2.6661 -0.4559
 7345TIP3    H243527   4.505   3.026   0.873 -0.6232  0.0766 -1.3346
 7346TIP3   OH243528   1.442   5.223  14.378 -0.3712  0.0472 -0.0932
 7346TIP3    H143529   1.487   5.306  14.359  0.1142 -0.4880 -1.4059
 7346TIP3    H243530   1.507   5.170  14.424 -0.0233 -0.3076 -0.9795
 7347TIP3   OH243531   2.386   0.101  16.037 -0.1129 -0.0358 -0.0993
 7347TIP3    H143532   2.420   0.162  16.102 -1.9008 -0.2773  1.1400
 7347TIP3    H243533   2.302   0.138  16.010 -0.0581 -0.6718 -1.2126
 7348TIP3   OH243534   5.704   1.468  14.098 -0.2253 -0.1164  0.3041
 7348TIP3    H143535   5.718   1.545  14.152 -0.3133 -0.5232  0.9176
 7348TIP3    H243536   5.789   1.423  14.097 -0.2951 -0.2515  0.3375
 7349TIP3   OH243537   4.990   6.334   1.934  0.2097 -0.0488 -0.7435
 7349TIP3    H143538   4.950   6.373   1.856  2.2730  1.5554 -1.0765
 7349TIP3    H243539   4.947   6.377   2.007 -1.1489 -0.9571 -0.9636
 7350TIP3   OH243540   4.492   1.449   1.132 -0.1047  0.1685  0.1756
 7350TIP3    H143541   4.520   1.493   1.212  1.9891  0.5338 -0.6816
 7350TIP3    H243542   4.423   1.505   1.097  0.0232  0.8329  0.9437
 7351TIP3   OH243543   0.119   6.623  13.878 -0.0826  0.3686 -0.1166
 7351TIP3    H143544   0.126   6.559  13.949 -1.8734  1.2668  0.9353
 7351TIP3    H243545   0.064   6.579  13.813  1.3706 -0.3657 -0.8991
 7352TIP3   OH243546   5.020   0.391  16.079  0.4629  0.3735 -0.0276
 7352TIP3    H143547   5.105   0.383  16.037 -0.7560  0.2870 -2.6734
 7352TIP3    H243548   5.000   0.485  16.077 -0.1540  0.2379 -0.8834
 7353TIP3   OH243549   4.516   1.944   5.759 -0.2580 -0.5414  0.4182
 7353TIP3    H143550   4.481   1.997   5.687 -1.9978 -1.0863  0.8268
 7353TIP3    H243551   4.519   2.004   5.833 -0.8209 -0.6193  0.5078
 7354TIP3   OH243552   1.294   0.838   6.516 -0.0600 -0.4678 -0.5600
 7354TIP3    H143553   1.290   0.887   6.433  1.5307  0.0048 -0.3778
 7354TIP3    H243554   1.244   0.758   6.498  0.5768 -0.5618 -2.1217
 7355TIP3   OH243555   5.214   5.771  16.239  0.2245  0.0593  0.0433
 7355TIP3    H143556   5.239   5.863  16.228  0.4098 -0.1524 -1.7143
 7355TIP3    H243557   5.297   5.726  16.257 -0.1872  0.5335  4.0724
 7356TIP3   OH243558   0.690   0.222  15.191 -0.7526  0.5748  0.3025
 7356TIP3    H143559   0.671   0.309  15.156 -1.1409  0.9264  1.3620
 7356TIP3    H243560   0.651   0.222  15.278 -1.8464 -1.0846 -0.1442
 7357TIP3   OH243561   4.268   0.339   5.662  0.5469 -0.1124 -0.7373
 7357TIP3    H143562   4.180   0.366   5.638  0.6557 -0.3099 -1.3845
 7357TIP3    H243563   4.256   0.268   5.725  0.2609  1.2404  0.7755
 7358TIP3   OH243564   5.827   0.175  12.419 -0.7042 -0.0004 -0.2047
 7358TIP3    H143565   5.793   0.230  12.348  1.4678  1.6694 -0.0387
 7358TIP3    H243566   5.900   0.127  12.379 -1.1267 -1.0755  0.2622
 7359TIP3   OH243567   2.658   0.628   0.793 -0.1962 -0.5909  0.1435
 7359TIP3    H143568   2.697   0.582   0.718 -0.5769 -0.0819 -0.3736
 7359TIP3    H243569   2.636   0.558   0.855  2.8010 -0.8412  1.0864
 7360TIP3   OH243570   5.473   1.512  16.177  0.6432 -0.0826  0.0878
 7360TIP3    H143571   5.498   1.510  16.270  1.2883  0.4447 -0.0698
 7360TIP3    H243572   5.545   1.557  16.134 -0.5330  1.4132 -0.3966
 7361TIP3   OH243573   0.891   3.903  12.985  0.0927  0.2415 -0.3514
 7361TIP3    H143574   0.961   3.839  12.978  0.8654  0.9474  0.6741
 7361TIP3    H243575   0.930   3.985  12.953  0.2716  0.9958  1.6680
 7362TIP3   OH243576   4.893   0.921   5.595 -0.2898 -0.0686 -0.2204
 7362TIP3    H143577   4.846   0.838   5.588 -0.8919  0.3105 -0.8027
 7362TIP3    H243578   4.824   0.987   5.603  0.1960  0.3143  1.0542
 7363TIP3   OH243579   4.829   5.930   0.917 -0.0306  0.4775 -1.0892
 7363TIP3    H143580   4.743   5.962   0.945  0.3112  1.7259 -1.4136
 7363TIP3    H243581   4.863   5.884   0.994 -0.6967  0.5646 -0.7310
 7364TIP3   OH243582   4.250   2.403   1.205  0.6129 -0.2121 -0.0241
 7364TIP3    H143583   4.181   2.464   1.180  1.1350  0.2416 -0.3843
 7364TIP3    H243584   4.204   2.320   1.222 -0.0404  0.1418 -0.0244
 7365TIP3   OH243585   4.981   5.876   1.645  0.1519 -0.1201  0.3573
 7365TIP3    H143586   5.015   5.953   1.600  2.0057 -1.3843 -0.5100
 7365TIP3    H243587   5.046   5.857   1.713  1.0073 -2.2802 -0.9897
 7366TIP3   OH243588   3.053   0.219  15.697 -0.2015  0.7397  0.4526
 7366TIP3    H143589   3.023   0.181  15.780 -0.8158  2.6669  1.1807
 7366TIP3    H243590   3.002   0.300  15.688 -0.4472  0.3893 -2.0383
 7367TIP3   OH243591   5.033   3.263   2.279 -0.0959  0.0458 -0.0313
 7367TIP3    H143592   4.958   3.281   2.222  0.0381 -1.4151 -0.6962
 7367TIP3    H243593   5.057   3.349   2.314 -0.5581  0.8955 -1.6956
 7368TIP3   OH243594   5.707   5.899  12.053  0.1462  0.1173 -0.1133
 7368TIP3    H143595   5.692   5.809  12.023 -0.8787 -0.0616  0.8917
 7368TIP3    H243596   5.664   5.904  12.138 -0.7735  1.8878 -0.6273
 7369TIP3   OH243597   3.104   4.366  11.491  0.3623 -0.1035 -0.1584
 7369TIP3    H143598   3.015   4.334  11.508  0.0941  0.5211 -0.3608
 7369TIP3    H243599   3.103   4.394  11.400  1.0723 -1.0564 -0.4703
 7370TIP3   OH243600   2.090   3.502   2.205  0.3514 -0.3177  0.2535
 7370TIP3    H143601   2.124   3.493   2.294 -0.0982  0.5554  0.5293
 7370TIP3    H243602   2.166   3.528   2.153  0.8617 -1.8935  0.1412
 7371TIP3   OH243603   3.916   6.753  10.964 -0.6918 -0.0062  0.1868
 7371TIP3    H143604   3.876   6.739  10.878 -1.0405 -0.8305  0.4680
 7371TIP3    H243605   3.911   6.667  11.007 -0.6972  0.4330  1.0983
 7372TIP3   OH243606   3.082   3.390  14.702 -0.0515 -0.0766  0.3027
 7372TIP3    H143607   3.092   3.481  14.677  0.1438 -0.0625  0.4311
 7372TIP3    H243608   3.171   3.361  14.723  0.2546 -0.9306 -1.8716
 7373TIP3   OH243609   4.123   3.254   4.064  0.0318 -0.4995  0.0727
 7373TIP3    H143610   4.217   3.250   4.083  0.2470 -0.5864 -0.9194
 7373TIP3    H243611   4.093   3.334   4.107  0.5237 -0.5653  0.5461
 7374TIP3   OH243612   2.961   0.565   0.702  0.3235 -0.2961 -0.1496
 7374TIP3    H143613   2.897   0.539   0.636 -0.6610  0.3615  0.5221
 7374TIP3    H243614   2.963   0.493   0.764  0.2373 -0.3194 -0.1743
 7375TIP3   OH243615   1.245   5.137  15.175  0.0487  0.8072  0.1918
 7375TIP3    H143616   1.302   5.110  15.103  0.9234  1.1064  0.7640
 7375TIP3    H243617   1.277   5.224  15.199 -1.3205  1.4484 -0.1637
 7376TIP3   OH243618   5.996   4.058  14.134 -0.1312  0.0984  0.0899
 7376TIP3    H143619   5.923   4.028  14.187  1.0372 -0.3618  1.5016
 7376TIP3    H243620   6.073   4.043  14.188  0.8262  2.7995 -0.3734
 7377TIP3   OH243621   3.750   3.668  14.288  0.3389 -0.7517  0.0795
 7377TIP3    H143622   3.788   3.710  14.211 -0.5073 -1.8227 -0.9599
 7377TIP3    H243623   3.824   3.626  14.331  0.9675  0.6046  0.3740
 7378TIP3   OH243624   5.854   2.612   0.856  0.2516  0.2841  0.4147
 7378TIP3    H143625   5.922   2.678   0.871  0.3323  0.3275 -0.1011
 7378TIP3    H243626   5.888   2.559   0.784 -0.1015  0.0838  0.3934
 7379TIP3   OH243627   5.016   2.677   1.007  0.1744  0.2508 -0.0272
 7379TIP3    H143628   5.009   2.735   0.930  1.7531  0.9042  0.2842
 7379TIP3    H243629   5.006   2.736   1.081 -0.0726 -0.1915  0.2948
 7380TIP3   OH243630   2.321   6.573  15.960  0.2494 -0.3986  0.1904
 7380TIP3    H143631   2.299   6.654  15.916  1.5704  0.2288  0.6213
 7380TIP3    H243632   2.344   6.512  15.889 -1.4292 -0.6435 -0.1689
 7381TIP3   OH243633   3.187   2.617   1.184  0.2145 -0.6755 -0.0615
 7381TIP3    H143634   3.128   2.581   1.251 -1.6847  0.6812 -0.8944
 7381TIP3    H243635   3.200   2.708   1.211  1.9994 -0.9400  0.0929
 7382TIP3   OH243636   1.587   3.237   0.183 -0.1293  0.1504  0.1180
 7382TIP3    H143637   1.538   3.272   0.108  0.8705  2.1600  0.3291
 7382TIP3    H243638   1.542   3.272   0.260  0.8087  0.9389  0.3376
 7383TIP3   OH243639   0.487   6.177  10.797 -0.2536 -0.1589  0.3664
 7383TIP3    H143640   0.526   6.089  10.800 -2.0697 -1.1459 -1.7565
 7383TIP3    H243641   0.559   6.235  10.772  0.8757 -1.0958  1.3302
 7384TIP3   OH243642   6.764   3.992  11.343  0.4427 -0.0404 -0.1979
 7384TIP3    H143643   6.762   3.898  11.360 -0.2387 -0.0285 -0.1987
 7384TIP3    H243644   6.843   4.023  11.389 -0.5386 -0.2459  1.7384
 7385TIP3   OH243645   5.604   0.516   4.449  0.2096  0.2167 -0.2276
 7385TIP3    H143646   5.510   0.514   4.470  0.3831  0.2306  0.6042
 7385TIP3    H243647   5.639   0.438   4.493  0.5677  0.1554 -0.6271
 7386TIP3   OH243648   1.611   1.362  14.974 -0.6586 -0.0829  0.4065
 7386TIP3    H143649   1.630   1.351  14.881  0.3849  0.1639  0.5706
 7386TIP3    H243650   1.661   1.440  14.999 -0.0929 -0.7274  1.3886
 7387TIP3   OH243651   6.679   0.703  16.447 -0.1484  0.2584 -0.2423
 7387TIP3    H143652   6.762   0.663  16.423 -0.2812 -0.5752  0.6195
 7387TIP3    H243653   6.681   0.708  16.543 -1.4548 -0.6420 -0.1366
 7388TIP3   OH243654   3.667   0.812  15.582 -0.7018 -0.3789  0.2031
 7388TIP3    H143655   3.686   0.718  15.575 -1.8355 -0.8006  2.0267
 7388TIP3    H243656   3.647   0.839  15.493 -0.9197 -2.0016 -0.2734
 7389TIP3   OH243657   0.223   6.715   3.175  0.2604 -0.3739 -0.3505
 7389TIP3    H143658   0.282   6.730   3.249  3.2771 -3.2392 -1.8903
 7389TIP3    H243659   0.155   6.657   3.209  1.1715 -1.0274  0.3970
 7390TIP3   OH243660   5.268   3.720  10.853 -0.0716 -0.1472  0.4367
 7390TIP3    H143661   5.216   3.736  10.932  0.7360  2.7744  0.4843
 7390TIP3    H243662   5.212   3.748  10.781 -0.2180 -1.3369  0.0654
 7391TIP3   OH243663   4.867   1.551  12.838  0.4139 -0.1071 -0.1024
 7391TIP3    H143664   4.774   1.530  12.851  0.7632 -0.5221  1.9520
 7391TIP3    H243665   4.866   1.630  12.783 -1.1269 -0.2723 -0.3689
 7392TIP3   OH243666   3.073   2.014   4.747 -0.3965  0.0510 -0.4550
 7392TIP3    H143667   3.021   2.051   4.676  0.8195  1.4764 -0.6495
 7392TIP3    H243668   3.105   1.931   4.712  0.3573  0.8239 -1.6786
 7393TIP3   OH243669   1.190   2.656  11.251 -0.4492  0.4163  0.2318
 7393TIP3    H143670   1.203   2.674  11.344 -2.9425 -1.5272  1.0531
 7393TIP3    H243671   1.115   2.711  11.226 -0.2593  0.3709 -0.4617
 7394TIP3   OH243672   0.513   2.287  11.893  0.2794  0.7662 -0.2109
 7394TIP3    H143673   0.428   2.245  11.900  0.2187  0.8389 -0.5108
 7394TIP3    H243674   0.558   2.263  11.974  0.2863  0.0387 -0.4253
 7395TIP3   OH243675   1.735   6.248   1.739  0.4591 -0.1652 -0.5898
 7395TIP3    H143676   1.671   6.202   1.684 -0.1455  0.6155 -0.5445
 7395TIP3    H243677   1.760   6.325   1.688  0.8129 -0.0711 -0.2810
 7396TIP3   OH243678   1.838   5.615   1.385  0.2949 -0.5467  0.3042
 7396TIP3    H143679   1.854   5.532   1.341  0.8812  0.2950 -1.1199
 7396TIP3    H243680   1.746   5.610   1.413  0.0937 -1.3618 -0.4654
 7397TIP3   OH243681   6.402   2.175   2.544 -0.2302 -0.0286 -0.1573
 7397TIP3    H143682   6.342   2.249   2.543 -1.7062 -1.1802 -0.9049
 7397TIP3    H243683   6.399   2.143   2.634 -0.3208  0.2662 -0.0563
 7398TIP3   OH243684   4.953   6.590   3.020  0.4735  0.0422  0.0144
 7398TIP3    H143685   4.927   6.681   3.004  0.6978 -0.0441 -0.8727
 7398TIP3    H243686   5.048   6.593   3.029  0.3916  0.0437  1.1439
 7399TIP3   OH243687   0.957   2.656   4.305 -0.3506  0.4073 -0.5189
 7399TIP3    H143688   0.899   2.603   4.250 -0.8196 -0.6728  0.9287
 7399TIP3    H243689   0.931   2.634   4.395  1.6806  0.5732  0.1747
 7400TIP3   OH243690   4.500   2.009  13.585 -0.6721 -0.2598  0.1590
 7400TIP3    H143691   4.440   1.937  13.568 -0.0265 -0.7407 -0.1108
 7400TIP3    H243692   4.546   1.984  13.664 -0.1857 -0.3184 -0.1400
 7401TIP3   OH243693   5.517   0.003  10.729  0.2743 -0.4230 -0.3655
 7401TIP3    H143694   5.437   0.046  10.697  0.2110 -0.9257 -0.8774
 7401TIP3    H243695   5.586   0.034  10.671  0.0717 -1.7478 -1.3466
 7402TIP3   OH243696   0.282   4.851  16.535  0.3712 -0.1298  0.0442
 7402TIP3    H143697   0.211   4.830  16.474  0.7113 -1.0508 -0.0419
 7402TIP3    H243698   0.353   4.791  16.512  1.0195  0.4704  0.4336
 7403TIP3   OH243699   3.557   0.840  12.278  0.1801 -0.1069 -0.0331
 7403TIP3    H143700   3.643   0.817  12.313 -0.6898 -1.2475  1.4380
 7403TIP3    H243701   3.499   0.771  12.308 -1.8526  2.0889  1.4670
 7404TIP3   OH243702   5.770   2.083   2.801 -0.0961 -0.0103  0.3946
 7404TIP3    H143703   5.792   2.093   2.894 -0.7206  0.6901  0.4798
 7404TIP3    H243704   5.729   2.166   2.778 -0.3105 -0.3357 -0.4072
 7405TIP3   OH243705   2.922   3.078   1.287  0.2268 -0.4213  0.6009
 7405TIP3    H143706   2.898   3.170   1.278  1.0043 -0.2000  0.7285
 7405TIP3    H243707   2.841   3.030   1.268 -0.8774  0.3449  2.9447
 7406TIP3   OH243708   6.285   5.742  16.539  0.2435 -0.0302  0.5438
 7406TIP3    H143709   6.366   5.767  16.494  0.3955 -0.8737  0.3195
 7406TIP3    H243710   6.307   5.741  16.632  0.1497  0.9305  0.5867
 7407TIP3   OH243711   3.317   4.623   4.432 -0.2703  0.3559  0.4593
 7407TIP3    H143712   3.255   4.688   4.398 -0.4221 -0.0448 -0.0441
 7407TIP3    H243713   3.330   4.647   4.524 -2.2950 -0.4166  0.9912
 7408TIP3   OH243714   0.613   1.083  12.959  0.0522  0.2568 -0.0674
 7408TIP3    H143715   0.568   1.039  12.886  1.0675 -0.3013 -0.3720
 7408TIP3    H243716   0.704   1.087  12.932  0.4339  0.1039  1.1411
 7409TIP3   OH243717   6.093   0.375  10.942 -0.0885  0.0541  0.1702
 7409TIP3    H143718   6.079   0.446  10.879 -0.2396 -1.2668 -1.3797
 7409TIP3    H243719   6.104   0.297  10.887 -2.4518 -1.5683  1.7865
 7410TIP3   OH243720   6.658   0.979   3.177 -0.7387 -0.4742  0.1589
 7410TIP3    H143721   6.657   0.907   3.114  2.6183  0.5490 -1.3399
 7410TIP3    H243722   6.675   1.057   3.124 -0.3222  0.8297  2.0917
 7411TIP3   OH243723   5.815   1.890  16.420  0.0391 -0.1059  0.0929
 7411TIP3    H143724   5.724   1.882  16.448 -0.1828  1.1137 -0.2342
 7411TIP3    H243725   5.816   1.854  16.331 -0.3876  0.9582 -0.3594
 7412TIP3   OH243726   0.386   2.649   4.976  0.0841  0.0723  0.5583
 7412TIP3    H143727   0.449   2.636   4.905 -0.6425  0.6211 -0.2113
 7412TIP3    H243728   0.426   2.608   5.052  1.2339  0.1545  0.0121
 7413TIP3   OH243729   2.112   0.015   3.209  0.2315 -0.3410 -0.1114
 7413TIP3    H143730   2.119  -0.076   3.239 -1.7552 -0.6334 -0.3905
 7413TIP3    H243731   2.127   0.011   3.115  2.5175  0.0236  0.1588
 7414TIP3   OH243732   5.932   5.285  11.283 -0.2815  0.1395  0.3462
 7414TIP3    H143733   5.932   5.348  11.355 -2.9992 -1.6813  2.1214
 7414TIP3    H243734   5.917   5.338  11.205  1.6826  2.0666  1.1613
 7415TIP3   OH243735   5.961   5.785  15.268  0.3786  0.3539 -0.0123
 7415TIP3    H143736   5.987   5.771  15.359  2.4806  0.4068 -0.5646
 7415TIP3    H243737   6.043   5.794  15.220 -0.6041  4.4993 -1.3148
 7416TIP3   OH243738   3.784   3.896   1.287 -0.0055 -0.3601  0.2853
 7416TIP3    H143739   3.724   3.836   1.331  0.5496 -1.2821 -0.1763
 7416TIP3    H243740   3.747   3.907   1.199  0.1658 -0.4335  0.2032
 7417TIP3   OH243741   3.111   0.812   3.942 -0.5448 -0.1774 -0.7832
 7417TIP3    H143742   3.083   0.728   3.977  0.0419  0.0329  0.2408
 7417TIP3    H243743   3.203   0.819   3.968 -0.4499  0.5618 -1.2820
 7418TIP3   OH243744   3.595   4.712  15.861 -0.1528  0.5656  0.1325
 7418TIP3    H143745   3.509   4.671  15.867  1.8779 -4.1596  2.2333
 7418TIP3    H243746   3.604   4.761  15.943 -0.0839 -0.9450  1.0736
 7419TIP3   OH243747   1.891   4.687  10.506  0.5107 -0.6632 -0.4883
 7419TIP3    H143748   1.828   4.736  10.558  0.0175 -0.1069 -1.5689
 7419TIP3    H243749   1.949   4.646  10.570  0.5683  0.8440  0.4634
 7420TIP3   OH243750   1.389   6.357   5.092  0.1920  0.0233  0.8664
 7420TIP3    H143751   1.447   6.428   5.066 -0.1001 -0.0360  0.0247
 7420TIP3    H243752   1.404   6.288   5.028 -0.6820 -0.0583  0.7310
 7421TIP3   OH243753   4.009   4.367   0.505 -0.1739  0.0250 -0.4089
 7421TIP3    H143754   3.946   4.317   0.452  0.6856  0.4542 -1.9049
 7421TIP3    H243755   4.027   4.311   0.580 -0.7386 -1.0461 -1.0445
 7422TIP3   OH243756   3.834   2.836  11.824  0.3725 -0.0337 -0.5691
 7422TIP3    H143757   3.773   2.810  11.755 -1.4245  1.8261  0.2184
 7422TIP3    H243758   3.890   2.759  11.837 -1.1164 -1.4421 -2.0644
 7423TIP3   OH243759   1.563   3.352  14.118 -0.2194 -0.1179  0.3257
 7423TIP3    H143760   1.616   3.388  14.046 -0.5961 -0.4802 -0.1354
 7423TIP3    H243761   1.613   3.374  14.197 -0.0381  0.6971 -0.0082
 7424TIP3   OH243762   0.881   2.759   1.052  0.3069 -0.1197  0.1312
 7424TIP3    H143763   0.871   2.841   1.100  1.7242 -0.3880  0.9153
 7424TIP3    H243764   0.942   2.779   0.981  1.8591 -0.8320  1.2254
 7425TIP3   OH243765   4.692   0.303   6.443 -0.3019 -0.2470 -0.3330
 7425TIP3    H143766   4.660   0.393   6.435 -0.6840 -0.3504  0.0019
 7425TIP3    H243767   4.616   0.248   6.420 -0.8189 -0.5162  1.8592
 7426TIP3   OH243768   4.904   5.228   5.396  0.1072 -0.1805  0.6418
 7426TIP3    H143769   4.889   5.317   5.429  2.8928  0.7516 -0.4210
 7426TIP3    H243770   4.941   5.181   5.471 -1.4151 -0.5265  1.2197
 7427TIP3   OH243771   2.196   0.703  10.923 -0.1840 -0.2373  0.3195
 7427TIP3    H143772   2.249   0.623  10.914  1.3555  0.8060 -0.4328
 7427TIP3    H243773   2.259   0.770  10.951 -1.5544  0.5987  1.5173
 7428TIP3   OH243774   1.156   0.584  11.753  0.7526 -0.0304 -0.0936
 7428TIP3    H143775   1.067   0.549  11.747  1.1872 -1.2096  0.0370
 7428TIP3    H243776   1.145   0.679  11.747 -0.6360 -0.0730  1.1163
 7429TIP3   OH243777   5.638   0.095   5.991 -0.1797 -0.6989  0.1326
 7429TIP3    H143778   5.647   0.027   6.058  0.1948 -1.1093 -0.3275
 7429TIP3    H243779   5.705   0.075   5.927  0.1604  0.3072  0.1509
 7430TIP3   OH243780   1.284   1.478  13.005  0.3824 -0.2403 -0.2084
 7430TIP3    H143781   1.274   1.538  12.931  0.9064  2.0663  1.5051
 7430TIP3    H243782   1.368   1.502  13.044  0.9158 -2.5512  0.2131
 7431TIP3   OH243783   3.708   0.200  12.180 -0.1112  0.1487 -0.1579
 7431TIP3    H143784   3.706   0.122  12.236  0.1152  1.4902  1.8150
 7431TIP3    H243785   3.618   0.232  12.180  0.1916  1.0540  0.8180
 7432TIP3   OH243786   2.565   6.486   2.082 -0.4648  0.4206 -0.5096
 7432TIP3    H143787   2.473   6.468   2.105  0.1091 -1.1296  0.7971
 7432TIP3    H243788   2.601   6.527   2.160 -0.0517  1.0876 -1.0485
 7433TIP3   OH243789   1.091   3.363  12.991  1.0996  0.7974 -0.3902
 7433TIP3    H143790   1.072   3.384  13.082 -0.2861  0.9635 -0.6953
 7433TIP3    H243791   1.119   3.271  12.992 -1.0454  0.0892 -0.0188
 7434TIP3   OH243792   0.937   5.431   1.478 -0.3246  0.1568  0.3459
 7434TIP3    H143793   0.878   5.361   1.448 -0.6180  1.0392 -1.2313
 7434TIP3    H243794   0.988   5.390   1.548 -1.7537 -1.0817  0.7306
 7435TIP3   OH243795   6.418   0.722  15.389  0.0001  0.4539  0.3666
 7435TIP3    H143796   6.463   0.700  15.308 -1.9469 -1.5427 -0.2823
 7435TIP3    H243797   6.334   0.759  15.361 -1.8001 -2.5605  1.2760
 7436TIP3   OH243798   2.644   3.502  14.039  0.2785 -0.5005 -0.5032
 7436TIP3    H143799   2.578   3.518  14.107 -0.7210 -1.1630 -1.2902
 7436TIP3    H243800   2.594   3.492  13.958  1.5178  1.7521 -1.6643
 7437TIP3   OH243801   3.136   6.613   0.938 -0.6616  0.2423  0.3176
 7437TIP3    H143802   3.137   6.613   1.034 -1.1408 -1.4059  0.3489
 7437TIP3    H243803   3.161   6.702   0.914 -1.1684  0.8706  1.9779
 7438TIP3   OH243804   5.657   5.287   5.911  0.4764 -0.0814  0.5564
 7438TIP3    H143805   5.621   5.297   6.000  0.8166 -0.1833  0.7058
 7438TIP3    H243806   5.629   5.200   5.883 -0.5624  0.3654  0.1340
 7439TIP3   OH243807   0.402   3.037   2.014  0.2024 -0.4139 -0.3691
 7439TIP3    H143808   0.420   3.008   1.925 -2.7729 -1.1323 -0.8366
 7439TIP3    H243809   0.422   3.131   2.013  0.5647 -0.4899 -1.6799
 7440TIP3   OH243810   5.070   2.055  12.603 -0.4392 -0.3313 -0.8635
 7440TIP3    H143811   5.122   2.061  12.523 -1.1353 -1.4925 -1.4199
 7440TIP3    H243812   5.034   1.966  12.602  0.2304 -0.6818  1.1651
 7441TIP3   OH243813   4.311   2.504   1.813  0.1758  0.0686 -0.2364
 7441TIP3    H143814   4.292   2.535   1.724  0.0254 -0.9603 -0.5769
 7441TIP3    H243815   4.233   2.454   1.839  0.4988 -0.2270  0.1934
 7442TIP3   OH243816   3.427   6.719   5.168 -0.2250  0.4715 -0.0581
 7442TIP3    H143817   3.333   6.737   5.173 -0.4580 -0.4608 -0.7013
 7442TIP3    H243818   3.456   6.764   5.089 -0.5455 -0.7939 -0.9387
 7443TIP3   OH243819   0.212   4.073   0.250  0.2915 -0.3793 -0.8597
 7443TIP3    H143820   0.139   4.128   0.278  1.0653 -0.4352  1.4970
 7443TIP3    H243821   0.254   4.122   0.180 -2.3845 -0.6966 -2.8408
 7444TIP3   OH243822   6.632   2.209   5.195 -0.3183 -0.9003  0.3816
 7444TIP3    H143823   6.631   2.120   5.162 -0.5268 -1.7987  2.6091
 7444TIP3    H243824   6.568   2.208   5.267  1.0207  0.5284  1.6554
 7445TIP3   OH243825   5.556   4.881   4.318  0.5378  0.1028  0.4146
 7445TIP3    H143826   5.486   4.946   4.314 -0.0607 -0.4606  1.4599
 7445TIP3    H243827   5.532   4.824   4.391  2.6910  0.6146  1.6007
 7446TIP3   OH243828   0.745   1.278   4.096 -0.0702 -0.3925 -0.0039
 7446TIP3    H143829   0.663   1.240   4.128 -0.4893  1.5467  1.3626
 7446TIP3    H243830   0.719   1.337   4.025  0.5092 -1.9921 -1.6370
 7447TIP3   OH243831   4.590   4.008   0.267  0.3559  0.2168  0.2470
 7447TIP3    H143832   4.569   3.993   0.359 -0.3729 -0.8726 -0.0747
 7447TIP3    H243833   4.637   3.929   0.239  0.4059  0.4521 -0.3627
 7448TIP3   OH243834   3.043   2.989  11.010 -0.0390 -0.5717 -0.2864
 7448TIP3    H143835   3.087   2.983  10.926  1.0941  0.3552  0.2154
 7448TIP3    H243836   2.999   3.074  11.009 -0.2698 -0.6869 -0.0605
 7449TIP3   OH243837   0.093   1.313   0.060 -0.2390  0.2877 -0.3041
 7449TIP3    H143838   0.040   1.305  -0.019 -1.6484 -0.0949  0.6514
 7449TIP3    H243839   0.059   1.246   0.119  1.7647 -0.4446  0.1245
 7450TIP3   OH243840   4.906   6.650   1.664  0.0016  0.3906  0.2320
 7450TIP3    H143841   4.857   6.585   1.615  0.7477 -1.4063  1.7566
 7450TIP3    H243842   4.975   6.679   1.603  0.9577 -1.8368  0.1521
 7451TIP3   OH243843   0.370   4.805  16.176 -0.2948 -0.2834 -0.2598
 7451TIP3    H143844   0.421   4.788  16.255  0.2241 -0.4894 -0.6296
 7451TIP3    H243845   0.414   4.753  16.108 -0.6401  0.0102 -0.7141
 7452TIP3   OH243846   6.076   0.218  16.018 -0.3619  0.4200  0.8518
 7452TIP3    H143847   6.082   0.309  16.048 -0.2802  0.6355  0.2169
 7452TIP3    H243848   6.167   0.191  16.005 -0.4083  0.9213 -0.8440
 7453TIP3   OH243849   5.065   2.629   3.938  0.2490  0.2059  0.3618
 7453TIP3    H143850   5.011   2.646   4.015  0.0075  0.4758  0.1346
 7453TIP3    H243851   5.149   2.601   3.974 -0.0202 -0.1611  0.7180
 7454TIP3   OH243852   3.859   1.014   0.183 -0.0184 -0.2634  1.2195
 7454TIP3    H143853   3.897   0.948   0.126  0.3667 -0.5303  1.7675
 7454TIP3    H243854   3.765   0.995   0.182  0.1337 -1.1344  1.7429
 7455TIP3   OH243855   6.560   1.935  16.632 -0.2365 -0.0606 -0.0448
 7455TIP3    H143856   6.568   1.840  16.639  1.1347  0.0269 -0.2801
 7455TIP3    H243857   6.605   1.969  16.709 -0.3290  0.4086 -0.1953
 7456TIP3   OH243858   1.189   6.384   5.263 -0.1396 -0.0386 -0.1844
 7456TIP3    H143859   1.262   6.376   5.202  0.6255  0.3088  0.6600
 7456TIP3    H243860   1.133   6.451   5.224  1.5427  1.9450  0.5943
 7457TIP3   OH243861   2.157   6.286  11.970 -0.4645  0.1758  0.3980
 7457TIP3    H143862   2.200   6.205  11.996 -2.6827 -0.9532  0.7569
 7457TIP3    H243863   2.075   6.258  11.930  0.1728  2.1087 -2.6063
 7458TIP3   OH243864   5.646   2.830  10.489  0.0864  0.2560  0.0271
 7458TIP3    H143865   5.560   2.867  10.508 -0.1220 -1.1756  2.3351
 7458TIP3    H243866   5.629   2.754  10.433 -0.2139 -0.1666  0.6768
 7459TIP3   OH243867   4.081   1.936  14.976  0.1013 -0.7372  0.2260
 7459TIP3    H143868   4.053   1.954  14.886  1.3604 -0.9555 -0.2374
 7459TIP3    H243869   4.018   1.873  15.009 -0.6906 -0.2441 -0.3173
 7460TIP3   OH243870   2.081   5.225  11.991  0.0518  0.1793  0.1258
 7460TIP3    H143871   2.152   5.162  12.004  0.1536  0.3179  0.2348
 7460TIP3    H243872   2.016   5.202  12.058  1.0274  1.5542  1.5915
 7461TIP3   OH243873   4.241   2.419  14.868 -0.2928 -0.1006 -0.1650
 7461TIP3    H143874   4.203   2.341  14.909 -0.3692  0.2014  0.3525
 7461TIP3    H243875   4.318   2.387  14.822  0.9892 -0.1820  1.8735
 7462TIP3   OH243876   3.050   5.855  15.981  0.5357 -0.2977 -0.3148
 7462TIP3    H143877   3.003   5.822  15.904 -0.3085 -1.0852  0.5122
 7462TIP3    H243878   2.984   5.904  16.030  0.3279 -2.0507  1.2508
 7463TIP3   OH243879   4.161   2.065  16.951 -0.1192 -0.3598  0.3455
 7463TIP3    H143880   4.128   2.092  16.865  1.5092 -0.0187 -0.2114
 7463TIP3    H243881   4.086   2.074  17.009 -0.9993  0.3722 -0.8423
 7464TIP3   OH243882   1.982   1.767   6.042  0.4943 -0.2005 -0.2721
 7464TIP3    H143883   1.998   1.801   5.954  1.7026 -0.6897 -0.2599
 7464TIP3    H243884   1.973   1.672   6.030  0.5697 -0.2606  0.1245
 7465TIP3   OH243885   5.254   2.707  14.467  0.2703  0.1206  0.4276
 7465TIP3    H143886   5.218   2.667  14.388  1.5204  1.1063 -0.6805
 7465TIP3    H243887   5.223   2.798  14.465 -1.2218 -0.2876  2.0838
 7466TIP3   OH243888   2.528   5.396  17.029 -0.1592  0.1009  0.1687
 7466TIP3    H143889   2.567   5.469  16.982 -1.1622 -1.3419 -3.1428
 7466TIP3    H243890   2.601   5.355  17.075  1.6855 -0.4673 -3.0359
 7467TIP3   OH243891   6.502   1.146  14.306  0.1925 -0.1457 -0.7764
 7467TIP3    H143892   6.581   1.141  14.252  0.9454  0.6631  0.1958
 7467TIP3    H243893   6.473   1.237  14.299  0.6621  0.1436  0.6188
 7468TIP3   OH243894   6.120   0.277   4.988 -0.4844 -0.2438  0.3136
 7468TIP3    H143895   6.041   0.317   5.025 -1.4396 -1.0906 -0.7421
 7468TIP3    H243896   6.110   0.184   5.005 -0.0161 -0.4266 -0.3925
 7469TIP3   OH243897   6.009   6.311  12.476  0.0782  0.7966  0.6572
 7469TIP3    H143898   6.000   6.353  12.561 -1.2785  1.4293  0.2156
 7469TIP3    H243899   5.958   6.365  12.416 -0.0904 -0.3818 -0.3042
 7470TIP3   OH243900   5.147   3.358   6.317 -0.2443 -0.5650  0.1522
 7470TIP3    H143901   5.234   3.355   6.357  0.2510 -1.7920 -0.9470
 7470TIP3    H243902   5.096   3.294   6.367 -0.7072  0.5437  1.1503
 7471TIP3   OH243903   0.997   5.220  14.291 -0.5890 -0.0517 -0.8888
 7471TIP3    H143904   1.023   5.294  14.346  0.0430 -0.7537 -0.2041
 7471TIP3    H243905   1.068   5.156  14.302 -1.5851 -1.1578 -0.6625
 7472TIP3   OH243906   5.661   4.875  10.725  0.1136  0.1437  0.0172
 7472TIP3    H143907   5.650   4.780  10.736 -0.0385  0.2898  1.2678
 7472TIP3    H243908   5.739   4.884  10.670 -1.5479 -0.7467 -2.7320
 7473TIP3   OH243909   6.259   4.260   2.265  0.5548  0.7879  0.7059
 7473TIP3    H143910   6.201   4.276   2.190 -1.4346 -3.1082  1.1536
 7473TIP3    H243911   6.201   4.258   2.340  1.7699 -0.0476  1.6623
 7474TIP3   OH243912   5.114   5.649   4.143 -0.6055 -0.0622 -0.1754
 7474TIP3    H143913   5.178   5.578   4.135 -0.2970  0.0620  1.0630
 7474TIP3    H243914   5.080   5.641   4.232 -1.2125  0.8074 -0.3159
 7475TIP3   OH243915   1.064   2.062   4.078  0.0065 -0.3431 -0.2790
 7475TIP3    H143916   0.980   2.094   4.046  0.6736  1.5523 -0.2721
 7475TIP3    H243917   1.126   2.131   4.056  2.0340 -2.6004 -2.2695
 7476TIP3   OH243918   3.979   1.240  12.863  0.2916 -0.0202 -0.0076
 7476TIP3    H143919   3.960   1.330  12.836  0.1640  0.1796  0.7313
 7476TIP3    H243920   3.927   1.186  12.803  1.1244  0.3551 -1.0908
 7477TIP3   OH243921   4.340   4.953   4.719  0.1910 -0.1922  0.0242
 7477TIP3    H143922   4.291   5.022   4.764  1.4022  0.3551  0.5499
 7477TIP3    H243923   4.424   4.949   4.765  0.2672 -1.8145 -0.1959
 7478TIP3   OH243924   6.048   4.187  14.966  0.1641  0.1591 -0.2713
 7478TIP3    H143925   6.013   4.138  15.040  1.3653 -0.2479  0.0515
 7478TIP3    H243926   5.979   4.185  14.900 -0.7261  0.0990  0.6506
 7479TIP3   OH243927   1.733   1.869   3.313 -0.4797 -0.3449 -0.2418
 7479TIP3    H143928   1.756   1.780   3.338 -2.1541 -0.7493 -0.0245
 7479TIP3    H243929   1.774   1.924   3.380  0.5901 -0.9149 -0.3927
 7480TIP3   OH243930   5.699   4.803   1.396  0.3676 -0.3191 -0.1586
 7480TIP3    H143931   5.613   4.836   1.422  1.0870  0.6770  1.0439
 7480TIP3    H243932   5.754   4.881   1.388  1.6950 -1.0770  1.1687
 7481TIP3   OH243933   2.970   5.923   5.004 -0.3547  0.1824  0.1526
 7481TIP3    H143934   2.900   5.931   5.070 -0.2523 -0.2213  0.3126
 7481TIP3    H243935   2.943   5.850   4.949 -0.8359  1.0263 -0.7475
 7482TIP3   OH243936   6.004   5.134   1.725 -0.0785  0.4544 -0.1201
 7482TIP3    H143937   6.036   5.216   1.764  0.8138 -0.1094  0.3475
 7482TIP3    H243938   5.918   5.122   1.764  0.2340  0.6123  0.6318
 7483TIP3   OH243939   3.537   6.028  12.271 -0.1857  0.2430  0.7065
 7483TIP3    H143940   3.489   5.958  12.316  0.2421 -1.8272 -1.7953
 7483TIP3    H243941   3.475   6.101  12.267 -0.5880  0.1665  3.5970
 7484TIP3   OH243942   2.646   5.531  11.299  0.3288  0.5148 -0.1660
 7484TIP3    H143943   2.678   5.443  11.277 -0.2263 -0.2578  1.8405
 7484TIP3    H243944   2.680   5.587  11.231  1.3933 -1.1430 -1.0587
 7485TIP3   OH243945   1.051   1.563  11.806  0.0337  0.5650  0.8010
 7485TIP3    H143946   1.092   1.600  11.728  2.4377 -1.9877  0.6787
 7485TIP3    H243947   0.957   1.582  11.795 -0.0352 -1.0451 -3.6221
 7486TIP3   OH243948   1.598   4.006  11.909  0.0982 -0.1386  0.1049
 7486TIP3    H143949   1.646   4.034  11.832  0.3661  0.1248  0.3632
 7486TIP3    H243950   1.517   3.969  11.875  1.2661 -2.3189 -0.4867
 7487TIP3   OH243951   5.788   3.265  16.441  0.0648 -0.5012 -0.3655
 7487TIP3    H143952   5.832   3.180  16.439 -0.9884 -1.0793  0.1475
 7487TIP3    H243953   5.761   3.281  16.351  1.8701  0.1775 -0.8196
 7488TIP3   OH243954   6.361   4.831   0.301 -0.4691 -0.1973  0.1400
 7488TIP3    H143955   6.357   4.738   0.279  2.1239 -0.4991  0.6575
 7488TIP3    H243956   6.347   4.876   0.217  0.4161 -1.1207 -0.5294
 7489TIP3   OH243957   3.344   4.616  15.795 -0.6218  0.5941 -0.6240
 7489TIP3    H143958   3.363   4.708  15.775  0.6183  0.5431  0.2061
 7489TIP3    H243959   3.280   4.620  15.866  1.6734  0.9106  1.5423
 7490TIP3   OH243960   4.904   1.763  10.953  0.1722  0.3485  0.2576
 7490TIP3    H143961   4.890   1.695  10.888  0.8204 -0.9047  1.3907
 7490TIP3    H243962   4.834   1.826  10.936 -1.2485 -1.2238 -0.0147
 7491TIP3   OH243963   6.060   3.131  12.224  0.1957  0.4758  0.5881
 7491TIP3    H143964   6.033   3.043  12.199  1.7908  0.0553  0.1804
 7491TIP3    H243965   6.072   3.127  12.319 -0.1201  0.3710  0.6232
 7492TIP3   OH243966   2.874   3.237   4.259  0.3538 -0.4374 -0.0313
 7492TIP3    H143967   2.787   3.209   4.286 -0.3745 -2.4720 -3.8768
 7492TIP3    H243968   2.931   3.163   4.280  1.1046  0.5486  1.6700
 7493TIP3   OH243969   3.211   0.210   5.066 -0.0607 -0.0169 -0.1751
 7493TIP3    H143970   3.122   0.202   5.101 -0.2349 -0.8847 -0.7768
 7493TIP3    H243971   3.200   0.261   4.986 -0.1281 -0.6894 -0.6049
 7494TIP3   OH243972   2.223   5.066   2.942  0.0087 -0.1270 -0.2401
 7494TIP3    H143973   2.187   5.110   3.019 -0.0137  1.1910 -0.9706
 7494TIP3    H243974   2.163   4.993   2.924 -0.5913  0.2239  0.3382
 7495TIP3   OH243975   3.938   6.848   4.216 -0.0888 -0.2646 -0.4242
 7495TIP3    H143976   3.989   6.799   4.281 -0.7436 -0.1997  0.1569
 7495TIP3    H243977   4.001   6.909   4.177  0.4698 -0.7752 -0.3311
 7496TIP3   OH243978   3.595   5.632   4.623 -0.3173 -0.3035 -0.1419
 7496TIP3    H143979   3.599   5.666   4.713 -4.6437  0.5604 -0.0394
 7496TIP3    H243980   3.585   5.538   4.634  2.1001 -0.5987  0.0357
 7497TIP3   OH243981   3.714   2.797  12.511 -0.2530  0.6521 -0.7153
 7497TIP3    H143982   3.775   2.863  12.476  2.3528 -0.4249  1.4248
 7497TIP3    H243983   3.755   2.713  12.491 -0.3744 -0.0883  1.7905
 7498TIP3   OH243984   2.759   6.116   3.016 -0.1976 -0.4408 -0.0824
 7498TIP3    H143985   2.725   6.077   2.936 -0.0929  0.7654 -0.7408
 7498TIP3    H243986   2.703   6.082   3.086 -2.4235  1.0117 -1.0531
 7499TIP3   OH243987   1.048   5.907  12.782 -0.8650 -0.0147  0.2142
 7499TIP3    H143988   1.128   5.957  12.799 -1.3509  0.4523  1.1814
 7499TIP3    H243989   1.074   5.816  12.796 -0.2813  0.0504 -0.3693
 7500TIP3   OH243990   4.975   2.596  13.832 -0.2126  0.0698  0.3495
 7500TIP3    H143991   4.989   2.670  13.773 -0.3623  0.1221  0.3790
 7500TIP3    H243992   5.051   2.540  13.819 -0.9320 -0.6561 -0.9907
 7501TIP3   OH243993   3.559   3.909  13.943  0.8354  0.0684  0.4208
 7501TIP3    H143994   3.554   3.875  13.853  1.5074 -0.9248  0.7450
 7501TIP3    H243995   3.468   3.926  13.967  0.7157  1.6282 -0.9015
 7502TIP3   OH243996   0.592   0.199   4.835 -0.4157  0.1739 -0.0635
 7502TIP3    H143997   0.515   0.159   4.876 -0.7519 -0.0503 -0.8907
 7502TIP3    H243998   0.648   0.124   4.812  1.3295  0.4107  2.8773
 7503TIP3   OH243999   3.789   2.092   0.425 -0.0259  0.0261 -0.3280
 7503TIP3    H144000   3.831   2.017   0.384  1.5379 -0.2720  1.6562
 7503TIP3    H244001   3.695   2.076   0.416  0.1104  0.3209 -4.2301
 7504TIP3   OH244002   2.693   0.177   2.389  0.3030 -0.5846 -0.0667
 7504TIP3    H144003   2.646   0.158   2.308 -1.6673  2.5032  0.1848
 7504TIP3    H244004   2.744   0.255   2.369  1.3704 -0.9397  1.1564
 7505TIP3   OH244005   1.886   3.600  17.135  0.3260  0.0726  0.4259
 7505TIP3    H144006   1.975   3.624  17.163 -0.0333 -0.0122  1.7309
 7505TIP3    H244007   1.842   3.575  17.217 -1.4956  2.0136  0.1136
 7506TIP3   OH244008   4.064   0.889   3.687  0.8028  0.0162  0.7839
 7506TIP3    H144009   4.023   0.930   3.610 -1.5315 -2.8936  0.2959
 7506TIP3    H244010   4.024   0.932   3.762  3.2069  2.9890  0.5394
 7507TIP3   OH244011   6.638   0.724   1.134  0.6188  0.3474  0.4290
 7507TIP3    H144012   6.702   0.795   1.143  1.9435 -0.3486 -2.3573
 7507TIP3    H244013   6.615   0.725   1.041 -0.1154 -2.2392  0.5200
 7508TIP3   OH244014   2.618   0.379  12.871  0.7367  0.0104  0.2728
 7508TIP3    H144015   2.532   0.339  12.853 -2.5804  5.7455  0.6788
 7508TIP3    H244016   2.625   0.381  12.966  0.6908  0.5746  0.2693
 7509TIP3   OH244017   6.274   4.565  12.455 -0.0867  0.4444 -0.1510
 7509TIP3    H144018   6.229   4.646  12.430 -0.8254 -0.3827 -1.6842
 7509TIP3    H244019   6.333   4.547  12.382 -1.1973 -1.2818 -0.7057
 7510TIP3   OH244020   3.639   2.131   2.524 -0.9562 -0.1638 -0.2492
 7510TIP3    H144021   3.628   2.040   2.551  1.7103 -0.9374 -1.4562
 7510TIP3    H244022   3.727   2.154   2.553 -0.2140  0.8284 -3.0089
 7511TIP3   OH244023   2.267   2.138   3.328 -0.0086  0.3249 -0.2716
 7511TIP3    H144024   2.283   2.232   3.338  1.2398  0.0616  0.3952
 7511TIP3    H244025   2.345   2.104   3.285 -0.0627 -0.5343  0.2647
 7512TIP3   OH244026   1.570   3.940   5.599  0.0443 -0.1528 -0.2764
 7512TIP3    H144027   1.607   3.886   5.528  1.0360  1.9259 -1.4492
 7512TIP3    H244028   1.501   3.991   5.557  1.1361  1.6521  0.0068
 7513TIP3   OH244029   2.234   5.821  16.327 -0.1828 -0.4501  0.1427
 7513TIP3    H144030   2.252   5.741  16.376 -2.4481 -0.5841  0.8936
 7513TIP3    H244031   2.298   5.885  16.360  1.1415 -1.6956  0.0903
 7514TIP3   OH244032   4.728   4.540  14.499 -0.7236 -0.4868  0.0395
 7514TIP3    H144033   4.664   4.534  14.428 -0.6265  2.0920 -0.3610
 7514TIP3    H244034   4.773   4.456  14.498 -3.6477 -2.1760 -0.0393
 7515TIP3   OH244035   4.384   6.362   1.560 -0.2137  0.5136  0.5035
 7515TIP3    H144036   4.329   6.412   1.499  0.3669  1.4181  0.6992
 7515TIP3    H244037   4.429   6.298   1.505  1.0991  1.9918 -0.2435
 7516TIP3   OH244038   1.544   2.648   1.405  0.1026  0.0183  0.5665
 7516TIP3    H144039   1.533   2.734   1.446  0.9033 -0.3886  1.6708
 7516TIP3    H244040   1.633   2.648   1.372  0.4360 -0.7251  1.4253
 7517TIP3   OH244041   5.537   6.279  17.075  0.3769  0.4352 -0.1673
 7517TIP3    H144042   5.544   6.337  16.999  1.6999 -0.1823 -0.5450
 7517TIP3    H244043   5.627   6.253  17.093 -0.0593 -0.4337  0.8327
 7518TIP3   OH244044   2.791   0.142   1.855 -0.2962 -0.2759  0.0779
 7518TIP3    H144045   2.769   0.133   1.948  0.1916 -1.0873  0.1217
 7518TIP3    H244046   2.712   0.178   1.815 -0.1819  1.0359  0.9672
 7519TIP3   OH244047   6.094   5.527   0.267  0.4643  0.6592 -0.1786
 7519TIP3    H144048   6.091   5.613   0.310 -1.4222  1.4666 -1.7309
 7519TIP3    H244049   6.187   5.513   0.248  0.9207  1.9230  0.9360
 7520TIP3   OH244050   5.483   6.530   2.328 -0.4357 -0.1652 -0.3087
 7520TIP3    H144051   5.573   6.500   2.339  0.2077  0.4527 -3.1642
 7520TIP3    H244052   5.446   6.471   2.263 -1.6563  0.4414 -0.1958
 7521TIP3   OH244053   5.542   2.444  10.824  0.7087  0.0861  0.2785
 7521TIP3    H144054   5.553   2.358  10.866  1.3053 -0.2908 -0.6185
 7521TIP3    H244055   5.542   2.425  10.731 -2.9419  0.6013  0.0137
 7522TIP3   OH244056   5.806   3.293   0.113  0.2880 -0.7523 -0.2265
 7522TIP3    H144057   5.743   3.297   0.185  0.8030  0.0799  0.1858
 7522TIP3    H244058   5.789   3.208   0.072 -0.1549 -1.1542  0.7430
 7523TIP3   OH244059   3.949   6.749   0.198 -0.2396 -0.4028 -0.6466
 7523TIP3    H144060   3.863   6.720   0.166 -0.3985 -0.8144  0.1443
 7523TIP3    H244061   3.929   6.817   0.262  0.0504 -0.1364 -0.8359
 7524TIP3   OH244062   5.503   2.390   1.089  0.4047 -0.2300 -0.3977
 7524TIP3    H144063   5.596   2.385   1.112  0.6617 -1.0855 -1.5415
 7524TIP3    H244064   5.499   2.357   0.999 -0.8042  1.2516 -0.9304
 7525TIP3   OH244065   4.226   1.816  16.088 -1.0917 -0.4838 -0.1498
 7525TIP3    H144066   4.194   1.806  16.178  1.4322 -0.5006  0.8076
 7525TIP3    H244067   4.243   1.727  16.059 -0.9830 -0.4124 -0.3026
 7526TIP3   OH244068   3.996   1.852  13.532 -0.1484 -0.2838 -0.4317
 7526TIP3    H144069   4.031   1.869  13.445 -0.2242 -0.4595 -0.4964
 7526TIP3    H244070   3.975   1.939  13.567 -0.7570 -0.2542 -0.8519
 7527TIP3   OH244071   3.828   3.066  11.086 -0.1440 -0.5814  0.0682
 7527TIP3    H144072   3.765   3.127  11.123 -0.2739 -1.0728  0.6787
 7527TIP3    H244073   3.831   3.088  10.993  0.5278  0.9842  0.4249
 7528TIP3   OH244074   3.686   3.018   2.318  0.1639 -0.0280 -0.2291
 7528TIP3    H144075   3.771   3.062   2.319 -0.5987  1.6780 -2.5954
 7528TIP3    H244076   3.623   3.088   2.337 -0.8634 -0.7761 -0.7960
 7529TIP3   OH244077   6.585   3.199   3.777 -0.2763 -0.2202  0.1121
 7529TIP3    H144078   6.679   3.197   3.794  0.1888  0.4277 -2.0624
 7529TIP3    H244079   6.546   3.221   3.862  1.3014 -2.6134  1.5844
 7530TIP3   OH244080   3.239   2.664  12.687  0.3599 -0.9678  0.2278
 7530TIP3    H144081   3.238   2.759  12.698 -0.4943 -1.0354  0.8329
 7530TIP3    H244082   3.320   2.646  12.638 -0.7396  0.3068 -2.2563
 7531TIP3   OH244083   1.070   1.619  11.259  0.1313  0.4150 -0.1659
 7531TIP3    H144084   1.140   1.604  11.323  1.1144  0.9967 -1.0655
 7531TIP3    H244085   1.064   1.536  11.211  0.1290  0.3275 -0.0170
 7532TIP3   OH244086   1.784   1.325  12.758 -0.6070 -0.1325  0.0143
 7532TIP3    H144087   1.736   1.351  12.679  0.6579  3.0294  0.1493
 7532TIP3    H244088   1.867   1.289  12.725 -0.2704  0.7602 -0.1407
 7533TIP3   OH244089   0.354   1.899   2.015 -0.4916  0.5709  0.3302
 7533TIP3    H144090   0.406   1.865   2.088 -1.2418  0.5192  0.8612
 7533TIP3    H244091   0.339   1.823   1.959 -1.8599  0.0564  1.3292
 7534TIP3   OH244092   1.088   5.389  14.045 -0.6364  0.2045 -0.0785
 7534TIP3    H144093   1.068   5.444  14.120  1.6492 -0.5447  1.1699
 7534TIP3    H244094   1.036   5.310  14.059 -1.7055  0.8266 -0.3700
 7535TIP3   OH244095   0.950   1.327   2.936  0.0165 -0.3145 -0.1105
 7535TIP3    H144096   0.887   1.393   2.963 -1.5388 -2.0060  0.5678
 7535TIP3    H244097   0.916   1.294   2.853  0.6831 -0.3886 -0.3588
 7536TIP3   OH244098   1.583   0.786   3.445  0.4002  0.0216 -0.1831
 7536TIP3    H144099   1.515   0.719   3.455  2.3323 -1.7907  1.8862
 7536TIP3    H244100   1.622   0.767   3.360 -0.0026 -0.5633 -0.2445
 7537TIP3   OH244101   0.567   1.218  16.823  0.0945  0.6999 -0.1356
 7537TIP3    H144102   0.543   1.139  16.774  1.6671 -0.4508  0.8277
 7537TIP3    H244103   0.494   1.232  16.883  0.5188 -1.1531  0.9269
 7538TIP3   OH244104   5.818   4.016   4.362  0.2567  0.5235  0.4079
 7538TIP3    H144105   5.780   4.080   4.301  0.5699  0.1348 -0.2097
 7538TIP3    H244106   5.908   4.046   4.376  0.5484 -0.0092 -0.2375
 7539TIP3   OH244107   0.221   1.281  12.429  0.5124  0.6470  0.7845
 7539TIP3    H144108   0.213   1.198  12.477  1.4167 -0.4531 -0.8663
 7539TIP3    H244109   0.291   1.265  12.366  1.0271  2.8525  0.7349
 7540TIP3   OH244110   4.748   0.807  12.555 -0.4357  0.1307 -0.0080
 7540TIP3    H144111   4.769   0.715  12.537 -1.9409 -0.0328 -1.1814
 7540TIP3    H244112   4.657   0.806  12.585  0.1057  1.0861  1.8579
 7541TIP3   OH244113   6.769   4.466   5.541 -0.3437  0.4448  0.2298
 7541TIP3    H144114   6.694   4.471   5.482 -1.0315  2.5155  1.1861
 7541TIP3    H244115   6.819   4.546   5.524  2.0891 -1.1596 -0.8322
 7542TIP3   OH244116   5.758   6.401  14.725  0.5703  0.3089  0.3455
 7542TIP3    H144117   5.793   6.400  14.814  0.9557 -0.9831  0.1954
 7542TIP3    H244118   5.700   6.477  14.723 -1.0033 -0.7482  2.3212
 7543TIP3   OH244119   2.160   5.419   3.251  0.0330 -0.4289 -0.5037
 7543TIP3    H144120   2.154   5.498   3.305 -2.0170 -1.8226  1.5083
 7543TIP3    H244121   2.202   5.448   3.170  2.4463  1.9971  1.4342
 7544TIP3   OH244122   6.258   0.580  13.325  0.0829 -0.1942  0.3078
 7544TIP3    H144123   6.270   0.488  13.301  1.0653 -0.2739  1.0717
 7544TIP3    H244124   6.174   0.582  13.371  0.9553 -1.0860  2.0373
 7545TIP3   OH244125   4.852   6.735  12.432  0.1287  0.0147 -0.6138
 7545TIP3    H144126   4.910   6.659  12.435  1.6600  1.1367 -0.1962
 7545TIP3    H244127   4.772   6.706  12.474  0.8022 -1.2756 -0.1663
 7546TIP3   OH244128   3.562   1.225   2.142 -0.2004  0.6080 -0.2383
 7546TIP3    H144129   3.567   1.286   2.215 -1.4587  0.5409 -0.0614
 7546TIP3    H244130   3.622   1.154   2.165  2.9995  2.7319 -1.4683
 7547TIP3   OH244131   2.575   4.813   0.328 -0.3276  0.5617  0.3571
 7547TIP3    H144132   2.616   4.899   0.321  1.8652 -0.4285 -0.0105
 7547TIP3    H244133   2.525   4.802   0.247  0.9800  0.7388 -0.4975
 7548TIP3   OH244134   3.526   2.303   5.081 -0.2780  0.0457  0.3493
 7548TIP3    H144135   3.592   2.298   5.150  0.4998 -0.1636 -0.3888
 7548TIP3    H244136   3.570   2.349   5.009 -0.2050 -1.9120 -0.9463
 7549TIP3   OH244137   5.265   1.356  14.961 -0.1171 -0.1095 -0.6461
 7549TIP3    H144138   5.361   1.363  14.967  0.0985 -0.6522 -2.6438
 7549TIP3    H244139   5.245   1.270  14.996  0.1778 -0.1807 -0.6483
 7550TIP3   OH244140   2.080   6.688   4.976 -0.2870  0.4653 -0.3612
 7550TIP3    H144141   2.069   6.607   4.926  1.2885 -0.0100  0.0161
 7550TIP3    H244142   2.046   6.666   5.063  2.5094 -0.7263  0.5482
 7551TIP3   OH244143   4.761   2.125  12.379  0.3795  0.0471 -0.3991
 7551TIP3    H144144   4.705   2.202  12.387 -0.2871 -0.1470 -2.5394
 7551TIP3    H244145   4.849   2.161  12.369  0.1031  0.5400 -1.1474
 7552TIP3   OH244146   4.649   5.739  11.344 -0.0357  0.3098  0.2702
 7552TIP3    H144147   4.688   5.807  11.290 -0.8002  0.0242 -0.6930
 7552TIP3    H244148   4.575   5.708  11.292 -0.9564  0.1870  1.6123
 7553TIP3   OH244149   2.148   3.918  16.542  0.2877 -0.1219 -0.8257
 7553TIP3    H144150   2.169   3.947  16.631 -1.6496  0.1034 -0.3917
 7553TIP3    H244151   2.232   3.915  16.497  1.0412  2.5235  0.1971
 7554TIP3   OH244152   0.686   6.315   4.325  0.1300  0.6052  0.1354
 7554TIP3    H144153   0.655   6.403   4.301 -0.5005  0.7186  1.3061
 7554TIP3    H244154   0.780   6.325   4.338 -0.0544  1.2739  0.9823
 7555TIP3   OH244155   4.263   1.048  12.121 -0.1281 -0.4768  0.1165
 7555TIP3    H144156   4.227   1.123  12.075  1.3076 -0.5112 -1.1265
 7555TIP3    H244157   4.245   1.066  12.214  0.9120  1.8121 -0.0677
 7556TIP3   OH244158   2.996   6.062   1.926  0.4616 -0.4205  0.0088
 7556TIP3    H144159   3.075   6.048   1.977 -0.1483 -0.9851  0.8295
 7556TIP3    H244160   2.997   5.993   1.860 -0.2607 -1.6239  1.2001
 7557TIP3   OH244161   1.146   0.166  12.862  0.0688  0.5049 -0.6463
 7557TIP3    H144162   1.185   0.133  12.781 -0.1027 -0.2550 -0.4325
 7557TIP3    H244163   1.113   0.088  12.905 -2.1148  1.1435 -1.0392
 7558TIP3   OH244164   5.942   0.985  14.170  0.2906  0.2243 -0.2665
 7558TIP3    H144165   5.922   0.912  14.112  1.9231 -1.6892  1.4418
 7558TIP3    H244166   5.879   0.979  14.241  0.2578  0.6432 -0.2569
 7559TIP3   OH244167   4.183   5.438   3.204  0.6056 -0.3379  0.4284
 7559TIP3    H144168   4.124   5.459   3.132  1.0017  1.5301  0.6009
 7559TIP3    H244169   4.226   5.357   3.178 -0.9326 -0.9285 -0.3732
 7560TIP3   OH244170   3.308   2.806  12.330  0.1072 -0.4319 -0.1011
 7560TIP3    H144171   3.372   2.838  12.394  1.0873 -2.0285 -0.2297
 7560TIP3    H244172   3.342   2.836  12.246 -0.6809  0.8573  0.0106
 7561TIP3   OH244173   5.226   5.711  14.838 -0.5630  0.5215  0.1317
 7561TIP3    H144174   5.210   5.654  14.763  4.0503  1.3229 -1.7632
 7561TIP3    H244175   5.215   5.653  14.914  0.0879 -1.8784 -1.4815
 7562TIP3   OH244176   5.867   2.396   0.380  0.3371 -0.2400 -0.4649
 7562TIP3    H144177   5.954   2.408   0.341  0.9383 -0.8150  0.6500
 7562TIP3    H244178   5.812   2.459   0.334  1.5597  0.8397 -0.5050
 7563TIP3   OH244179   5.273   0.373   0.738 -0.0027  0.1570 -0.4239
 7563TIP3    H144180   5.348   0.334   0.781  0.6753  2.5146  0.7135
 7563TIP3    H244181   5.280   0.345   0.647  1.1982 -1.1445  0.0353
 7564TIP3   OH244182   4.555   5.024   0.751  0.0115 -0.2443 -0.0109
 7564TIP3    H144183   4.591   4.989   0.670 -0.3755  1.0269 -0.7419
 7564TIP3    H244184   4.476   4.973   0.766 -0.8908  0.6787 -1.4043
 7565TIP3   OH244185   4.311   2.287  16.344  0.3019  0.3723 -0.0498
 7565TIP3    H144186   4.241   2.277  16.408  1.9345 -1.5305  1.5864
 7565TIP3    H244187   4.282   2.236  16.268 -1.3540  2.0907 -0.6439
 7566TIP3   OH244188   1.167   3.023   0.155  0.4825 -0.2512 -0.5126
 7566TIP3    H144189   1.152   3.074   0.075  2.1558 -0.8569 -1.2501
 7566TIP3    H244190   1.177   2.932   0.124 -2.2086 -1.0830  0.7416
 7567TIP3   OH244191   4.006   4.581  12.588 -0.3467 -0.7085 -0.0777
 7567TIP3    H144192   3.981   4.552  12.500 -1.2691 -0.4640  0.0936
 7567TIP3    H244193   3.925   4.578  12.638  0.0546 -0.2741  0.6144
 7568TIP3   OH244194   5.928   0.268  16.646  0.5651  0.3565  0.7244
 7568TIP3    H144195   5.898   0.189  16.690 -1.3971  0.7335  0.1733
 7568TIP3    H244196   5.936   0.242  16.554  2.7738  0.0770  0.9354
 7569TIP3   OH244197   5.093   2.765   4.536  0.5913  0.0684 -0.2731
 7569TIP3    H144198   5.096   2.690   4.476 -1.3642  0.5479 -1.0300
 7569TIP3    H244199   5.185   2.780   4.559  1.3280 -0.6859 -2.4530
 7570TIP3   OH244200   3.743   1.658  15.844 -0.2809 -0.2212 -0.3959
 7570TIP3    H144201   3.736   1.640  15.750 -2.0671  1.4841 -0.6742
 7570TIP3    H244202   3.653   1.651  15.876  0.2076 -0.1333  1.0814
 7571TIP3   OH244203   2.548   3.097  13.814 -0.5182  0.1432 -0.0588
 7571TIP3    H144204   2.554   3.009  13.851  1.7146 -0.6086 -2.0181
 7571TIP3    H244205   2.493   3.087  13.737  1.6723 -0.1246 -1.6685
 7572TIP3   OH244206   5.850   1.203   1.400 -0.1123  0.0554 -0.0688
 7572TIP3    H144207   5.800   1.225   1.478  0.8246  1.2527  0.2194
 7572TIP3    H244208   5.795   1.232   1.327 -0.0065  1.0252  0.2317
 7573TIP3   OH244209   4.174   5.731  15.383  0.0351 -0.3202  0.3183
 7573TIP3    H144210   4.116   5.655  15.380 -0.0159 -0.2521 -0.5075
 7573TIP3    H244211   4.185   5.749  15.477  1.4424 -2.3958  0.6103
 7574TIP3   OH244212   4.649   0.297   4.694  0.1888 -0.5166  0.0266
 7574TIP3    H144213   4.701   0.372   4.725  1.2551 -0.6049 -1.4434
 7574TIP3    H244214   4.601   0.331   4.619  0.3480 -1.1798 -0.3846
 7575TIP3   OH244215   5.550   5.904  13.575  0.5019 -0.1847  0.2909
 7575TIP3    H144216   5.500   5.891  13.656 -0.7165  0.2568 -0.3816
 7575TIP3    H244217   5.574   5.815  13.548 -1.4176 -0.5648 -0.2972
 7576TIP3   OH244218   1.829   4.551   0.314  0.2179  0.3691  0.3279
 7576TIP3    H144219   1.870   4.468   0.291 -0.9579 -0.4350  1.0073
 7576TIP3    H244220   1.900   4.604   0.350  0.6186 -1.1721  1.9952
 7577TIP3   OH244221   3.977   6.135   1.822 -0.0037  0.0350  0.2103
 7577TIP3    H144222   3.972   6.042   1.804 -0.1577 -0.0494  0.6737
 7577TIP3    H244223   4.051   6.167   1.770 -2.1277  0.3395 -2.8529
 7578TIP3   OH244224   4.641   6.717   2.359  0.2056  0.3201  0.0081
 7578TIP3    H144225   4.650   6.812   2.368 -1.3141  0.6025 -0.9546
 7578TIP3    H244226   4.641   6.702   2.264  1.2454 -0.7520  0.1575
 7579TIP3   OH244227   0.969   5.549  16.343 -0.3534 -0.4215 -0.7067
 7579TIP3    H144228   0.893   5.552  16.400  0.6811 -0.0374  0.6938
 7579TIP3    H244229   0.978   5.456  16.321 -1.2693 -0.4598 -0.9802
 7580TIP3   OH244230   2.098   3.867  12.453  0.0855 -0.4705  0.1454
 7580TIP3    H144231   2.142   3.835  12.374 -1.9427  0.1502 -1.3226
 7580TIP3    H244232   2.055   3.948  12.425  3.1004  2.4688  3.1034
 7581TIP3   OH244233   1.681   1.518   5.680  0.8350 -0.4363  0.5573
 7581TIP3    H144234   1.708   1.426   5.668  1.9103 -0.1403  0.5812
 7581TIP3    H244235   1.665   1.525   5.774  0.2398 -0.7300  0.4807
 7582TIP3   OH244236   6.709   3.739  11.226  0.2872 -0.0817  0.3184
 7582TIP3    H144237   6.784   3.732  11.167 -0.3025 -2.1916 -0.2630
 7582TIP3    H244238   6.647   3.795  11.180  1.4978  1.7800  0.8561
 7583TIP3   OH244239   0.540   0.150  11.274 -0.0748  0.3209  0.1368
 7583TIP3    H144240   0.587   0.073  11.242  2.6112  1.4515  1.0762
 7583TIP3    H244241   0.483   0.175  11.201 -0.9788 -2.4432 -0.2180
 7584TIP3   OH244242   3.768   6.637  16.974 -0.2832 -0.0707  0.2921
 7584TIP3    H144243   3.848   6.659  16.926  0.6459 -2.6606  0.4854
 7584TIP3    H244244   3.714   6.590  16.911  0.0904 -1.7385  1.1434
 7585TIP3   OH244245   0.040   1.833  15.201  0.0433 -0.0953 -0.0323
 7585TIP3    H144246  -0.048   1.796  15.214 -0.7205  0.0276 -3.8839
 7585TIP3    H244247   0.087   1.766  15.150  2.2214 -0.0724  1.7826
 7586TIP3   OH244248   5.638   5.479   1.292 -1.1561  0.4778  0.2620
 7586TIP3    H144249   5.604   5.460   1.380 -2.8355  2.0693  0.0279
 7586TIP3    H244250   5.609   5.405   1.238 -1.6953  0.3783  0.6862
 7587TIP3   OH244251   0.015   3.888   4.305 -0.3683  0.0107 -0.3933
 7587TIP3    H144252   0.028   3.980   4.327  2.1119 -0.3607 -0.0265
 7587TIP3    H244253   0.071   3.873   4.229  0.8738 -1.6149  0.7683
 7588TIP3   OH244254   3.014   2.191   0.726 -0.7251 -0.0168  0.2416
 7588TIP3    H144255   2.938   2.220   0.777 -0.1711  0.5734  0.7536
 7588TIP3    H244256   3.020   2.097   0.743 -2.1138 -0.3359 -0.8533
 7589TIP3   OH244257   2.492   0.351   0.686 -0.6503 -0.1273  0.2617
 7589TIP3    H144258   2.451   0.360   0.600  0.1405  0.1476 -0.1038
 7589TIP3    H244259   2.453   0.420   0.739 -0.7810  0.0223 -0.0278
 7590TIP3   OH244260   6.221   0.528  14.987  0.0086  0.2504  0.3381
 7590TIP3    H144261   6.223   0.511  14.893 -1.4424  0.3276  0.2641
 7590TIP3    H244262   6.128   0.521  15.010  0.3439  0.2563  1.7615
 7591TIP3   OH244263   3.010   2.438   2.731 -0.3489  0.0419  0.0987
 7591TIP3    H144264   3.029   2.531   2.743 -1.9383  0.6764 -1.6597
 7591TIP3    H244265   3.068   2.411   2.659  0.2524 -0.3946  0.7399
 7592TIP3   OH244266   1.443   5.686   4.123  0.0295  0.1233  0.0276
 7592TIP3    H144267   1.397   5.717   4.044  0.4497 -0.6742 -0.5429
 7592TIP3    H244268   1.439   5.591   4.117  0.3448  0.0587  0.8174
 7593TIP3   OH244269   6.027   3.117   2.230  0.5087  0.2541  0.8088
 7593TIP3    H144270   5.998   3.048   2.288 -1.5716 -0.3260 -0.7903
 7593TIP3    H244271   6.035   3.075   2.144  2.4230  1.3006  0.4151
 7594TIP3   OH244272   0.911   6.607  11.096 -0.2381 -0.1216 -0.1918
 7594TIP3    H144273   0.874   6.571  11.177  0.2574  1.5291  0.8117
 7594TIP3    H244274   0.990   6.554  11.080  1.1908  1.1920  1.9618
 7595TIP3   OH244275   0.846   6.400   3.831 -0.1362 -0.0063  0.2363
 7595TIP3    H144276   0.847   6.467   3.763  1.3133 -0.3558 -0.1182
 7595TIP3    H244277   0.845   6.450   3.913 -1.6944  0.4148 -0.0005
 7596TIP3   OH244278   5.229   3.041  12.082  0.0667 -0.0095  0.0506
 7596TIP3    H144279   5.193   3.118  12.125 -1.9639  0.8664 -2.8987
 7596TIP3    H244280   5.299   3.075  12.026  1.3256 -0.8353  1.0631
 7597TIP3   OH244281   4.241   3.133  13.652  0.5189  0.1588  0.2896
 7597TIP3    H144282   4.274   3.135  13.742  1.9478 -2.9670 -0.0083
 7597TIP3    H244283   4.278   3.211  13.610  1.0190  0.8980  2.0265
 7598TIP3   OH244284   1.948   2.657   0.622  0.1829 -0.1627  0.2522
 7598TIP3    H144285   1.895   2.610   0.687  0.5722  0.4490  1.0220
 7598TIP3    H244286   2.017   2.595   0.599  0.1837 -0.2938  0.5996
 7599TIP3   OH244287   0.098   4.249   4.732 -0.2301 -0.2838 -0.0191
 7599TIP3    H144288   0.081   4.262   4.638  2.7700 -1.0146 -0.7707
 7599TIP3    H244289   0.064   4.161   4.750 -0.5440 -0.2657 -0.5022
 7600TIP3   OH244290   5.422   5.219   0.278  0.0283  0.4301  1.0013
 7600TIP3    H144291   5.401   5.126   0.279  0.0777  0.4101  2.6170
 7600TIP3    H244292   5.337   5.263   0.285  0.0710  0.4732  1.2764
 7601TIP3   OH244293   3.205   0.267  13.092  0.0416 -0.4778  0.3865
 7601TIP3    H144294   3.143   0.338  13.080  0.4278  0.4058  3.0328
 7601TIP3    H244295   3.248   0.286  13.175  1.2665 -2.9964  0.4255
 7602TIP3   OH244296   6.693   2.694   0.428  0.7399 -0.5364 -0.2415
 7602TIP3    H144297   6.660   2.656   0.510 -0.2368 -0.0456 -0.3891
 7602TIP3    H244298   6.668   2.787   0.434  0.4776 -0.5401 -1.1760
 7603TIP3   OH244299   1.451   1.127   1.111  0.0065 -0.1808  0.5609
 7603TIP3    H144300   1.509   1.098   1.040  1.0916 -1.3220  1.8561
 7603TIP3    H244301   1.419   1.046   1.150 -2.6594  0.4097 -0.2032
 7604TIP3   OH244302   4.735   6.416  15.317  0.1097 -0.4650  0.4015
 7604TIP3    H144303   4.759   6.348  15.380  0.5905  1.0047  1.8835
 7604TIP3    H244304   4.747   6.375  15.231  2.3608 -1.6306  1.2004
 7605TIP3   OH244305   2.554   2.884   2.441 -0.4250  0.0454 -0.3340
 7605TIP3    H144306   2.473   2.836   2.458 -0.2665  0.2222  1.0329
 7605TIP3    H244307   2.623   2.818   2.444 -0.5333 -0.1781 -1.9332
 7606TIP3   OH244308   4.599   6.276   5.141  0.1947  0.3256 -0.1738
 7606TIP3    H144309   4.514   6.309   5.168 -0.0236 -1.6370  1.8698
 7606TIP3    H244310   4.582   6.225   5.061 -0.0808  1.9331 -1.1716
 7607TIP3   OH244311   5.309   2.035   1.014  0.4828  0.0045 -0.4278
 7607TIP3    H144312   5.259   2.094   1.072 -0.0233 -0.6921 -0.1342
 7607TIP3    H244313   5.398   2.068   1.017  0.4739 -0.0338  0.8038
 7608TIP3   OH244314   0.645   0.694  14.603  0.0808  0.0134  0.3477
 7608TIP3    H144315   0.627   0.779  14.562  2.2596  0.7783  0.8110
 7608TIP3    H244316   0.677   0.639  14.532  1.1107  0.4328  0.4603
 7609TIP3   OH244317   2.094   6.845   2.898 -0.5621 -0.6195  0.5097
 7609TIP3    H144318   2.001   6.833   2.918 -0.4366 -1.4302  0.6180
 7609TIP3    H244319   2.131   6.757   2.901 -0.1116 -0.5169 -1.1389
 7610TIP3   OH244320   6.284   6.085  11.254 -0.2478 -0.8672 -0.7039
 7610TIP3    H144321   6.360   6.088  11.313 -0.9072  2.5575  0.1718
 7610TIP3    H244322   6.317   6.040  11.176  1.3584 -3.3728  1.2124
 7611TIP3   OH244323   6.588   1.466  11.547 -0.3722  0.0262 -0.1269
 7611TIP3    H144324   6.494   1.449  11.553 -0.3122 -0.3973 -0.3483
 7611TIP3    H244325   6.626   1.381  11.526  0.3492 -0.4272  2.6582
 7612TIP3   OH244326   3.435   6.347   1.819  0.0284 -0.0970 -0.0629
 7612TIP3    H144327   3.520   6.316   1.790 -0.0001  0.2852 -0.5653
 7612TIP3    H244328   3.399   6.275   1.871  2.0037  0.8817  2.8930
 7613TIP3   OH244329   1.954   6.298   3.333 -0.4025  0.2766  0.5383
 7613TIP3    H144330   2.005   6.347   3.398  0.6319  0.8925 -0.7069
 7613TIP3    H244331   2.019   6.264   3.272 -1.4285  0.6539 -0.8083
 7614TIP3   OH244332   5.056   4.535  15.212 -0.0477  0.1258 -0.0734
 7614TIP3    H144333   5.144   4.547  15.248 -0.5378 -2.0132  2.0767
 7614TIP3    H244334   5.014   4.620  15.222  0.8800  0.4228  1.5847
 7615TIP3   OH244335   1.099   5.328   4.560  0.2363  0.1949  0.2245
 7615TIP3    H144336   1.187   5.338   4.525 -0.7358  1.7200 -1.9871
 7615TIP3    H244337   1.077   5.414   4.596 -0.8782  0.2862 -0.6218
 7616TIP3   OH244338   6.536   4.034  12.940  0.0195  0.4419 -0.5246
 7616TIP3    H144339   6.504   4.112  12.895 -1.2364 -0.2885 -0.9466
 7616TIP3    H244340   6.581   3.983  12.872 -0.6060  0.0246 -0.6312
 7617TIP3   OH244341   2.952   4.995   2.893  0.5577  0.4934 -0.1610
 7617TIP3    H144342   2.880   4.934   2.874  0.3631  0.4644  0.6546
 7617TIP3    H244343   2.909   5.080   2.896  0.7077  0.5857 -0.5289
 7618TIP3   OH244344   3.760   1.233  13.589  0.4731  0.3140  0.0541
 7618TIP3    H144345   3.803   1.273  13.513  1.7199 -1.0091  0.0063
 7618TIP3    H244346   3.830   1.226  13.655 -0.5614  1.3571  1.3265
 7619TIP3   OH244347   3.766   3.910   0.994 -0.6295  0.7184 -0.2429
 7619TIP3    H144348   3.716   3.956   0.927 -0.2399  1.7658  0.1753
 7619TIP3    H244349   3.757   3.817   0.971 -0.9888  1.0286 -1.3927
 7620TIP3   OH244350   1.712   3.667  16.102 -0.6535  0.0969 -0.3127
 7620TIP3    H144351   1.715   3.601  16.033 -2.4681  0.3167 -0.6658
 7620TIP3    H244352   1.657   3.628  16.170  1.2002 -0.1712  1.1313
 7621TIP3   OH244353   5.020   6.757   2.700  0.4413 -0.2376 -0.4138
 7621TIP3    H144354   5.088   6.806   2.748 -0.0809 -0.6210  0.7574
 7621TIP3    H244355   4.941   6.810   2.710 -0.0818 -1.1874  0.6953
 7622TIP3   OH244356   0.074   3.083  13.252 -0.3636  0.3613 -0.5210
 7622TIP3    H144357   0.142   3.142  13.285 -0.3486 -0.3305  0.7865
 7622TIP3    H244358  -0.007   3.113  13.294 -0.3807 -0.4307  0.0459
 7623TIP3   OH244359   4.177   2.470   5.409 -0.3781 -0.5405  0.2173
 7623TIP3    H144360   4.165   2.432   5.496 -0.6204  0.8786  0.8366
 7623TIP3    H244361   4.224   2.551   5.425 -0.4136 -0.2728 -0.9824
 7624TIP3   OH244362   0.315   4.141   6.428 -0.2289 -0.4696 -0.3228
 7624TIP3    H144363   0.363   4.080   6.371  0.1198 -1.8809  1.3771
 7624TIP3    H244364   0.281   4.208   6.369 -1.1115 -2.6133 -2.4119
 7625TIP3   OH244365   3.173   2.048  17.027 -0.1848 -0.4467 -0.2605
 7625TIP3    H144366   3.267   2.027  17.031  0.3791  1.9034 -0.0153
 7625TIP3    H244367   3.130   1.969  17.059  1.7462 -1.3037  0.3844
 7626TIP3   OH244368   0.497   5.494  10.411 -0.3841 -0.2437  0.4664
 7626TIP3    H144369   0.423   5.548  10.384 -1.2544 -2.2636 -1.4532
 7626TIP3    H244370   0.459   5.426  10.467 -0.1188 -1.4824 -0.7774
 7627TIP3   OH244371   0.167   3.372  17.102  0.2992 -0.8216  0.1380
 7627TIP3    H144372   0.244   3.381  17.045  0.7537  1.1549  0.9543
 7627TIP3    H244373   0.189   3.425  17.179 -1.5799 -0.8570  0.7437
 7628TIP3   OH244374   0.399   0.186   1.489 -0.5003  0.3211 -0.4988
 7628TIP3    H144375   0.382   0.094   1.469  1.4276 -0.2231  0.1755
 7628TIP3    H244376   0.494   0.192   1.494 -0.6419  2.0323  0.9456
 7629TIP3   OH244377   1.912   4.681  11.151  0.2938  0.6279 -0.2524
 7629TIP3    H144378   1.896   4.615  11.083  1.0952  0.5690 -0.3948
 7629TIP3    H244379   1.859   4.652  11.226  0.5013 -0.0797 -0.3713
 7630TIP3   OH244380   1.480   6.065  15.280  0.4837 -0.0604 -0.2857
 7630TIP3    H144381   1.544   6.119  15.233 -0.2070  2.4339  1.4538
 7630TIP3    H244382   1.398   6.078  15.232  0.0889  1.3537  0.7187
 7631TIP3   OH244383   6.751   6.150  14.329 -0.3145  0.0090 -0.5650
 7631TIP3    H144384   6.666   6.161  14.371 -0.6766 -0.5956 -1.1167
 7631TIP3    H244385   6.763   6.230  14.279 -0.4636  0.1867 -0.3197
 7632TIP3   OH244386   0.704   6.495  12.561  0.7072 -0.1696 -0.2865
 7632TIP3    H144387   0.655   6.457  12.488  3.7371 -2.0788 -1.5219
 7632TIP3    H244388   0.754   6.566  12.522  0.4266  0.5051  0.5438
 7633TIP3   OH244389   3.332   2.859   3.299  0.4182 -0.5220  0.5917
 7633TIP3    H144390   3.347   2.765   3.288  1.0606 -0.7256  2.6436
 7633TIP3    H244391   3.318   2.870   3.393  1.7723  1.6008  0.6244
 7634TIP3   OH244392   5.029   0.207   3.392 -0.5863 -0.9232  0.3843
 7634TIP3    H144393   5.035   0.127   3.340  0.6365 -0.7608  0.2522
 7634TIP3    H244394   5.042   0.177   3.482 -0.0442 -0.8645  0.3265
 7635TIP3   OH244395   4.008   5.438   2.965 -0.1845 -0.4974 -0.8867
 7635TIP3    H144396   3.917   5.466   2.974  0.3066  0.9796 -0.2059
 7635TIP3    H244397   4.007   5.345   2.987 -1.2223 -0.0528  1.1362
 7636TIP3   OH244398   4.444   4.236  10.741  0.0608 -0.1340  0.5993
 7636TIP3    H144399   4.414   4.297  10.809  0.9416  0.9999  0.0150
 7636TIP3    H244400   4.365   4.192  10.712 -0.8581  1.7011  0.1328
 7637TIP3   OH244401   5.552   1.075  14.985 -0.5873  0.8033 -0.0974
 7637TIP3    H144402   5.613   1.034  15.047 -0.9603  1.8095  0.9624
 7637TIP3    H244403   5.596   1.156  14.958 -0.9688  0.9773 -0.2054
 7638TIP3   OH244404   3.545   1.723  16.959  0.5970  0.2582  0.5163
 7638TIP3    H144405   3.627   1.708  17.005 -0.7291 -3.7396  1.9570
 7638TIP3    H244406   3.567   1.714  16.866  1.7292 -1.5146  0.9103
 7639TIP3   OH244407   2.245   4.485  15.935 -0.8754  0.0505 -0.4667
 7639TIP3    H144408   2.222   4.514  16.024  1.5386 -0.4852  0.4170
 7639TIP3    H244409   2.201   4.401  15.926  0.2599 -0.7491  0.9728
 7640TIP3   OH244410   3.449   5.472   0.277 -0.0372 -0.1010  0.0415
 7640TIP3    H144411   3.540   5.477   0.246 -1.0974 -0.4891 -3.6436
 7640TIP3    H244412   3.448   5.522   0.359  3.5094 -0.3309  0.3633
 7641TIP3   OH244413   0.919   6.184  13.856 -0.1733  0.1211  0.4440
 7641TIP3    H144414   0.878   6.191  13.943 -0.0241 -1.3315  0.6620
 7641TIP3    H244415   0.883   6.103  13.820 -0.1180  0.6388 -0.8065
 7642TIP3   OH244416   2.975   3.655  14.127  0.7290 -0.4253 -0.2958
 7642TIP3    H144417   2.910   3.619  14.187 -0.0369  0.0715 -0.8227
 7642TIP3    H244418   3.024   3.719  14.179  1.4732 -1.5109  0.3819
 7643TIP3   OH244419   6.028   3.560   1.190  0.6251  0.5330 -0.4605
 7643TIP3    H144420   5.974   3.638   1.178  0.8164  0.6178 -0.7794
 7643TIP3    H244421   6.079   3.578   1.269  0.8877  0.8547 -0.7061
 7644TIP3   OH244422   1.137   3.852  13.803 -0.5306  0.2859  0.2886
 7644TIP3    H144423   1.220   3.804  13.799 -1.2612 -0.9874 -0.6275
 7644TIP3    H244424   1.121   3.865  13.896  0.2667 -0.2145  0.5099
 7645TIP3   OH244425   4.601   2.770  15.640 -0.4783 -0.2206 -0.3145
 7645TIP3    H144426   4.548   2.738  15.713 -0.0077 -0.7596 -0.2018
 7645TIP3    H244427   4.663   2.831  15.680 -0.7169  0.0654 -0.3793
 7646TIP3   OH244428   1.843   0.494  16.793 -0.1858 -0.6924 -0.2672
 7646TIP3    H144429   1.900   0.430  16.751  2.5812  1.3842  0.0701
 7646TIP3    H244430   1.858   0.575  16.744 -1.3126  0.4171  1.1404
 7647TIP3   OH244431   5.390   6.468  12.299 -0.2506 -0.3320  0.1172
 7647TIP3    H144432   5.323   6.520  12.255  0.1332  0.3078  0.2660
 7647TIP3    H244433   5.380   6.380  12.263 -0.3632  0.0313 -0.7808
 7648TIP3   OH244434   6.055   2.352  16.643  0.6787 -0.1873 -0.4958
 7648TIP3    H144435   6.133   2.329  16.694  0.5793 -2.1078 -1.1581
 7648TIP3    H244436   6.045   2.281  16.580 -2.0234 -0.3875  0.0179
 7649TIP3   OH244437   0.458   0.801   5.146 -0.2916 -0.7043 -0.4678
 7649TIP3    H144438   0.423   0.712   5.149  0.1627 -0.8794 -0.2954
 7649TIP3    H244439   0.381   0.856   5.133 -0.8691 -0.9334  1.7010
 7650TIP3   OH244440   5.861   1.428  15.715 -0.3326  0.5103 -0.4586
 7650TIP3    H144441   5.889   1.496  15.653 -0.2163  1.9098  1.0389
 7650TIP3    H244442   5.766   1.424  15.705 -0.2704  0.4053 -1.0310
 7651TIP3   OH244443   2.576   2.973  14.581  0.4408  0.3945 -0.0241
 7651TIP3    H144444   2.492   2.997  14.542 -1.8468 -0.6695  3.7367
 7651TIP3    H244445   2.596   2.887  14.543 -0.0444  0.7089 -1.0421
 7652TIP3   OH244446   5.153   3.294   4.246 -0.8370 -0.1406  0.3381
 7652TIP3    H144447   5.133   3.201   4.246 -0.7091 -0.1703 -0.3105
 7652TIP3    H244448   5.138   3.322   4.337 -0.4762 -0.8749  0.6273
 7653TIP3   OH244449   5.977   6.594  13.306  0.5278  0.3422 -0.4405
 7653TIP3    H144450   5.938   6.604  13.219 -0.6144  0.5750  0.0810
 7653TIP3    H244451   6.063   6.636  13.299 -0.1838  1.7514 -1.0358
 7654TIP3   OH244452   4.054   0.608   5.039 -0.2867  0.3717 -0.2304
 7654TIP3    H144453   4.035   0.576   4.951 -1.5044  0.3189  0.0335
 7654TIP3    H244454   3.968   0.615   5.081  0.3727 -0.8694  1.4064
 7655TIP3   OH244455   1.724   0.751   4.777  0.3545 -0.0479 -0.0199
 7655TIP3    H144456   1.818   0.764   4.777  0.3365  0.1954  1.1913
 7655TIP3    H244457   1.698   0.758   4.685  1.4064  0.6455 -0.2716
 7656TIP3   OH244458   1.952   4.201   5.850  0.2566  0.2406 -0.3795
 7656TIP3    H144459   1.893   4.154   5.791 -1.5797  1.5815  0.2571
 7656TIP3    H244460   2.029   4.145   5.858 -0.4558 -1.0783 -2.1412
 7657TIP3   OH244461   4.946   1.969  14.591 -0.0733 -0.2053 -0.2912
 7657TIP3    H144462   4.949   1.973  14.687 -0.9613 -0.4642 -0.2415
 7657TIP3    H244463   4.894   1.891  14.572  1.6109 -1.2171 -1.0133
 7658TIP3   OH244464   2.914   0.191   0.561 -0.1979 -0.0217 -0.2116
 7658TIP3    H144465   2.850   0.218   0.495 -0.3357 -0.1840 -0.1428
 7658TIP3    H244466   2.864   0.180   0.641  0.0466  0.6361  0.0379
 7659TIP3   OH244467   2.412   0.255   5.098 -0.6414 -0.0847 -0.0493
 7659TIP3    H144468   2.358   0.303   5.036 -1.6158  0.3194  1.0804
 7659TIP3    H244469   2.367   0.171   5.110 -0.4100 -0.1949  0.0660
 7660TIP3   OH244470   6.554   1.532   4.789  0.0479 -0.2856 -0.5710
 7660TIP3    H144471   6.470   1.566   4.821 -0.8835 -3.6106  0.9029
 7660TIP3    H244472   6.542   1.527   4.694 -1.6703 -1.1615 -0.3542
 7661TIP3   OH244473   3.606   1.346   3.127 -0.2607 -0.1039  0.2247
 7661TIP3    H144474   3.607   1.255   3.157 -0.3294 -0.5506 -1.0762
 7661TIP3    H244475   3.560   1.393   3.197 -2.3853 -1.4783 -0.1424
 7662TIP3   OH244476   1.873   2.381  11.075 -0.3466 -0.3233  0.4238
 7662TIP3    H144477   1.836   2.457  11.029 -0.2645  0.1497  1.1212
 7662TIP3    H244478   1.953   2.361  11.026  1.0633  1.7011  1.7127
 7663TIP3   OH244479   4.250   3.394  10.749  0.5118 -1.2329 -0.0988
 7663TIP3    H144480   4.214   3.461  10.806  1.4279 -0.9637  0.1889
 7663TIP3    H244481   4.316   3.441  10.697  1.0879 -1.8791  0.0346
 7664TIP3   OH244482   0.395   2.578  16.059 -0.1173 -1.3547  0.4093
 7664TIP3    H144483   0.487   2.576  16.034 -0.3419 -0.3687 -0.5584
 7664TIP3    H244484   0.362   2.491  16.037  0.0864 -1.0428 -1.2766
 7665TIP3   OH244485   1.282   2.378  11.172  0.1924  0.2531 -0.4373
 7665TIP3    H144486   1.257   2.470  11.178  0.9496  0.4424 -0.0798
 7665TIP3    H244487   1.322   2.359  11.257  0.0986 -0.3854 -0.5328
 7666TIP3   OH244488   5.970   0.256   6.200  0.1092 -0.2915 -0.2396
 7666TIP3    H144489   5.909   0.235   6.270  0.3456  2.2015  0.8033
 7666TIP3    H244490   6.050   0.282   6.244  0.4608  0.7637 -1.4496
 7667TIP3   OH244491   3.406   0.009  12.475 -0.4427  0.0596  0.0550
 7667TIP3    H144492   3.365   0.061  12.406 -1.9487 -0.2942  0.6496
 7667TIP3    H244493   3.450   0.074  12.530  0.1516  0.4102 -0.8066
 7668TIP3   OH244494   5.164   2.310   2.717 -0.9014  0.0068  0.5815
 7668TIP3    H144495   5.102   2.272   2.780 -1.9536  2.1010  0.8849
 7668TIP3    H244496   5.167   2.403   2.740 -1.0584  0.7882 -2.2374
 7669TIP3   OH244497   2.458   3.540   1.744  0.3850 -0.1408 -0.0438
 7669TIP3    H144498   2.429   3.456   1.780  0.5236 -0.4769 -0.6871
 7669TIP3    H244499   2.548   3.523   1.714 -0.2437 -0.3380 -1.9629
 7670TIP3   OH244500   1.343   0.770   4.722  0.0682 -0.3709 -0.3572
 7670TIP3    H144501   1.317   0.757   4.813 -0.7938  0.8769 -0.4000
 7670TIP3    H244502   1.378   0.859   4.719 -0.5238 -0.1508 -1.3607
 7671TIP3   OH244503   6.088   2.673  14.796 -0.8909  0.2461 -0.5581
 7671TIP3    H144504   6.093   2.584  14.829 -1.2239 -0.0653 -1.3192
 7671TIP3    H244505   6.076   2.663  14.702  1.1537  1.1158 -0.9699
 7672TIP3   OH244506   3.425   4.537   3.028 -0.6373 -0.0982  0.7787
 7672TIP3    H144507   3.370   4.603   3.072  0.1788  0.1108  1.5102
 7672TIP3    H244508   3.434   4.570   2.938 -1.6652 -0.1199  0.6483
 7673TIP3   OH244509   2.741   1.789   5.284 -0.1707  0.6494 -0.4314
 7673TIP3    H144510   2.713   1.732   5.355  0.1432  0.8889 -0.1145
 7673TIP3    H244511   2.721   1.739   5.204 -1.2203  0.6869 -0.2105
 7674TIP3   OH244512   2.359   5.293   2.067 -0.4963  0.2617  0.6981
 7674TIP3    H144513   2.335   5.202   2.084 -0.0145  0.1505  0.7962
 7674TIP3    H244514   2.366   5.332   2.154 -2.1721  0.7948  0.6399
 7675TIP3   OH244515   6.430   4.172  15.851 -0.4100 -0.1477  0.5655
 7675TIP3    H144516   6.482   4.111  15.799 -0.0950  0.8229 -0.3048
 7675TIP3    H244517   6.347   4.179  15.803  0.2435  1.5103 -0.4165
 7676TIP3   OH244518   1.024   5.753   6.221 -0.3182  0.2157  0.0722
 7676TIP3    H144519   0.978   5.767   6.139 -0.8804  0.6652  0.4578
 7676TIP3    H244520   1.097   5.815   6.220 -1.5277  1.6985  0.8136
 7677TIP3   OH244521   1.767   4.456  14.538 -0.2309 -0.0565  0.2132
 7677TIP3    H144522   1.806   4.374  14.506 -1.2802 -0.9576  1.1646
 7677TIP3    H244523   1.693   4.471  14.480 -0.2633  0.0157  0.2742
 7678TIP3   OH244524   2.405   1.569   0.593  0.0337 -0.2778  0.0796
 7678TIP3    H144525   2.468   1.602   0.657  0.9084 -1.9691  0.1548
 7678TIP3    H244526   2.322   1.610   0.619  0.1385 -1.5837  2.9461
 7679TIP3   OH244527   1.556   2.454   4.691 -0.4550  0.3160  0.2673
 7679TIP3    H144528   1.534   2.455   4.784 -0.6696  2.0384  0.2398
 7679TIP3    H244529   1.613   2.530   4.679  0.9760 -0.8514 -0.7156
 7680TIP3   OH244530   5.593   3.995  14.146  0.3374 -0.0200  0.3597
 7680TIP3    H144531   5.586   4.042  14.062  0.7284  2.3136  1.5569
 7680TIP3    H244532   5.508   3.954  14.158 -0.0977  0.5489 -0.6552
 7681TIP3   OH244533   6.734   6.157  12.265  0.3854  0.0847 -0.3621
 7681TIP3    H144534   6.699   6.167  12.354  2.2276  0.8557  0.3295
 7681TIP3    H244535   6.826   6.181  12.273  0.6298  0.0217 -2.4720
 7682TIP3   OH244536   4.805   0.160   1.839 -0.2798  0.1359  0.0680
 7682TIP3    H144537   4.724   0.148   1.791  1.0112 -0.0814 -2.1965
 7682TIP3    H244538   4.869   0.187   1.773  1.4259  0.6719  1.8172
 7683TIP3   OH244539   0.212   5.525   0.203  0.5844 -0.0262  0.3208
 7683TIP3    H144540   0.192   5.438   0.168 -2.2635  0.6961 -0.1610
 7683TIP3    H244541   0.297   5.515   0.245  0.2979 -3.0912  0.4476
 7684TIP3   OH244542   5.993   6.571   2.647 -0.0371  0.3354  0.1607
 7684TIP3    H144543   5.997   6.506   2.717 -0.4147  0.2498  0.1051
 7684TIP3    H244544   6.084   6.598   2.634  0.3049 -1.0968 -0.6707
 7685TIP3   OH244545   4.667   6.161  15.755 -0.4893 -0.5073  0.0842
 7685TIP3    H144546   4.578   6.185  15.729 -0.4928 -0.0915  0.4788
 7685TIP3    H244547   4.681   6.206  15.838  0.2180 -0.2808 -0.1501
 7686TIP3   OH244548   2.775   1.785   2.751  0.1409  0.1722 -0.5621
 7686TIP3    H144549   2.750   1.697   2.721 -2.0952  0.9720 -1.2682
 7686TIP3    H244550   2.818   1.825   2.676 -0.2813  0.2075 -0.7897
 7687TIP3   OH244551   3.629   2.332  15.087 -0.1153 -0.0312 -0.4149
 7687TIP3    H144552   3.656   2.270  15.019  0.2688 -0.6761  0.3056
 7687TIP3    H244553   3.708   2.382  15.107 -0.0810 -0.2113 -0.0776
 7688TIP3   OH244554   1.350   1.899  15.265 -0.0546  0.0109 -0.3095
 7688TIP3    H144555   1.382   1.983  15.233  0.4808  0.1463  0.5424
 7688TIP3    H244556   1.260   1.916  15.291  0.2033  0.4571  0.3232
 7689TIP3   OH244557   2.736   1.462   3.572 -1.1108 -0.3588  0.2362
 7689TIP3    H144558   2.663   1.456   3.511 -0.4906  0.0989 -0.5744
 7689TIP3    H244559   2.796   1.393   3.545 -0.8306 -0.1470  0.3089
 7690TIP3   OH244560   5.468   0.729   0.573 -0.2463  0.4190 -0.1173
 7690TIP3    H144561   5.503   0.818   0.582  1.1009  0.0493 -1.3985
 7690TIP3    H244562   5.525   0.675   0.628 -2.5348  0.5940  2.6972
 7691TIP3   OH244563   5.138   3.886   0.743  0.2654 -0.4155 -0.1931
 7691TIP3    H144564   5.068   3.943   0.710 -0.4489  0.2639  2.2671
 7691TIP3    H244565   5.110   3.798   0.719  0.2661  0.0575 -2.1063
 7692TIP3   OH244566   2.741   6.642   2.769  0.0804  0.4280 -0.2116
 7692TIP3    H144567   2.786   6.642   2.684  0.6075  0.3253  0.0640
 7692TIP3    H244568   2.798   6.590   2.826 -1.1456 -1.0112 -0.2433
 7693TIP3   OH244569   0.527   5.105  12.894  0.4267 -0.5333 -0.0751
 7693TIP3    H144570   0.470   5.038  12.933  0.6682  0.0182  1.2773
 7693TIP3    H244571   0.471   5.153  12.834 -0.4001 -0.3663  0.8114
 7694TIP3   OH244572   3.301   1.763   2.151  0.0368 -0.5956  0.0954
 7694TIP3    H144573   3.243   1.781   2.078 -0.7800 -0.9405  0.6425
 7694TIP3    H244574   3.246   1.770   2.229  0.0050 -3.6174  0.4835
 7695TIP3   OH244575   2.288   4.804  15.221 -0.1440  0.2453 -0.3001
 7695TIP3    H144576   2.253   4.875  15.168 -0.3223  0.7633  0.4842
 7695TIP3    H244577   2.234   4.805  15.300 -1.6842 -2.2619 -1.2130
 7696TIP3   OH244578   0.510   0.204   2.437 -0.0408  0.0989  0.2471
 7696TIP3    H144579   0.421   0.186   2.409  0.3296  0.6162 -1.3306
 7696TIP3    H244580   0.500   0.237   2.527 -1.3034 -1.0179  0.5475
 7697TIP3   OH244581   4.271   3.586   4.820  0.6196 -0.1397 -0.5628
 7697TIP3    H144582   4.235   3.667   4.855  0.2742 -0.6318  0.2686
 7697TIP3    H244583   4.302   3.608   4.733 -0.5249  0.6106 -0.7945
 7698TIP3   OH244584   4.536   4.788   5.132  0.3680 -0.1035  0.0023
 7698TIP3    H144585   4.553   4.882   5.127 -0.3312  0.0619  0.6413
 7698TIP3    H244586   4.562   4.754   5.046 -1.0676  0.9475 -0.8765
 7699TIP3   OH244587   4.101   5.155   3.901 -0.3650 -0.2196 -0.1945
 7699TIP3    H144588   4.108   5.084   3.837  0.7088  0.7475 -1.2024
 7699TIP3    H244589   4.007   5.165   3.915 -0.7656  0.6254 -2.9312
 7700TIP3   OH244590   0.692   1.072  13.280  0.5141 -0.3286 -0.5220
 7700TIP3    H144591   0.772   1.023  13.264  1.2352 -0.6171  3.1069
 7700TIP3    H244592   0.625   1.027  13.228  1.8869 -2.7868 -0.3060
 7701TIP3   OH244593   0.461   3.337  13.117  0.3013  0.7753 -0.0553
 7701TIP3    H144594   0.422   3.383  13.043  0.5732 -0.7397 -1.1842
 7701TIP3    H244595   0.543   3.301  13.083  0.7670  0.6095  1.1777
 7702TIP3   OH244596   4.592   6.091   0.186  0.1140 -0.1966  0.0935
 7702TIP3    H144597   4.649   6.121   0.257 -0.5800 -0.0858  0.6196
 7702TIP3    H244598   4.524   6.040   0.230  1.2811 -2.6403 -0.7843
 7703TIP3   OH244599   4.951   5.452   6.681 -0.5216  0.1156  0.3576
 7703TIP3    H144600   4.966   5.379   6.741 -1.1227  0.4822  0.9584
 7703TIP3    H244601   5.014   5.519   6.708 -0.4234  0.0774  0.2278
 7704TIP3   OH244602   5.233   6.031  16.313 -0.0881 -0.2065  0.2960
 7704TIP3    H144603   5.296   6.102  16.309  0.9002 -1.0927 -1.2042
 7704TIP3    H244604   5.151   6.072  16.339  1.1812  0.8885  3.0033
 7705TIP3   OH244605   1.272   3.380   1.487 -0.0321  0.1321 -0.5681
 7705TIP3    H144606   1.226   3.400   1.406 -0.5078  0.5367 -0.2035
 7705TIP3    H244607   1.334   3.311   1.463  0.5346  0.9513 -1.4904
 7706TIP3   OH244608   5.274   3.390   3.363  0.4469  0.6939  0.4829
 7706TIP3    H144609   5.295   3.481   3.345 -1.2430  0.4212 -3.7716
 7706TIP3    H244610   5.188   3.393   3.404  1.9104  1.0088  3.9058
 7707TIP3   OH244611   0.734   1.622   5.528  0.2686 -0.5505 -0.2281
 7707TIP3    H144612   0.756   1.643   5.619  3.3255  0.3519 -1.0804
 7707TIP3    H244613   0.755   1.701   5.479 -1.0162 -1.1266 -1.8040
 7708TIP3   OH244614   4.099   5.299   1.868 -0.4638 -0.0928 -0.5177
 7708TIP3    H144615   4.073   5.355   1.941 -2.7851  0.1853 -1.4609
 7708TIP3    H244616   4.035   5.228   1.868  2.2022 -2.6710  0.4109
 7709TIP3   OH244617   0.517   2.053  14.719 -0.3107  0.2003 -0.2366
 7709TIP3    H144618   0.424   2.030  14.713 -0.1702 -1.0108  1.6523
 7709TIP3    H244619   0.519   2.148  14.704 -1.9994  0.4526  0.8879
 7710TIP3   OH244620   5.483   3.659  15.954 -0.3012  0.6796  0.0622
 7710TIP3    H144621   5.501   3.659  15.860 -1.9752  0.2855 -0.2916
 7710TIP3    H244622   5.389   3.643  15.961 -0.1937  0.5454  1.8171
 7711TIP3   OH244623   2.010   3.768   1.133  0.3458 -0.5691 -0.2789
 7711TIP3    H144624   2.075   3.833   1.160  0.5848 -0.3117 -1.4242
 7711TIP3    H244625   2.060   3.703   1.085  0.1078 -1.6326  0.8691
 7712TIP3   OH244626   2.698   6.188   3.619  0.5520 -0.4332 -0.3853
 7712TIP3    H144627   2.610   6.227   3.623  0.4828 -0.5614 -0.6004
 7712TIP3    H244628   2.692   6.110   3.674  0.3082 -0.8589 -0.9948
 7713TIP3   OH244629   1.279   2.117   3.815 -0.4537  0.0961  0.2349
 7713TIP3    H144630   1.196   2.070   3.805 -0.4921  0.2379 -0.1459
 7713TIP3    H244631   1.265   2.200   3.769  0.0500 -0.0689 -0.2209
 7714TIP3   OH244632   3.332   3.068   2.404 -0.1117 -0.1604  0.2688
 7714TIP3    H144633   3.329   3.058   2.309 -0.1536  0.9702  0.1323
 7714TIP3    H244634   3.376   2.990   2.435 -2.5084 -1.9235 -0.4389
 7715TIP3   OH244635   3.834   0.409  14.223  0.0654  0.0854  0.0481
 7715TIP3    H144636   3.822   0.355  14.301 -1.7918 -2.1560 -1.6482
 7715TIP3    H244637   3.750   0.453  14.210  0.1122 -0.0990 -1.0269
 7716TIP3   OH244638   6.590   3.027  12.446 -0.4962  0.0887  0.5914
 7716TIP3    H144639   6.586   3.031  12.350 -0.4452 -1.0708  0.5160
 7716TIP3    H244640   6.645   3.101  12.471  1.1587 -0.7017 -0.4442
 7717TIP3   OH244641   3.890   3.127  12.637  0.3056  0.0149 -0.4085
 7717TIP3    H144642   3.831   3.144  12.710  0.4635  1.4789 -0.5837
 7717TIP3    H244643   3.971   3.096  12.678  0.4286  0.9251  0.0539
 7718TIP3   OH244644   4.116   2.843  15.940 -0.3845 -0.0526 -0.6095
 7718TIP3    H144645   4.060   2.889  16.002  0.6037  0.1577  0.1550
 7718TIP3    H244646   4.062   2.770  15.907 -1.5392  0.9021 -0.9055
 7719TIP3   OH244647   6.769   5.270  17.139 -0.8209 -0.5925 -0.0884
 7719TIP3    H144648   6.686   5.280  17.093 -0.8496 -1.3831 -0.2294
 7719TIP3    H244649   6.806   5.189  17.104  0.1110 -0.1425 -0.1811
 7720TIP3   OH244650   3.958   5.030   4.687 -0.5855  0.4255 -0.4742
 7720TIP3    H144651   3.894   5.090   4.649 -2.1728 -0.4516  0.7306
 7720TIP3    H244652   3.950   5.041   4.781  1.4782  0.6965 -0.2726
 7721TIP3   OH244653   0.347   3.589  13.174 -0.4614  0.1968  0.0096
 7721TIP3    H144654   0.370   3.672  13.133 -1.5387  0.6946  0.3755
 7721TIP3    H244655   0.423   3.533  13.159  1.3591  1.9628  1.8024
 7722TIP3   OH244656   4.443   2.070  13.291  0.0909 -0.0285  0.1867
 7722TIP3    H144657   4.361   2.022  13.295 -1.6108  2.7581  1.8715
 7722TIP3    H244658   4.478   2.065  13.380  0.7998  0.3765 -0.0629
 7723TIP3   OH244659   4.221   0.969  14.130  1.1656 -0.1064 -0.1241
 7723TIP3    H144660   4.190   1.016  14.052  0.4776 -0.1912  0.0866
 7723TIP3    H244661   4.287   0.909  14.097  0.8669 -0.1551 -0.6520
 7724TIP3   OH244662   5.372   5.983  15.171  0.0238 -0.2487 -0.2853
 7724TIP3    H144663   5.342   5.997  15.082 -0.5417 -1.4616 -0.3088
 7724TIP3    H244664   5.418   6.064  15.194 -0.8714  0.5581 -1.2312
 7725TIP3   OH244665   5.171   5.351   0.271 -0.1550  0.4761 -0.3526
 7725TIP3    H144666   5.126   5.398   0.201  0.2809  0.5238 -0.6070
 7725TIP3    H244667   5.106   5.289   0.305 -0.8429  1.4657  0.1999
 7726TIP3   OH244668   4.254   1.483  14.487  0.6548  0.7341  0.2635
 7726TIP3    H144669   4.260   1.578  14.501  0.6463  0.9016 -0.7695
 7726TIP3    H244670   4.161   1.464  14.495  0.4393  1.0966 -1.0925
 7727TIP3   OH244671   1.537   4.957  12.876  0.4924  0.4796  0.0488
 7727TIP3    H144672   1.500   4.871  12.854  3.4367 -0.4772 -1.8489
 7727TIP3    H244673   1.467   5.019  12.858 -0.6518 -1.2658 -2.0462
 7728TIP3   OH244674   0.452   0.054   1.106 -0.1999 -0.2550  0.3461
 7728TIP3    H144675   0.412   0.140   1.124 -0.8569 -0.7495  1.3464
 7728TIP3    H244676   0.546   0.072   1.104 -0.3332  0.5096  0.4094
 7729TIP3   OH244677   5.115   0.591   2.607 -0.3247 -0.2144 -0.5248
 7729TIP3    H144678   5.119   0.654   2.680  0.4158 -1.8244  0.8865
 7729TIP3    H244679   5.159   0.635   2.535  0.4494  0.7936  0.5165
 7730TIP3   OH244680   2.536   3.466  13.788  0.1597  0.3565 -0.0296
 7730TIP3    H144681   2.601   3.396  13.791 -0.2714 -0.0787 -0.4474
 7730TIP3    H244682   2.523   3.482  13.694  0.0590  0.8085  0.0599
 7731TIP3   OH244683   6.205   4.971  16.522 -0.0463 -0.1369  0.3631
 7731TIP3    H144684   6.156   5.052  16.539  0.6126  0.4893 -0.5962
 7731TIP3    H244685   6.296   5.000  16.513  0.1518 -0.9351 -0.3482
 7732TIP3   OH244686   0.958   2.778  15.145  0.5978  0.3617 -0.2404
 7732TIP3    H144687   0.999   2.730  15.073  0.0737 -0.9736  0.3247
 7732TIP3    H244688   1.030   2.795  15.206  0.9892  1.2619 -0.9213
 7733TIP3   OH244689   1.555   5.358   3.501  0.2519 -0.2035 -0.0700
 7733TIP3    H144690   1.597   5.444   3.492 -2.1708  0.9750 -1.1112
 7733TIP3    H244691   1.530   5.353   3.593 -0.3220  0.6049 -0.1703
 7734TIP3   OH244692   1.488   4.484  12.530  0.1352 -0.2132 -0.3282
 7734TIP3    H144693   1.542   4.435  12.468  0.8419  0.9209 -0.6507
 7734TIP3    H244694   1.516   4.453  12.616  3.2953  2.1067 -0.3203
 7735TIP3   OH244695   1.325   3.353   5.527  0.0366 -0.1209 -0.0805
 7735TIP3    H144696   1.298   3.273   5.482  0.8742  0.0375 -0.8845
 7735TIP3    H244697   1.306   3.424   5.465  0.3422  0.1940  0.1788
 7736TIP3   OH244698   1.486   5.063  11.181 -0.5124 -0.0238 -0.5524
 7736TIP3    H144699   1.485   5.143  11.128 -0.9166  0.1847 -0.2295
 7736TIP3    H244700   1.554   5.009  11.141 -0.4690  0.3429 -0.9781
 7737TIP3   OH244701   0.806   1.312  14.233  0.0288  0.1643  0.1754
 7737TIP3    H144702   0.827   1.393  14.279  2.3113 -0.3206  0.1463
 7737TIP3    H244703   0.724   1.282  14.272 -1.2326  2.7882 -0.3003
 7738TIP3   OH244704   0.328   1.111   5.775 -0.0282 -0.6620  0.8166
 7738TIP3    H144705   0.286   1.181   5.727  0.7013  0.3867  1.6423
 7738TIP3    H244706   0.287   1.113   5.862  0.1151 -1.1348  0.8983
 7739TIP3   OH244707   0.875   4.021   1.139  0.0309 -0.7905  0.0835
 7739TIP3    H144708   0.858   4.045   1.230  1.3437 -2.5187  0.8423
 7739TIP3    H244709   0.920   4.097   1.103 -0.4987 -0.0787  0.8831
 7740TIP3   OH244710   6.733   1.433  13.243 -0.6799  0.7810  0.2394
 7740TIP3    H144711   6.786   1.367  13.289  0.8680 -0.5326 -3.0816
 7740TIP3    H244712   6.643   1.404  13.254 -0.1697 -0.8026  0.4728
 7741TIP3   OH244713   4.685   0.772   3.667  0.0311  0.2703 -0.1621
 7741TIP3    H144714   4.608   0.799   3.718 -0.7904 -0.8783 -0.7529
 7741TIP3    H244715   4.739   0.724   3.729  0.5061  1.4467  0.3675
 7742TIP3   OH244716   6.201   2.078  12.030 -0.2377 -0.2489  0.3974
 7742TIP3    H144717   6.216   2.016  11.958  3.1022  0.4000  0.3676
 7742TIP3    H244718   6.239   2.161  11.998 -2.9683  1.4112  1.1324
 7743TIP3   OH244719   5.550   5.064  15.043  0.2792 -0.1046 -0.1691
 7743TIP3    H144720   5.556   5.157  15.022 -0.1799 -0.2772 -1.1135
 7743TIP3    H244721   5.526   5.061  15.135 -0.8565  0.7239 -0.4300
 7744TIP3   OH244722   0.690   2.893   4.626  0.5540  0.5131 -0.0741
 7744TIP3    H144723   0.784   2.889   4.607  0.6490  0.7347  0.3545
 7744TIP3    H244724   0.679   2.973   4.677 -0.0062  0.9625 -0.8757
 7745TIP3   OH244725   5.373   3.573   3.960 -0.3645  0.0484 -0.3678
 7745TIP3    H144726   5.458   3.614   3.971 -0.2497 -0.1438 -0.5245
 7745TIP3    H244727   5.335   3.615   3.883 -0.2045 -0.2077 -0.5880
 7746TIP3   OH244728   5.228   6.454   4.165 -0.1864 -0.7723 -0.2154
 7746TIP3    H144729   5.308   6.410   4.137  0.1050 -2.0923  2.4139
 7746TIP3    H244730   5.172   6.383   4.197 -0.5018  0.5181  2.3569
 7747TIP3   OH244731   2.608   3.770   3.312 -0.2669  0.1494 -0.2463
 7747TIP3    H144732   2.600   3.752   3.406  2.6894 -0.1959  0.0396
 7747TIP3    H244733   2.519   3.791   3.284 -2.3837 -4.9644  1.4498
 7748TIP3   OH244734   2.310   5.301  10.841 -0.3041  0.0534 -0.2177
 7748TIP3    H144735   2.388   5.246  10.845 -1.6701 -1.9314  0.7150
 7748TIP3    H244736   2.256   5.263  10.772  0.0294  2.1669 -1.7500
 7749TIP3   OH244737   1.395   4.542  13.455  0.3682  0.2298  0.2755
 7749TIP3    H144738   1.313   4.577  13.490  0.8585  2.3418 -0.4953
 7749TIP3    H244739   1.392   4.449  13.475 -2.6977  0.0070 -0.6565
 7750TIP3   OH244740   4.584   6.568   1.782  0.0013 -0.6135  0.3218
 7750TIP3    H144741   4.637   6.555   1.703  1.2924 -0.9570  1.2097
 7750TIP3    H244742   4.497   6.536   1.758  0.6696 -1.8233 -0.6034
 7751TIP3   OH244743   0.118   6.178   0.604 -0.9006 -0.5723 -0.2137
 7751TIP3    H144744   0.199   6.148   0.564 -0.9799  0.2388 -1.0179
 7751TIP3    H244745   0.076   6.098   0.637  0.1999 -1.0008  0.1971
 7752TIP3   OH244746   5.990   1.767  11.839  0.0079 -0.0324  0.1426
 7752TIP3    H144747   6.028   1.738  11.922  2.0945  0.7206 -0.4846
 7752TIP3    H244748   6.064   1.802  11.789 -1.4818  1.2536 -1.3077
 7753TIP3   OH244749   3.695   2.058   4.902 -0.2016  0.2337 -0.0705
 7753TIP3    H144750   3.685   2.101   4.817 -0.9820 -1.9839 -1.1792
 7753TIP3    H244751   3.614   2.078   4.949 -1.1551 -1.0111 -1.0961
 7754TIP3   OH244752   4.173   5.793   4.276  0.4601  0.8601  0.7808
 7754TIP3    H144753   4.155   5.820   4.366 -0.1248  1.5300  0.4753
 7754TIP3    H244754   4.213   5.870   4.236 -0.7450  1.1260  0.0365
 7755TIP3   OH244755   2.926   6.585  14.479 -1.4562 -0.2009  0.0516
 7755TIP3    H144756   2.981   6.592  14.401 -1.9878  0.1523 -0.3017
 7755TIP3    H244757   2.836   6.583  14.445 -1.7209  0.5137  0.6747
 7756TIP3   OH244758   4.606   6.028   1.440  0.2583 -0.2228 -0.6190
 7756TIP3    H144759   4.669   5.968   1.400  0.4743 -1.2745  1.1732
 7756TIP3    H244760   4.658   6.082   1.499 -0.4337 -1.0985  0.8774
 7757TIP3   OH244761   4.680   1.374  11.522  0.1418 -0.1292  0.2774
 7757TIP3    H144762   4.613   1.364  11.455  0.4714 -1.1423  0.0797
 7757TIP3    H244763   4.749   1.313  11.496 -0.2120 -1.3990  2.1339
 7758TIP3   OH244764   5.893   5.411   3.220 -0.3114 -0.2820 -0.0164
 7758TIP3    H144765   5.906   5.477   3.153  0.2632  0.5723  0.9090
 7758TIP3    H244766   5.908   5.328   3.175 -2.3277  0.1003 -1.4991
 7759TIP3   OH244767   5.121   3.755  11.599 -0.0325 -0.4834  0.4541
 7759TIP3    H144768   5.176   3.678  11.617  1.3583  0.1544 -0.8265
 7759TIP3    H244769   5.040   3.718  11.562 -0.1512 -1.4043  1.5865
 7760TIP3   OH244770   0.602   0.231  17.111 -0.1372 -0.3774  0.4653
 7760TIP3    H144771   0.581   0.274  17.194  1.2932 -0.9062  1.1439
 7760TIP3    H244772   0.551   0.150  17.112 -0.0872 -0.4043  0.8566
 7761TIP3   OH244773   2.205   2.262  13.728 -0.1744 -0.1207 -0.2599
 7761TIP3    H144774   2.179   2.352  13.708  0.0621  0.0156  0.0403
 7761TIP3    H244775   2.268   2.239  13.660  0.4748  0.2690  0.2037
 7762TIP3   OH244776   1.501   5.099   4.525  0.1264 -0.3539 -0.1442
 7762TIP3    H144777   1.545   5.023   4.487  1.3429  0.2491 -0.0103
 7762TIP3    H244778   1.559   5.127   4.596 -1.0166 -0.1449  0.7369
 7763TIP3   OH244779   0.539   0.812  14.894 -0.0995 -0.0862  0.3786
 7763TIP3    H144780   0.600   0.816  14.820  0.0943 -4.5970  0.0176
 7763TIP3    H244781   0.458   0.852  14.860  0.0422 -1.7957 -2.3455
 7764TIP3   OH244782   5.431   2.689   3.502  0.2589 -0.1146  0.1321
 7764TIP3    H144783   5.466   2.708   3.589  1.6383  1.1512 -0.6456
 7764TIP3    H244784   5.371   2.761   3.484  2.7753  1.7767 -1.3764
 7765TIP3   OH244785   5.971   1.270  16.383  0.5235 -0.1924  0.0979
 7765TIP3    H144786   5.920   1.329  16.438  0.7874  0.5369 -0.4353
 7765TIP3    H244787   5.962   1.184  16.426  1.0973  0.4318  1.5408
 7766TIP3   OH244788   6.544   2.677  15.324  0.0307  0.8263 -0.2306
 7766TIP3    H144789   6.468   2.681  15.266  0.1764  0.6881 -0.4332
 7766TIP3    H244790   6.607   2.737  15.284 -0.5221  2.0931  0.7492
 7767TIP3   OH244791   6.826   5.809   2.112 -0.2762 -0.4670  0.7376
 7767TIP3    H144792   6.733   5.822   2.096 -0.2522 -2.3651 -1.6274
 7767TIP3    H244793   6.865   5.895   2.101 -1.3808 -0.2267 -2.0444
 7768TIP3   OH244794   6.636   3.786   1.009  0.3631 -0.0701 -0.0976
 7768TIP3    H144795   6.639   3.769   0.915  0.6410  0.9057 -0.2782
 7768TIP3    H244796   6.703   3.728   1.046  1.3351  0.6453 -0.6960
 7769TIP3   OH244797   1.829   4.297   1.277 -0.1815 -0.8038  0.8608
 7769TIP3    H144798   1.806   4.311   1.185  0.3635 -1.6889  0.5789
 7769TIP3    H244799   1.745   4.278   1.319 -0.5253  0.2351  0.6872
 7770TIP3   OH244800   0.657   0.106   1.824 -0.7284  0.0252 -0.1268
 7770TIP3    H144801   0.606   0.155   1.759 -0.7486 -1.2735 -1.1295
 7770TIP3    H244802   0.612   0.022   1.831 -1.3058  0.4661  2.3375
 7771TIP3   OH244803   5.491   6.255  13.253 -0.4738 -0.1091  0.0782
 7771TIP3    H144804   5.481   6.166  13.287  0.3199  0.4475  1.8782
 7771TIP3    H244805   5.516   6.308  13.329  2.7569  1.0019 -1.5852
 7772TIP3   OH244806   0.690   3.749   1.627 -0.1001  0.0211  0.3068
 7772TIP3    H144807   0.735   3.698   1.560 -3.0486 -3.8420  0.8410
 7772TIP3    H244808   0.746   3.743   1.704  1.4740  1.1458 -0.6954
 7773TIP3   OH244809   1.478   2.392   0.852  0.0994 -0.0299 -0.2190
 7773TIP3    H144810   1.402   2.420   0.903  1.0835 -1.1160  1.9755
 7773TIP3    H244811   1.542   2.462   0.865  0.8519 -0.9499  1.2910
 7774TIP3   OH244812   5.355   2.589  11.354  0.6843 -0.6405  0.6141
 7774TIP3    H144813   5.339   2.580  11.448 -0.0089  0.5291  0.6262
 7774TIP3    H244814   5.270   2.614  11.318  1.2591  0.3081 -0.1254
 7775TIP3   OH244815   4.746   3.068   1.946 -0.4199 -0.1646  0.0668
 7775TIP3    H144816   4.809   3.101   1.882 -0.1049 -0.8068  0.0344
 7775TIP3    H244817   4.777   2.979   1.966 -1.2945 -0.4758  0.0857
 7776TIP3   OH244818   2.261   6.064   0.261  0.3469  1.0038 -0.2730
 7776TIP3    H144819   2.274   6.105   0.347 -0.0296  1.8682 -0.6149
 7776TIP3    H244820   2.166   6.059   0.251  0.3867 -0.0069 -0.2259
 7777TIP3   OH244821   1.523   6.525   2.413 -0.2434 -0.1750  0.0494
 7777TIP3    H144822   1.487   6.445   2.376  0.3090 -0.4950  0.2043
 7777TIP3    H244823   1.516   6.589   2.342 -2.4880  0.1981  0.5261
 7778TIP3   OH244824   0.793   3.354   2.911  0.8197 -0.2852  0.1982
 7778TIP3    H144825   0.884   3.342   2.882  0.5933 -1.3079 -0.0939
 7778TIP3    H244826   0.793   3.325   3.002  1.1073  1.1588  0.6928
 7779TIP3   OH244827   4.558   1.575   6.343  0.5518 -0.9420 -0.7101
 7779TIP3    H144828   4.599   1.489   6.345  1.4190 -0.5840  2.6873
 7779TIP3    H244829   4.628   1.636   6.368 -0.3463  0.6284 -1.8367
 7780TIP3   OH244830   0.687   2.991  16.090 -0.1501  0.2346 -0.1759
 7780TIP3    H144831   0.665   3.081  16.065  1.0790  0.2174 -1.4394
 7780TIP3    H244832   0.700   2.945  16.007 -0.7321 -1.1205  0.4519
 7781TIP3   OH244833   3.496   5.129   3.368  0.0649 -0.1217 -0.1657
 7781TIP3    H144834   3.548   5.187   3.312  0.6635  1.3935  1.8578
 7781TIP3    H244835   3.419   5.181   3.391  1.1067  0.3619  2.5220
 7782TIP3   OH244836   4.589   4.312  11.546 -0.3730 -0.1777 -0.3072
 7782TIP3    H144837   4.605   4.380  11.480  0.2094 -1.4464 -1.5277
 7782TIP3    H244838   4.645   4.239  11.519  0.6632 -0.4061  2.1778
 7783TIP3   OH244839   2.563   2.778  15.147 -0.3018  0.1245 -0.7509
 7783TIP3    H144840   2.629   2.840  15.180  0.4056 -0.6520 -0.6800
 7783TIP3    H244841   2.595   2.752  15.061  0.9140 -2.2326  0.3065
 7784TIP3   OH244842   4.322   5.336  11.285 -0.4338 -0.7114 -0.1776
 7784TIP3    H144843   4.331   5.303  11.195  0.5507 -2.9093  0.6470
 7784TIP3    H244844   4.228   5.351  11.295 -0.4168  1.1158 -2.0196
 7785TIP3   OH244845   5.517   3.648  14.410 -0.1930  0.0843 -0.5665
 7785TIP3    H144846   5.489   3.591  14.482 -0.8870 -0.5546 -1.3199
 7785TIP3    H244847   5.596   3.691  14.443  0.2083 -1.1219  0.1254
 7786TIP3   OH244848   2.103   6.169   3.116 -0.4052 -0.0522 -0.1287
 7786TIP3    H144849   2.104   6.263   3.096 -0.7410  0.0588  0.3522
 7786TIP3    H244850   2.050   6.131   3.046 -1.1135  0.2584  0.2266
 7787TIP3   OH244851   0.922   0.562   4.044  0.3396 -0.3684 -0.0935
 7787TIP3    H144852   0.893   0.471   4.049 -0.1023 -0.2095  0.1852
 7787TIP3    H244853   0.970   0.576   4.125 -1.1741  0.2009  0.7291
 7788TIP3   OH244854   0.993   1.658   2.131  0.2818 -0.1195  0.2335
 7788TIP3    H144855   1.024   1.733   2.078  0.1445 -0.6331 -0.5959
 7788TIP3    H244856   0.956   1.597   2.067  0.1706 -0.7975  0.9273
 7789TIP3   OH244857   0.475   2.112  15.623  0.0487 -0.1470 -0.0140
 7789TIP3    H144858   0.473   2.143  15.714  0.4139 -0.6143  0.1593
 7789TIP3    H244859   0.388   2.131  15.589 -0.4309 -0.8925  0.7513
 7790TIP3   OH244860   1.540   6.183   2.516 -0.1859  0.2409  0.1475
 7790TIP3    H144861   1.604   6.123   2.477 -0.1780  0.1025  0.3673
 7790TIP3    H244862   1.460   6.169   2.467 -0.4827 -0.7163  0.8626
 7791TIP3   OH244863   2.526   6.164  12.832  0.5867 -0.3359 -0.0278
 7791TIP3    H144864   2.526   6.190  12.740 -0.4962  0.0106  0.0564
 7791TIP3    H244865   2.578   6.232  12.876 -0.7191  0.7372 -0.0795
 7792TIP3   OH244866   6.610   6.330   5.232 -0.2573 -0.6426 -0.8578
 7792TIP3    H144867   6.543   6.397   5.245  0.0124 -0.5902  0.4458
 7792TIP3    H244868   6.561   6.253   5.203 -0.8981 -0.5812 -0.0030
 7793TIP3   OH244869   0.885   2.060  11.295  0.4289 -0.0024  0.2115
 7793TIP3    H144870   0.961   2.001  11.284  0.4196  0.2451 -1.5554
 7793TIP3    H244871   0.858   2.080  11.205 -1.4575  0.2962  0.8041
 7794TIP3   OH244872   1.124   0.015  15.498 -0.0491 -0.2412 -0.5796
 7794TIP3    H144873   1.099   0.094  15.450 -1.4611 -1.8296 -2.6007
 7794TIP3    H244874   1.186  -0.030  15.442 -0.4839 -1.3523 -0.2061
 7795TIP3   OH244875   2.021   6.840   5.340 -0.2935 -0.1920  0.0790
 7795TIP3    H144876   2.029   6.856   5.246  2.5075 -1.6149 -0.0213
 7795TIP3    H244877   1.984   6.752   5.347  1.2753 -0.8806  0.1993
 7796TIP3   OH244878   3.496   1.032   2.431 -0.2761  0.2377  0.3971
 7796TIP3    H144879   3.436   1.099   2.398 -1.2664 -0.7601  0.1030
 7796TIP3    H244880   3.568   1.081   2.469 -1.1613  1.4783  0.5356
 7797TIP3   OH244881   5.025   1.871  16.782  0.0496  0.3170  0.2320
 7797TIP3    H144882   5.106   1.921  16.780  1.0336 -1.0564  2.2369
 7797TIP3    H244883   5.001   1.859  16.690  1.8782  1.1205 -0.3828
 7798TIP3   OH244884   6.590   6.096   2.832  0.0015 -0.0227 -0.2042
 7798TIP3    H144885   6.621   6.143   2.755 -0.1231  2.0320  0.9276
 7798TIP3    H244886   6.647   6.126   2.903 -1.5202  0.1296  0.9993
 7799TIP3   OH244887   5.606   1.282   0.813 -0.0968  0.1836  0.1010
 7799TIP3    H144888   5.518   1.284   0.849  0.5160 -0.6783  1.7642
 7799TIP3    H244889   5.615   1.194   0.775  0.1695  0.1465  0.2488
 7800TIP3   OH244890   5.471   3.666   1.264  0.0605  0.4119 -0.6022
 7800TIP3    H144891   5.381   3.660   1.232 -1.7944  0.6631  3.7606
 7800TIP3    H244892   5.491   3.577   1.295  0.7105  0.6976 -0.1800
 7801TIP3   OH244893   6.297   6.610  13.670  0.3507 -0.1156  0.3225
 7801TIP3    H144894   6.362   6.618  13.739  1.6047  0.3779 -0.8594
 7801TIP3    H244895   6.316   6.526  13.628  0.2848  0.0677 -0.0833
 7802TIP3   OH244896   5.637   0.133   3.224 -0.1517  0.1701 -0.1246
 7802TIP3    H144897   5.645   0.115   3.130 -0.3663 -0.8959  0.0492
 7802TIP3    H244898   5.557   0.088   3.251 -0.0943  0.4653  0.5751
 7803TIP3   OH244899   1.102   4.528   1.396  0.2702  0.7322 -0.7693
 7803TIP3    H144900   1.084   4.497   1.485  0.8277  0.2916 -0.8037
 7803TIP3    H244901   1.028   4.496   1.344 -0.7358  2.0863 -0.2428
 7804TIP3   OH244902   2.267   2.266  13.426  0.1525 -0.5855 -0.0497
 7804TIP3    H144903   2.180   2.285  13.462  0.9098  0.3887  1.3522
 7804TIP3    H244904   2.271   2.317  13.345 -1.8728 -3.4137 -2.1346
 7805TIP3   OH244905   4.523   0.097  16.431  0.2828  0.5739 -0.6301
 7805TIP3    H144906   4.516   0.112  16.526  0.4628 -3.2179  0.1313
 7805TIP3    H244907   4.456   0.153  16.393  0.1048  2.1173  1.7023
 7806TIP3   OH244908   1.763   4.355  11.312 -0.2107 -0.0929 -0.7497
 7806TIP3    H144909   1.778   4.269  11.350 -1.6192 -0.3828 -0.7722
 7806TIP3    H244910   1.702   4.339  11.240 -1.1841  0.9985 -0.2128
 7807TIP3   OH244911   2.929   1.756   0.447 -0.0715 -0.7024  0.0285
 7807TIP3    H144912   2.920   1.739   0.541  0.6707 -0.4734  0.1491
 7807TIP3    H244913   2.899   1.676   0.405 -1.8298 -0.2860  0.3953
 7808TIP3   OH244914   0.873   1.092  12.816 -0.5264  0.0939  0.2693
 7808TIP3    H144915   0.817   1.026  12.775  0.9033 -0.4975 -0.8139
 7808TIP3    H244916   0.960   1.052  12.819 -0.1593  0.9158  2.0669
 7809TIP3   OH244917   3.865   1.838   0.374  0.6641 -0.7012 -0.1495
 7809TIP3    H144918   3.922   1.842   0.450  0.4949 -0.8412 -0.0145
 7809TIP3    H244919   3.843   1.745   0.365 -0.2859 -0.5402  0.3586
 7810TIP3   OH244920   4.997   2.245   0.403 -0.7173 -0.3119 -0.4371
 7810TIP3    H144921   4.919   2.234   0.457 -0.4959  0.9035  0.1582
 7810TIP3    H244922   4.990   2.334   0.368 -0.2045 -0.6186 -1.3568
 7811TIP3   OH244923   3.621   4.790  17.116 -0.7170 -0.4641 -0.6109
 7811TIP3    H144924   3.651   4.856  17.053  0.3173 -0.1833  0.1544
 7811TIP3    H244925   3.622   4.835  17.200  1.4939 -1.8128  0.1902
 7812TIP3   OH244926   4.195   3.356  12.782  0.1796  0.6805 -0.3398
 7812TIP3    H144927   4.168   3.308  12.860 -1.3216 -1.0740 -1.8345
 7812TIP3    H244928   4.224   3.441  12.814 -4.0410  1.5583  1.8276
 7813TIP3   OH244929   3.426   4.869   5.791 -0.1315 -0.0113  0.3856
 7813TIP3    H144930   3.451   4.863   5.883 -0.0581  0.5442  0.4032
 7813TIP3    H244931   3.484   4.935   5.755 -0.1098 -0.2842 -0.0815
 7814TIP3   OH244932   0.719   6.010  11.786 -0.4318  0.4434 -0.3114
 7814TIP3    H144933   0.737   5.956  11.863 -1.9106  1.0098  0.4677
 7814TIP3    H244934   0.804   6.048  11.764 -0.1058  1.0061  1.6422
 7815TIP3   OH244935   5.527   0.351   1.277 -0.2960 -0.5406 -0.3325
 7815TIP3    H144936   5.452   0.295   1.255 -1.4771  0.2387  1.4103
 7815TIP3    H244937   5.572   0.303   1.347 -1.4787  0.6903  1.3732
 7816TIP3   OH244938   0.717   0.085   2.338  0.0279  0.1901 -0.2894
 7816TIP3    H144939   0.634   0.118   2.371 -0.3746  0.2956 -1.3734
 7816TIP3    H244940   0.731   0.131   2.255 -1.2841 -3.2148 -2.6496
 7817TIP3   OH244941   5.555   4.497  11.220 -0.3025 -1.0691 -0.1198
 7817TIP3    H144942   5.518   4.468  11.303  1.7683 -0.1259  1.2393
 7817TIP3    H244943   5.544   4.592  11.220  0.2605 -0.9946 -0.6127
 7818TIP3   OH244944   1.964   3.577   4.137 -0.5845  0.3808 -0.3157
 7818TIP3    H144945   1.938   3.527   4.061  0.4058  1.3744 -1.3517
 7818TIP3    H244946   1.946   3.668   4.114 -0.6829  0.6661  0.8147
 7819TIP3   OH244947   5.342   3.495  10.949 -0.0505  0.2911  0.0492
 7819TIP3    H144948   5.334   3.580  10.905 -0.9535  0.5347  0.6467
 7819TIP3    H244949   5.309   3.432  10.886  2.1085  0.1430 -1.0292
 7820TIP3   OH244950   0.514   1.918  16.703  0.2792  0.4604  0.4191
 7820TIP3    H144951   0.588   1.926  16.643  0.5300  2.7907  0.9292
 7820TIP3    H244952   0.436   1.929  16.648  0.4522  0.9810  0.2707
 7821TIP3   OH244953   6.586   3.756   2.313  0.2649 -0.0011  0.4203
 7821TIP3    H144954   6.607   3.824   2.249  1.4140  2.3103  3.0202
 7821TIP3    H244955   6.670   3.732   2.351 -0.4771 -0.4104  1.8701
 7822TIP3   OH244956   3.131   1.914  14.141 -0.7178 -0.1602  0.3394
 7822TIP3    H144957   3.037   1.909  14.126 -0.5466 -0.0273 -0.8768
 7822TIP3    H244958   3.161   1.983  14.082  0.0866  0.0583  0.9946
 7823TIP3   OH244959   1.323   0.682   6.187 -0.0843  0.0879 -0.0699
 7823TIP3    H144960   1.235   0.678   6.224  0.0120  0.3431  0.1881
 7823TIP3    H244961   1.347   0.774   6.194  1.4472 -0.4203  2.7543
 7824TIP3   OH244962   2.679   4.018  11.931 -0.1531  0.0650 -0.0537
 7824TIP3    H144963   2.724   4.097  11.901 -0.0244  0.5473  1.3591
 7824TIP3    H244964   2.595   4.019  11.885  0.2941  0.4068 -0.8958
 7825TIP3   OH244965   6.744   0.359  13.730 -0.8822 -0.0605 -0.7729
 7825TIP3    H144966   6.667   0.370  13.674 -1.7517 -0.0168  0.4052
 7825TIP3    H244967   6.738   0.430  13.793  0.0999 -0.0991 -0.6187
 7826TIP3   OH244968   1.878   0.453   2.045 -0.3554  0.0290 -0.1207
 7826TIP3    H144969   1.872   0.495   1.959 -0.1580 -2.2023 -1.3045
 7826TIP3    H244970   1.967   0.418   2.048  0.1555  1.3540  1.6745
 7827TIP3   OH244971   3.706   2.994   6.206  0.6392  0.4341 -0.5511
 7827TIP3    H144972   3.671   3.050   6.275 -0.5039 -2.5250  1.4748
 7827TIP3    H244973   3.773   2.942   6.249  4.1323  2.3350 -3.1523
 7828TIP3   OH244974   4.236   1.114   3.037  0.1226 -0.3931  0.2655
 7828TIP3    H144975   4.274   1.142   3.120  0.7085 -0.6089  0.0771
 7828TIP3    H244976   4.171   1.048   3.061 -2.6959  2.4116  0.8863
 7829TIP3   OH244977   4.214   1.338   5.365 -0.4398 -0.2304  0.2332
 7829TIP3    H144978   4.190   1.339   5.272 -0.0507 -0.7318  0.1252
 7829TIP3    H244979   4.299   1.294   5.368 -0.5799 -0.4713  0.8601
 7830TIP3   OH244980   6.043   1.992  16.969 -0.3319  0.0401  0.4275
 7830TIP3    H144981   5.963   1.961  16.926 -0.6519  3.0609 -1.4477
 7830TIP3    H244982   6.034   2.087  16.971  2.9734  0.4690  0.6330
 7831TIP3   OH244983   4.029   3.652   0.264 -0.7193 -0.6716 -0.1947
 7831TIP3    H144984   3.983   3.575   0.232 -0.5699 -0.0474 -2.0063
 7831TIP3    H244985   4.118   3.643   0.231 -0.4450 -0.1724  0.3763
 7832TIP3   OH244986   1.025   3.508  15.073 -0.2996  0.7630  0.2435
 7832TIP3    H144987   0.933   3.483  15.063 -0.5883  0.3303  3.0170
 7832TIP3    H244988   1.027   3.602  15.055 -0.7583  0.3433 -2.2825
 7833TIP3   OH244989   0.001   5.014   5.340 -0.0066  0.3514  0.2085
 7833TIP3    H144990   0.003   4.936   5.285 -0.3335  1.0769 -0.8484
 7833TIP3    H244991   0.023   5.086   5.281 -1.2223  1.2635  0.8167
 7834TIP3   OH244992   4.811   3.212  14.914  0.3223  0.0118  0.1185
 7834TIP3    H144993   4.881   3.148  14.908  0.5631  0.3841 -1.7556
 7834TIP3    H244994   4.785   3.212  15.006  1.0830 -1.9302  0.3707
 7835TIP3   OH244995   0.381   4.179   5.260  0.0933 -0.1975 -0.1187
 7835TIP3    H144996   0.437   4.181   5.338  0.4602 -1.0543 -0.3477
 7835TIP3    H244997   0.438   4.145   5.191 -0.3240  0.2411 -0.6904
 7836TIP3   OH244998   1.946   4.281  10.427  0.3415  0.4751  0.3657
 7836TIP3    H144999   1.923   4.240  10.344 -0.2441  1.9149 -0.2105
 7836TIP3    H245000   2.035   4.313  10.414  0.0095  1.2781  0.0604
 7837TIP3   OH245001   0.931   3.288  13.827  0.2399  0.2806  0.1996
 7837TIP3    H145002   0.927   3.258  13.918  0.0532 -0.1931  0.0376
 7837TIP3    H245003   0.872   3.364  13.825  1.7727  1.5706  0.9373
 7838TIP3   OH245004   4.453   5.899  16.419  0.1913  0.2374 -0.1438
 7838TIP3    H145005   4.541   5.910  16.457  0.5178  2.3050 -1.3438
 7838TIP3    H245006   4.445   5.972  16.357 -1.6142 -1.0667 -1.5326
 7839TIP3   OH245007   1.376   6.749  13.214 -0.5400  0.7031  0.5721
 7839TIP3    H145008   1.425   6.792  13.144  1.7741  0.0899  1.7381
 7839TIP3    H245009   1.312   6.814  13.243 -0.2143  1.6575 -0.7715
 7840TIP3   OH245010   4.078   1.917   4.786 -0.3575  0.2489  0.5042
 7840TIP3    H145011   4.007   1.898   4.848  1.5104  0.1238  2.7556
 7840TIP3    H245012   4.150   1.948   4.841  0.8759  1.8485 -1.8269
 7841TIP3   OH245013   5.744   3.159   2.106  0.2003  0.3361  0.3142
 7841TIP3    H145014   5.742   3.090   2.039 -0.3697 -0.5020  1.1634
 7841TIP3    H245015   5.831   3.197   2.100  1.3230 -1.9208  1.2579
 7842TIP3   OH245016   2.368   0.057  11.055  1.1754 -0.3639  0.1309
 7842TIP3    H145017   2.351  -0.011  10.990 -3.4434  1.1958 -0.6923
 7842TIP3    H245018   2.449   0.099  11.025  0.2215 -0.8513 -3.6790
 7843TIP3   OH245019   3.122   0.247   0.893 -0.3540 -0.2274 -0.5131
 7843TIP3    H145020   3.096   0.183   0.960 -1.4272  0.5659 -0.1465
 7843TIP3    H245021   3.050   0.310   0.892  0.7371  1.0359 -0.8018
 7844TIP3   OH245022   6.810   1.496  15.052  0.1632  0.5837 -0.2974
 7844TIP3    H145023   6.821   1.428  15.118 -0.9258 -0.2820 -0.9765
 7844TIP3    H245024   6.782   1.573  15.102 -0.7873 -0.0935  0.2494
 7845TIP3   OH245025   6.820   0.435   4.421 -0.4003 -0.0961  0.0805
 7845TIP3    H145026   6.786   0.508   4.369  1.9142  2.1160  1.4161
 7845TIP3    H245027   6.760   0.429   4.496 -1.1475 -0.2140 -0.5205
 7846TIP3   OH245028   5.513   1.467  15.465 -0.0245  0.3490 -0.2335
 7846TIP3    H145029   5.438   1.449  15.521  0.4771  0.4024  0.4644
 7846TIP3    H245030   5.518   1.562  15.460 -0.1683  0.3422 -0.5019
 7847TIP3   OH245031   5.281   0.904  11.092 -0.8030  0.0224 -0.3797
 7847TIP3    H145032   5.321   0.820  11.115 -1.3165  0.0840  0.8051
 7847TIP3    H245033   5.340   0.970  11.128 -1.2660  0.1323  0.1964
 7848TIP3   OH245034   5.718   3.364  13.738 -0.3828  0.4570 -0.6113
 7848TIP3    H145035   5.671   3.369  13.821  2.0135 -0.7319  0.9596
 7848TIP3    H245036   5.675   3.293  13.690  0.3580 -1.3948  1.2630
 7849TIP3   OH245037   5.698   2.923  12.075 -0.4928  0.3109  0.0989
 7849TIP3    H145038   5.679   2.926  12.169 -0.5273  1.6711  0.0736
 7849TIP3    H245039   5.635   2.860  12.040  0.1172 -0.9002  1.0962
 7850TIP3   OH245040   0.766   2.417  12.940 -0.2167 -0.1779 -0.3459
 7850TIP3    H145041   0.822   2.354  12.894  0.3406  0.1455 -0.1286
 7850TIP3    H245042   0.711   2.364  12.997 -0.9051 -0.5829 -1.3722
 7851TIP3   OH245043   2.713   5.164  15.694 -0.4640  0.0652 -0.1167
 7851TIP3    H145044   2.652   5.203  15.757  1.5970  1.3800  1.1964
 7851TIP3    H245045   2.779   5.120  15.748 -0.2538 -1.3695 -1.4742
 7852TIP3   OH245046   0.120   6.350   2.337  0.0677 -0.6828  0.0782
 7852TIP3    H145047   0.164   6.331   2.420  0.6102 -1.7234 -0.4256
 7852TIP3    H245048   0.076   6.267   2.315  0.0110 -0.4447 -0.7203
 7853TIP3   OH245049   0.144   3.710   2.390  0.0082 -0.2055 -0.0409
 7853TIP3    H145050   0.189   3.696   2.473  0.4236 -0.7508 -0.3518
 7853TIP3    H245051   0.097   3.793   2.401  0.4719 -0.0210  0.5577
 7854TIP3   OH245052   0.516   6.077   2.925 -0.7336  0.6413  0.2919
 7854TIP3    H145053   0.558   6.094   2.840 -1.2848 -0.1956 -0.1714
 7854TIP3    H245054   0.458   6.002   2.908 -0.0544 -0.2441  1.6675
 7855TIP3   OH245055   5.397   5.823   0.726  0.0988 -0.4595 -0.6120
 7855TIP3    H145056   5.363   5.870   0.802  0.3508 -0.3555 -0.5628
 7855TIP3    H245057   5.355   5.737   0.731 -1.6425  0.2762 -1.6099
 7856TIP3   OH245058   0.674   3.525  10.341 -0.0155  0.0678 -0.1262
 7856TIP3    H145059   0.675   3.461  10.270 -1.5262 -0.3340  0.1792
 7856TIP3    H245060   0.621   3.485  10.409  0.4870  0.9156  0.7972
 7857TIP3   OH245061   6.344   2.458   4.413  0.2379 -0.2711  0.1023
 7857TIP3    H145062   6.249   2.472   4.415  0.5376  2.2732  0.8316
 7857TIP3    H245063   6.381   2.547   4.419  2.6912 -1.3069  1.9250
 7858TIP3   OH245064   1.753   5.923  10.309 -0.3126 -0.0159  0.0315
 7858TIP3    H145065   1.685   5.905  10.244  0.0063  0.8731 -0.5820
 7858TIP3    H245066   1.707   5.968  10.380 -0.0851  2.7376 -1.4023
 7859TIP3   OH245067   0.180   2.954   1.643 -0.7528  0.1934  0.1747
 7859TIP3    H145068   0.104   2.987   1.595 -1.3652 -0.8271  0.3964
 7859TIP3    H245069   0.219   2.890   1.583 -0.9287 -0.3386  0.6122
 7860TIP3   OH245070   2.109   3.714  13.621 -0.1340  0.1262  0.0700
 7860TIP3    H145071   2.118   3.657  13.697 -0.8459 -0.5112 -0.3052
 7860TIP3    H245072   2.075   3.657  13.552 -1.0873  1.0466 -0.2491
 7861TIP3   OH245073   1.131   2.648  16.460  0.5428  0.6174  0.1337
 7861TIP3    H145074   1.167   2.722  16.411  1.4748 -0.2170 -0.4992
 7861TIP3    H245075   1.104   2.586  16.392 -0.2389  0.3822  0.6558
 7862TIP3   OH245076   3.588   1.713   1.064  0.0052 -0.1431 -0.6198
 7862TIP3    H145077   3.588   1.679   1.153 -2.1901 -0.8040 -0.8147
 7862TIP3    H245078   3.590   1.808   1.075 -0.2321 -0.2163  0.1417
 7863TIP3   OH245079   2.113   0.515  16.400 -0.9243  0.4286 -0.6181
 7863TIP3    H145080   2.082   0.591  16.449 -1.7743 -1.4064  1.8639
 7863TIP3    H245081   2.080   0.528  16.311 -0.4003  3.2725 -0.4828
 7864TIP3   OH245082   4.813   6.542  12.765  0.1623  0.3175  1.2665
 7864TIP3    H145083   4.759   6.528  12.688  0.1889  1.5918  0.9991
 7864TIP3    H245084   4.795   6.466  12.821  1.6388 -1.6896 -0.7864
 7865TIP3   OH245085   2.557   0.292  11.389  1.2362 -0.1669 -0.2217
 7865TIP3    H145086   2.653   0.293  11.385  1.3136  0.9260  0.9475
 7865TIP3    H245087   2.538   0.304  11.482 -0.0250  1.4462 -0.6535
 7866TIP3   OH245088   0.786   0.300  15.622  0.4361  0.3909  0.0640
 7866TIP3    H145089   0.771   0.369  15.557  1.6869  0.6973  0.0671
 7866TIP3    H245090   0.702   0.290  15.666 -0.2759  0.5965 -1.1919
 7867TIP3   OH245091   0.682   0.639  11.174  0.6604 -0.9588  0.3660
 7867TIP3    H145092   0.607   0.614  11.120 -0.2660  1.2315  0.5247
 7867TIP3    H245093   0.750   0.664  11.111 -0.6718  2.3469  0.0059
 7868TIP3   OH245094   5.344   0.963  13.087  0.4809  0.4081 -0.2608
 7868TIP3    H145095   5.268   0.905  13.074  0.1735  0.8535 -0.4815
 7868TIP3    H245096   5.346   0.977  13.182  1.0897 -0.6611 -0.0940
 7869TIP3   OH245097   4.650   1.651  11.056 -0.1172 -0.0379  0.2947
 7869TIP3    H145098   4.598   1.703  10.995 -0.8159  0.0043  0.8986
 7869TIP3    H245099   4.739   1.686  11.049 -0.0619 -0.4217 -1.1017
 7870TIP3   OH245100   3.777   0.039  13.821 -0.3530 -0.4550  0.4735
 7870TIP3    H145101   3.758  -0.046  13.860  1.7844 -1.0673  0.3326
 7870TIP3    H245102   3.756   0.102  13.890 -0.8287 -1.1935  1.0162
 7871TIP3   OH245103   4.308   1.064   1.860  0.2790 -0.1329  0.2013
 7871TIP3    H145104   4.337   1.149   1.828  0.0530  0.3769  1.3363
 7871TIP3    H245105   4.245   1.034   1.794  0.0386  0.7669  0.0145
 7872TIP3   OH245106   4.663   0.770  13.847  0.0401 -0.5263 -0.1961
 7872TIP3    H145107   4.710   0.719  13.914 -0.9286 -1.5245 -0.2355
 7872TIP3    H245108   4.625   0.704  13.790 -4.1976 -0.0685  1.6883
 7873TIP3   OH245109   0.208   2.531  11.639 -0.0180  0.3428 -0.3469
 7873TIP3    H145110   0.174   2.441  11.642 -0.2508  0.4110 -0.8495
 7873TIP3    H245111   0.301   2.521  11.623  0.1841  0.1557  0.8757
 7874TIP3   OH245112   3.318   1.284  16.745  0.2553  0.3528  0.5750
 7874TIP3    H145113   3.328   1.339  16.667  0.5176 -0.2537  0.1730
 7874TIP3    H245114   3.226   1.257  16.744  0.5400 -0.6845 -0.2468
 7875TIP3   OH245115   1.549   1.523   3.951  0.1859 -0.8093 -0.9458
 7875TIP3    H145116   1.524   1.446   4.002 -0.6378 -1.4054 -2.1748
 7875TIP3    H245117   1.643   1.514   3.936  0.8393  0.3286  1.9414
 7876TIP3   OH245118   1.631   1.879   5.331  0.2621  0.1605  0.1959
 7876TIP3    H145119   1.581   1.951   5.371  0.1136 -0.5685  1.3701
 7876TIP3    H245120   1.572   1.841   5.267 -0.2598  0.0762  0.7147
 7877TIP3   OH245121   0.501   2.509   5.194  0.0372  0.1945 -0.1067
 7877TIP3    H145122   0.422   2.501   5.248 -0.3234 -0.8078 -0.7454
 7877TIP3    H245123   0.573   2.508   5.256 -0.4117  0.0320  0.4210
 7878TIP3   OH245124   0.724   5.899   2.236 -0.0039  0.3418 -0.1820
 7878TIP3    H145125   0.678   5.982   2.224  1.0697  1.0807  0.5519
 7878TIP3    H245126   0.679   5.857   2.309 -0.9423 -0.0317 -0.9528
 7879TIP3   OH245127   0.221   2.373  12.190  0.2772  0.1795 -0.7595
 7879TIP3    H145128   0.160   2.429  12.141 -0.7254 -0.6400 -0.4925
 7879TIP3    H245129   0.167   2.301  12.221  1.3192 -0.3634 -0.1531
 7880TIP3   OH245130   0.231   5.905   3.152  0.0727  0.1443  0.1678
 7880TIP3    H145131   0.150   5.876   3.195 -0.0397  1.8761  1.2430
 7880TIP3    H245132   0.222   5.876   3.062 -2.7429  2.0521 -0.2886
 7881TIP3   OH245133   6.505   2.462  10.235  0.4304  0.4429  0.3292
 7881TIP3    H145134   6.528   2.382  10.282  1.6350  0.2620 -0.5223
 7881TIP3    H245135   6.416   2.481  10.264  0.5513 -0.5270  1.4655
 7882TIP3   OH245136   3.978   6.729  16.761 -0.1234  0.6162  0.5887
 7882TIP3    H145137   4.019   6.816  16.763  3.6650 -0.9946  0.5203
 7882TIP3    H245138   4.006   6.690  16.679 -2.6280 -0.4059  0.1162
 7883TIP3   OH245139   0.625   0.655   1.494  0.5579  0.1223  0.0059
 7883TIP3    H145140   0.608   0.672   1.402 -0.0535  1.5389  0.3510
 7883TIP3    H245141   0.703   0.601   1.495 -0.2917 -1.1923 -1.3938
 7884TIP3   OH245142   4.301   6.702  11.231 -0.3745 -0.4881  0.5260
 7884TIP3    H145143   4.302   6.685  11.325  1.2318  0.6864  0.7694
 7884TIP3    H245144   4.311   6.797  11.225  1.3747 -0.7118 -0.8209
 7885TIP3   OH245145   2.406   0.321  12.220 -0.5428 -0.0009  0.1465
 7885TIP3    H145146   2.389   0.393  12.160 -0.4567  0.0939  0.2369
 7885TIP3    H245147   2.326   0.312  12.271 -1.1363 -0.9654 -0.8958
 7886TIP3   OH245148   6.032   2.642  11.784 -0.7209 -0.8528 -0.5924
 7886TIP3    H145149   6.070   2.577  11.725  0.5282  0.1464 -0.9389
 7886TIP3    H245150   6.078   2.629  11.867 -0.3202 -0.2960 -0.7216
 7887TIP3   OH245151   6.699   6.534  12.008 -0.0621 -0.2553  0.0535
 7887TIP3    H145152   6.774   6.495  11.962  0.6424 -0.2107  1.1219
 7887TIP3    H245153   6.732   6.552  12.097 -0.6367  1.9235 -0.1144
 7888TIP3   OH245154   1.359   3.245   0.630 -0.7324  0.1484 -0.1917
 7888TIP3    H145155   1.388   3.230   0.721 -0.7928  0.3696 -0.1358
 7888TIP3    H245156   1.404   3.177   0.580  0.4160  0.8969 -0.2023
 7889TIP3   OH245157   2.763   3.448  12.444 -0.4842 -0.0293  0.2927
 7889TIP3    H145158   2.825   3.522  12.446 -2.3896  1.6626 -0.0216
 7889TIP3    H245159   2.810   3.380  12.395  0.8710  1.4504 -0.5958
 7890TIP3   OH245160   4.140   2.915  15.652 -0.1197  0.3257 -0.1421
 7890TIP3    H145161   4.105   2.834  15.688 -1.5673  1.3948  0.9732
 7890TIP3    H245162   4.204   2.887  15.587  1.3371 -1.7024  2.0247
 7891TIP3   OH245163   3.534   6.201  11.765  0.0511  0.0574  0.2405
 7891TIP3    H145164   3.610   6.220  11.819 -0.0556 -0.6912  0.6762
 7891TIP3    H245165   3.546   6.254  11.686  1.4762 -0.6911 -0.0847
 7892TIP3   OH245166   3.155   6.419   0.767  0.4230  0.1289 -0.1523
 7892TIP3    H145167   3.153   6.490   0.832  0.8670 -2.0106  2.3641
 7892TIP3    H245168   3.247   6.415   0.740  0.2337  1.0420 -1.0070
 7893TIP3   OH245169   1.354   3.755   5.364  0.1213 -0.2683  0.3508
 7893TIP3    H145170   1.344   3.835   5.312  0.1815  0.7650  1.8789
 7893TIP3    H245171   1.276   3.751   5.418 -0.3719 -1.8186 -0.4017
 7894TIP3   OH245172   2.137   1.794   2.827  0.4661  0.3703  0.3748
 7894TIP3    H145173   2.147   1.705   2.861 -1.2978 -0.9509 -2.1658
 7894TIP3    H245174   2.051   1.822   2.859 -0.5308 -0.2947 -1.5509
 7895TIP3   OH245175   1.606   3.176   6.269  0.1145  0.9276  0.1460
 7895TIP3    H145176   1.515   3.177   6.238  0.2265 -0.1719 -0.2743
 7895TIP3    H245177   1.605   3.233   6.346 -0.5126  2.4212 -0.9274
 7896TIP3   OH245178   4.559   0.400  15.036 -0.6016 -0.1275 -0.3887
 7896TIP3    H145179   4.620   0.335  15.071  0.7731 -0.1946 -2.6661
 7896TIP3    H245180   4.484   0.348  15.007 -0.9949 -0.2620  0.8239
 7897TIP3   OH245181   3.742   2.361  11.030  0.0448  0.0790  0.2866
 7897TIP3    H145182   3.758   2.446  11.072  0.8813 -0.2229  0.5924
 7897TIP3    H245183   3.799   2.300  11.077  0.8613 -0.3082 -1.1820
 7898TIP3   OH245184   5.296   5.932   1.173  0.2237  0.0450 -0.2836
 7898TIP3    H145185   5.325   6.020   1.198  1.8216 -0.4969 -0.1565
 7898TIP3    H245186   5.294   5.883   1.255  2.5337 -0.9061 -0.7301
 7899TIP3   OH245187   6.303   5.134  15.873 -0.6683 -0.1954  0.3992
 7899TIP3    H145188   6.350   5.183  15.941 -0.5388  0.2390 -0.0012
 7899TIP3    H245189   6.291   5.047  15.911 -0.2903 -0.0600  0.8436
 7900TIP3   OH245190   3.752   1.543  16.125 -0.1573 -0.0527  0.6386
 7900TIP3    H145191   3.742   1.449  16.111 -1.7200 -0.1168  1.8739
 7900TIP3    H245192   3.674   1.581  16.086  0.2827  0.6916  0.4816
 7901TIP3   OH245193   1.638   2.919  14.352  0.1250  0.7655  0.8023
 7901TIP3    H145194   1.548   2.940  14.377 -2.1868 -3.6023 -2.4772
 7901TIP3    H245195   1.649   2.827  14.377  3.3318  0.8347  0.0717
 7902TIP3   OH245196   1.927   5.939   4.600 -0.5085 -0.0026 -0.3164
 7902TIP3    H145197   1.996   5.941   4.535 -0.2460  0.0953 -0.0364
 7902TIP3    H245198   1.848   5.919   4.550 -0.4384  0.8043 -0.7699
 7903TIP3   OH245199   3.275   6.072   6.237 -0.1510 -0.1107 -0.2181
 7903TIP3    H145200   3.360   6.062   6.195  0.1435 -1.5504  0.6850
 7903TIP3    H245201   3.287   6.040   6.326 -2.0726 -2.0941 -0.5930
 7904TIP3   OH245202   1.617   4.954   1.021  0.2516  0.0368 -0.2395
 7904TIP3    H145203   1.563   4.966   1.099 -0.5881  1.1056 -0.9561
 7904TIP3    H245204   1.664   4.872   1.037 -0.4367 -0.1337  1.0666
 7905TIP3   OH245205   5.244   0.803   5.456 -0.8746  0.0173 -0.5038
 7905TIP3    H145206   5.320   0.861   5.457  0.4865 -1.6861  0.4080
 7905TIP3    H245207   5.213   0.806   5.366 -0.0042  1.0854 -0.7929
 7906TIP3   OH245208   5.612   4.155   5.292  0.3287  0.5150 -0.5008
 7906TIP3    H145209   5.527   4.112   5.281  1.9089 -2.5248 -1.9567
 7906TIP3    H245210   5.630   4.150   5.386 -0.7657  0.5740 -0.2735
 7907TIP3   OH245211   2.558   6.631   1.189 -0.1166 -0.0708 -0.0323
 7907TIP3    H145212   2.511   6.572   1.129 -1.2041  0.5259  0.1996
 7907TIP3    H245213   2.647   6.598   1.190 -0.5698 -1.3786 -0.3514
 7908TIP3   OH245214   3.813   1.905  14.343  0.2700 -0.4343  0.4642
 7908TIP3    H145215   3.892   1.959  14.334 -0.6229  0.7616 -0.5764
 7908TIP3    H245216   3.815   1.845  14.269 -0.8952  1.1499 -0.9447
 7909TIP3   OH245217   4.840   1.255   5.743  0.1720  0.0953 -0.4984
 7909TIP3    H145218   4.886   1.201   5.807 -0.2110  0.2431 -0.0907
 7909TIP3    H245219   4.776   1.196   5.704  0.2208  0.0762 -0.5498
 7910TIP3   OH245220   3.066   6.325  12.023 -0.5304 -0.2489  0.2232
 7910TIP3    H145221   3.161   6.337  12.020 -0.1984 -1.2304  3.1114
 7910TIP3    H245222   3.037   6.340  11.934  2.2710  0.6011 -0.6569
 7911TIP3   OH245223   5.023   1.589  17.110  0.0301 -0.2674  0.1251
 7911TIP3    H145224   4.962   1.642  17.161  0.7235 -0.0272  0.7205
 7911TIP3    H245225   5.069   1.536  17.175  0.1200 -0.7941 -0.3603
 7912TIP3   OH245226   4.106   3.173  15.736 -0.3633 -0.6294  0.2834
 7912TIP3    H145227   4.114   3.080  15.716 -1.3845 -0.7155  0.1886
 7912TIP3    H245228   4.131   3.181  15.828  2.3738 -0.5521 -0.3741
 7913TIP3   OH245229   1.950   6.092  10.478  0.0244 -0.8559  0.3655
 7913TIP3    H145230   1.919   6.027  10.414 -2.3701 -1.7144  2.2502
 7913TIP3    H245231   2.034   6.058  10.508 -0.1569 -1.9296 -0.2678
 7914TIP3   OH245232   4.634   0.327   0.060  0.0779  0.1341  0.4738
 7914TIP3    H145233   4.667   0.408   0.097 -1.3580  2.2387 -2.4473
 7914TIP3    H245234   4.692   0.308  -0.014 -2.1169  1.1161 -1.6303
 7915TIP3   OH245235   3.540   0.202   3.394  0.4054  0.6193  0.3654
 7915TIP3    H145236   3.502   0.243   3.316 -0.5021  1.8814  1.4182
 7915TIP3    H245237   3.493   0.241   3.467  0.6816 -1.1146  1.5387
 7916TIP3   OH245238   4.667   4.296  17.019 -0.8921 -0.3390 -0.4524
 7916TIP3    H145239   4.635   4.247  16.943 -1.6566 -0.4104 -0.0853
 7916TIP3    H245240   4.602   4.280  17.087 -0.2182 -0.2691  0.2224
 7917TIP3   OH245241   3.978   3.850   4.509  0.5585  0.1938  0.2641
 7917TIP3    H145242   3.929   3.878   4.433 -0.8711  0.4934  1.2652
 7917TIP3    H245243   4.065   3.888   4.497  0.0769  1.0128 -0.7527
 7918TIP3   OH245244   4.869   1.591   1.405 -0.1290  0.4316 -0.2556
 7918TIP3    H145245   4.881   1.549   1.320  2.2489  0.0876  0.1564
 7918TIP3    H245246   4.818   1.670   1.387  0.1390  0.2507 -1.9578
 7919TIP3   OH245247   4.557   2.922   4.372 -0.2944 -0.7501 -0.2755
 7919TIP3    H145248   4.498   2.941   4.298 -0.2937  0.9089  0.1146
 7919TIP3    H245249   4.501   2.929   4.449  0.1746 -0.2397  0.0249
 7920TIP3   OH245250   1.039   0.097  13.872 -0.0704  0.6923 -0.2072
 7920TIP3    H145251   0.943   0.107  13.867 -0.6690 -3.3311 -0.0016
 7920TIP3    H245252   1.070   0.130  13.788 -1.7201  1.3233 -0.6263
 7921TIP3   OH245253   1.749   1.168   3.553 -0.1398 -0.7386 -0.9278
 7921TIP3    H145254   1.731   1.261   3.561  1.7753 -0.4696  1.5384
 7921TIP3    H245255   1.746   1.151   3.458 -0.3047  1.8563 -1.4686
 7922TIP3   OH245256   0.204   0.061   2.989  0.5024  0.0853 -0.2432
 7922TIP3    H145257   0.170   0.110   3.064  0.7805  0.5918 -0.4403
 7922TIP3    H245258   0.205  -0.030   3.018 -2.0187 -0.1128 -0.6011
 7923TIP3   OH245259   3.776   3.796   0.706 -0.4229  0.5963 -0.3306
 7923TIP3    H145260   3.694   3.844   0.723  0.4418  1.5304  1.4380
 7923TIP3    H245261   3.835   3.862   0.671 -0.4155 -0.0989 -1.6891
 7924TIP3   OH245262   5.385   1.071  12.527 -0.3651 -0.5840 -0.2716
 7924TIP3    H145263   5.355   1.052  12.438 -3.0615  0.0017  0.4237
 7924TIP3    H245264   5.324   1.023  12.583  1.5692 -1.3163  1.3049
 7925TIP3   OH245265   3.604   6.720   5.949  0.0462 -0.5712  0.3726
 7925TIP3    H145266   3.522   6.672   5.948  0.0607 -0.6308  1.2248
 7925TIP3    H245267   3.581   6.808   5.918 -0.7788  0.0431  2.5466
 7926TIP3   OH245268   2.630   2.096  15.082 -0.2672  0.0332 -0.1779
 7926TIP3    H145269   2.707   2.038  15.080 -0.2692 -0.0051  0.5625
 7926TIP3    H245270   2.560   2.044  15.045 -0.7433 -1.1839  2.2373
 7927TIP3   OH245271   2.910   5.893  15.724  0.2618  0.6593  0.2570
 7927TIP3    H145272   2.857   5.826  15.680 -0.4808  1.4099 -0.0254
 7927TIP3    H245273   2.847   5.961  15.747  0.7247  0.5300  2.0534
 7928TIP3   OH245274   0.397   4.000  11.744 -1.2070 -0.1940 -0.2693
 7928TIP3    H145275   0.434   4.057  11.811  0.1493 -1.1554 -0.1527
 7928TIP3    H245276   0.352   3.931  11.793 -2.8217  0.6961 -0.4101
 7929TIP3   OH245277   1.261   3.748   4.116  0.3027 -0.2456 -0.2660
 7929TIP3    H145278   1.220   3.673   4.159  0.6472 -0.5397 -0.4392
 7929TIP3    H245279   1.287   3.805   4.188 -3.2313  1.5225 -0.2175
 7930TIP3   OH245280   0.663   3.739  12.976  0.3207  0.0082 -1.0222
 7930TIP3    H145281   0.746   3.786  12.971  0.7726 -0.6049  0.2499
 7930TIP3    H245282   0.686   3.652  13.008 -1.0452  0.7672  2.5473
 7931TIP3   OH245283   3.770   6.026  16.978 -0.0288 -0.3297 -0.1987
 7931TIP3    H145284   3.730   5.961  16.920 -2.1908 -1.6784  2.5655
 7931TIP3    H245285   3.728   6.108  16.955 -1.1253 -0.9156 -0.3373
 7932TIP3   OH245286   3.523   2.606   4.210  0.0196 -0.0594 -0.0533
 7932TIP3    H145287   3.563   2.555   4.139 -0.6251 -1.6045  0.6557
 7932TIP3    H245288   3.454   2.549   4.244 -0.6130  1.2408  0.8905
 7933TIP3   OH245289   0.185   0.174  15.891  0.1370 -0.0656  0.1011
 7933TIP3    H145290   0.167   0.250  15.946  2.6563  1.0848 -0.5338
 7933TIP3    H245291   0.216   0.211  15.808 -0.7689 -1.7925 -1.0807
 7934TIP3   OH245292   5.179   3.487   2.921  0.3891 -0.2318  0.2281
 7934TIP3    H145293   5.105   3.432   2.893  0.1902 -0.9421  2.0389
 7934TIP3    H245294   5.248   3.425   2.944  1.3305  0.4079 -0.7317
 7935TIP3   OH245295   6.599   4.493   1.804  0.2139 -0.1846 -0.3478
 7935TIP3    H145296   6.649   4.571   1.827 -0.8119  0.0725  1.1655
 7935TIP3    H245297   6.509   4.524   1.796 -0.4480 -1.3948  1.6375
 7936TIP3   OH245298   0.809   3.038  14.285 -0.2390 -0.2315  0.4929
 7936TIP3    H145299   0.790   3.105  14.350  0.4165 -0.1521  0.6080
 7936TIP3    H245300   0.830   2.960  14.337 -1.2770 -0.6171  0.3610
 7937TIP3   OH245301   1.255   0.039  14.663 -0.5174  0.0862  0.0942
 7937TIP3    H145302   1.296   0.123  14.687  0.1061  0.4354 -1.9869
 7937TIP3    H245303   1.166   0.046  14.696 -0.1274  1.0616  1.0149
 7938TIP3   OH245304   1.960   3.263   5.564  0.3538 -0.0849 -0.4360
 7938TIP3    H145305   1.951   3.272   5.659  0.5376  1.9607 -0.5701
 7938TIP3    H245306   1.897   3.326   5.528  0.5233 -0.5894 -1.6778
 7939TIP3   OH245307   3.935   4.246   1.278 -0.2321  0.5041  0.3432
 7939TIP3    H145308   3.918   4.222   1.369 -0.7348 -0.0470  0.1134
 7939TIP3    H245309   3.909   4.337   1.272 -1.3472  0.2090  0.4686
 7940TIP3   OH245310   1.627   5.525   1.510  0.1415 -0.1398 -0.6165
 7940TIP3    H145311   1.584   5.594   1.561 -0.6751 -0.0231 -1.4295
 7940TIP3    H245312   1.574   5.447   1.526  1.0073 -0.5672  0.2228
 7941TIP3   OH245313   1.550   3.792   3.680  0.7678  0.0714  0.3265
 7941TIP3    H145314   1.569   3.850   3.606  0.5490 -0.3851 -0.0951
 7941TIP3    H245315   1.458   3.812   3.702  0.4357 -0.6779 -0.3423
 7942TIP3   OH245316   1.792   0.388  14.054  0.3305 -0.1085  0.1124
 7942TIP3    H145317   1.829   0.352  13.973 -0.8952 -0.0890 -0.4790
 7942TIP3    H245318   1.849   0.355  14.123  0.7354 -1.0759 -0.6539
 7943TIP3   OH245319   5.962   0.320   0.622 -0.2768 -0.6391  0.1502
 7943TIP3    H145320   5.882   0.287   0.582 -0.6665  0.9960 -0.5095
 7943TIP3    H245321   5.933   0.361   0.703  0.0302 -0.8370  0.3653
 7944TIP3   OH245322   2.249   2.317  12.959  0.1311  0.0099  0.2689
 7944TIP3    H145323   2.203   2.350  12.881 -0.5040  0.7100  0.9161
 7944TIP3    H245324   2.339   2.304  12.930  0.2886  1.8058 -0.1964
 7945TIP3   OH245325   4.190   2.040  13.977  0.0234  0.1435 -0.3928
 7945TIP3    H145326   4.142   2.005  14.053  0.1127  0.7543 -0.0496
 7945TIP3    H245327   4.204   1.964  13.921 -1.1929 -0.0814 -0.4173
 7946TIP3   OH245328   3.659   5.460  11.887 -0.2653  0.2223  0.3803
 7946TIP3    H145329   3.586   5.436  11.831  0.8014  1.4323 -1.6428
 7946TIP3    H245330   3.698   5.376  11.913  1.7502 -0.5462 -4.2516
 7947TIP3   OH245331   3.340   0.092  14.599 -0.7896  0.3264  0.0829
 7947TIP3    H145332   3.248   0.076  14.578 -0.6621  1.0583 -1.1173
 7947TIP3    H245333   3.343   0.096  14.695 -1.7673 -1.0208  0.1917
 7948TIP3   OH245334   4.919   1.404   2.727  0.4245 -0.6697 -0.8026
 7948TIP3    H145335   4.880   1.405   2.814 -0.6883  0.9449 -1.2579
 7948TIP3    H245336   5.007   1.442   2.740  0.6273 -1.3081 -0.2578
 7949TIP3   OH245337   6.720   1.677  14.852  0.6082 -0.1569 -0.5422
 7949TIP3    H145338   6.651   1.614  14.829  1.5609 -0.6393 -2.2502
 7949TIP3    H245339   6.789   1.623  14.892  0.1377  0.2935  0.9519
 7950TIP3   OH245340   0.201   3.169   3.366  0.2372  0.4677 -0.1262
 7950TIP3    H145341   0.139   3.100   3.392 -2.5546  2.8456  0.1048
 7950TIP3    H245342   0.261   3.177   3.440 -0.5376 -0.4928  0.6416
 7951TIP3   OH245343   2.135   3.657  15.237 -0.6152 -0.3901 -0.5360
 7951TIP3    H145344   2.185   3.623  15.311 -1.8293  1.0898  1.0589
 7951TIP3    H245345   2.179   3.622  15.160 -0.1506 -3.1790  0.8738
 7952TIP3   OH245346   0.650   4.462  14.661 -0.7831 -0.2257  0.0892
 7952TIP3    H145347   0.591   4.504  14.599 -0.5236 -0.2895 -0.2044
 7952TIP3    H245348   0.675   4.531  14.722 -1.5754 -0.3223  0.5310
 7953TIP3   OH245349   0.231   4.691   4.855 -0.2531 -0.1091  0.0626
 7953TIP3    H145350   0.281   4.731   4.926  0.3903 -0.1169 -0.3773
 7953TIP3    H245351   0.233   4.756   4.785 -1.1090  0.0104  0.1395
 7954TIP3   OH245352   5.726   0.678  15.132 -0.2517 -0.3253  0.3617
 7954TIP3    H145353   5.695   0.614  15.196 -0.6489  0.8536  1.4007
 7954TIP3    H245354   5.647   0.726  15.105  0.0358 -0.2611 -0.3892
 7955TIP3   OH245355   0.162   3.637  12.275  0.2592  0.4751  0.2451
 7955TIP3    H145356   0.084   3.622  12.221  0.3870  0.1030  0.1607
 7955TIP3    H245357   0.144   3.718  12.321 -1.0586 -0.6520  1.8076
 7956TIP3   OH245358   4.421   0.761  15.634  0.5139  0.0479 -0.4176
 7956TIP3    H145359   4.464   0.805  15.561 -0.3196  1.5532 -0.0334
 7956TIP3    H245360   4.475   0.782  15.710  1.7312 -2.0256 -0.6240
 7957TIP3   OH245361   5.751   0.250  16.026 -0.2224  0.8361  0.1718
 7957TIP3    H145362   5.672   0.264  16.079  0.9640  0.4755  2.1278
 7957TIP3    H245363   5.816   0.310  16.062  0.5516  0.8272 -1.1314
 7958TIP3   OH245364   5.065   0.785  13.099  0.1441  0.3978 -0.3699
 7958TIP3    H145365   5.052   0.772  13.193 -1.9228 -0.8702 -0.7755
 7958TIP3    H245366   5.119   0.710  13.073  0.7770  0.7871 -0.2010
 7959TIP3   OH245367   2.420   5.451   3.830 -0.1943  0.1053 -0.9099
 7959TIP3    H145368   2.337   5.403   3.826 -0.4510  0.4056  0.3379
 7959TIP3    H245369   2.436   5.463   3.923  1.9377 -1.0705 -1.0705
 7960TIP3   OH245370   3.995   3.001  11.961 -0.1887  0.0527 -0.5087
 7960TIP3    H145371   4.062   2.936  11.941 -0.1293 -0.2997  0.7317
 7960TIP3    H245372   3.920   2.976  11.907  0.1155 -0.5592 -0.6528
 7961TIP3   OH245373   4.157   5.640   0.886  0.5663  0.9649 -0.0022
 7961TIP3    H145374   4.242   5.595   0.887  0.2609  0.2714 -2.0455
 7961TIP3    H245375   4.154   5.685   0.971  1.6006 -1.5229  1.4957
 7962TIP3   OH245376   0.216   1.947   4.105  0.0931 -0.2957 -0.1868
 7962TIP3    H145377   0.133   1.903   4.086 -0.0937 -0.0698  0.0918
 7962TIP3    H245378   0.215   1.961   4.200  0.7495 -0.8795 -0.0855
 7963TIP3   OH245379   3.826   6.351   5.096  0.1608  0.1475  0.3462
 7963TIP3    H145380   3.860   6.386   5.014  0.8730 -0.3306  0.4256
 7963TIP3    H245381   3.772   6.421   5.132  1.9466  1.3987  0.7456
 7964TIP3   OH245382   1.859   3.153  13.224  0.5105  0.2829 -0.1735
 7964TIP3    H145383   1.821   3.208  13.293 -0.0057 -0.3639  0.0646
 7964TIP3    H245384   1.941   3.121  13.262 -1.0819 -2.3738  1.3140
 7965TIP3   OH245385   6.330   0.040   0.823 -0.2280 -0.1799  0.2023
 7965TIP3    H145386   6.390   0.112   0.804  0.2587 -0.5394  0.3568
 7965TIP3    H245387   6.263   0.079   0.879  0.6807 -0.1030  1.2762
 7966TIP3   OH245388   4.829   2.842   2.071 -0.1672  0.4888 -0.2550
 7966TIP3    H145389   4.920   2.845   2.099  0.0324  1.5449 -0.9762
 7966TIP3    H245390   4.780   2.818   2.150  0.8074 -0.9968 -0.0768
 7967TIP3   OH245391   3.798   6.390   0.584 -0.2758  0.0731  0.1826
 7967TIP3    H145392   3.880   6.439   0.581  0.8212 -1.6234  0.4619
 7967TIP3    H245393   3.729   6.455   0.571  1.1704  1.3668 -1.3938
 7968TIP3   OH245394   5.692   4.319  14.422  0.0060 -0.4039 -0.1700
 7968TIP3    H145395   5.754   4.250  14.400  0.0809 -0.8915  1.4909
 7968TIP3    H245396   5.638   4.329  14.343  1.9918 -0.1305 -1.5783
 7969TIP3   OH245397   6.296   2.847  11.272  0.2261  0.1558  0.1223
 7969TIP3    H145398   6.219   2.878  11.225  0.4948  1.8805  0.7581
 7969TIP3    H245399   6.287   2.752  11.272 -2.6159  0.3273  1.3282
 7970TIP3   OH245400   2.952   5.239   3.304 -0.4305 -0.4909  0.6048
 7970TIP3    H145401   2.897   5.162   3.321  1.8793 -1.9407  2.1240
 7970TIP3    H245402   2.912   5.308   3.356 -0.7250 -1.5727  1.8962
 7971TIP3   OH245403   6.685   5.520  12.290 -0.5650  0.0177  0.6491
 7971TIP3    H145404   6.666   5.610  12.315  0.9201  0.0922  1.6106
 7971TIP3    H245405   6.744   5.488  12.358 -0.8084 -1.5827  0.1497
 7972TIP3   OH245406   5.213   0.499   3.768  0.4951 -0.1665  0.4798
 7972TIP3    H145407   5.265   0.434   3.720 -0.4596 -0.5846 -0.0165
 7972TIP3    H245408   5.265   0.518   3.846  1.1221 -0.9946  0.2800
 7973TIP3   OH245409   2.011   3.884  14.367 -0.3428  0.1391 -0.4336
 7973TIP3    H145410   1.976   3.937  14.438 -0.2863  0.3915 -0.5947
 7973TIP3    H245411   2.106   3.889  14.377 -0.2825 -3.0436  1.8945
 7974TIP3   OH245412   6.436   1.520   5.624  0.6809 -0.1579  0.1875
 7974TIP3    H145413   6.413   1.584   5.692 -0.6016 -0.0658 -0.3096
 7974TIP3    H245414   6.530   1.532   5.611  0.8765  0.1346  1.6131
 7975TIP3   OH245415   1.490   1.838  16.262 -0.6398  0.1765 -0.6584
 7975TIP3    H145416   1.539   1.855  16.181  0.1564 -0.0692 -0.2363
 7975TIP3    H245417   1.556   1.841  16.331 -1.0705 -1.0213 -0.1698
 7976TIP3   OH245418   1.957   2.572  11.807 -0.5284 -0.1383 -0.0722
 7976TIP3    H145419   1.865   2.586  11.784  0.3113  1.0649 -3.2777
 7976TIP3    H245420   1.993   2.524  11.732  1.3201 -1.2744  1.4536
 7977TIP3   OH245421   4.103   1.813   1.223  0.0008 -0.7668 -0.1423
 7977TIP3    H145422   4.098   1.843   1.132 -0.7581 -0.6428 -0.0701
 7977TIP3    H245423   4.192   1.834   1.251 -0.6307  1.9465  0.0824
 7978TIP3   OH245424   5.505   3.567   0.272  0.5340 -0.6014 -0.1576
 7978TIP3    H145425   5.594   3.532   0.273  0.7752 -1.1959 -6.1542
 7978TIP3    H245426   5.449   3.491   0.289  1.2400 -1.9079 -3.1000
 7979TIP3   OH245427   3.055   6.516  13.811  1.0074  0.5251  0.1776
 7979TIP3    H145428   2.999   6.502  13.734  1.9837 -0.8071 -0.3241
 7979TIP3    H245429   2.993   6.532  13.882 -0.1393 -2.0721 -0.1193
 7980TIP3   OH245430   1.691   2.845   5.717  0.3542 -0.0210 -0.1773
 7980TIP3    H145431   1.760   2.904   5.685  0.0660 -0.1190 -1.0085
 7980TIP3    H245432   1.610   2.883   5.682  0.0030 -0.0035  0.6484
 7981TIP3   OH245433   2.832   5.944   0.102 -0.0855  0.0824  0.8593
 7981TIP3    H145434   2.820   5.849   0.092  3.6228 -0.5386  0.7641
 7981TIP3    H245435   2.891   5.952   0.177  1.3606  2.1039 -0.3902
 7982TIP3   OH245436   1.537   3.656   2.288  0.6550  0.1641 -0.1792
 7982TIP3    H145437   1.588   3.662   2.369  1.9724  2.3405 -1.0908
 7982TIP3    H245438   1.448   3.682   2.314  0.4779 -1.4177  0.9726
 7983TIP3   OH245439   6.401   5.113   2.559 -0.0840  0.4026 -0.0523
 7983TIP3    H145440   6.462   5.177   2.594 -0.9139  1.5186 -0.5942
 7983TIP3    H245441   6.396   5.134   2.466 -0.1702 -0.6274 -0.2900
 7984TIP3   OH245442   6.002   6.052  12.444  0.5906  0.2682 -0.2222
 7984TIP3    H145443   6.093   6.036  12.469  0.5975  0.0859 -0.3608
 7984TIP3    H245444   5.993   6.147  12.446  0.9394  0.3147 -0.7526
 7985TIP3   OH245445   6.817   4.405  11.351  0.4215 -0.2614 -0.0401
 7985TIP3    H145446   6.744   4.416  11.290 -0.4627 -0.2325  0.9783
 7985TIP3    H245447   6.871   4.337  11.312  0.8668  1.0131 -1.7389
 7986TIP3   OH245448   6.748   2.007   3.236 -0.1434 -0.2655 -0.0821
 7986TIP3    H145449   6.689   1.932   3.244  1.0498 -1.1144  1.2413
 7986TIP3    H245450   6.805   2.001   3.313  2.4284 -0.1890 -1.8573
 7987TIP3   OH245451   3.447   1.908  13.403 -0.0927 -0.2136 -0.1791
 7987TIP3    H145452   3.414   1.903  13.493  0.5028  2.6753  0.3056
 7987TIP3    H245453   3.505   1.985  13.403  1.4139 -1.2199 -2.5930
 7988TIP3   OH245454   6.683   5.496  13.480 -0.3461 -0.6636  0.4026
 7988TIP3    H145455   6.669   5.408  13.446 -1.2006 -1.0694  1.7168
 7988TIP3    H245456   6.770   5.494  13.520  0.1329 -0.5451 -0.6042
 7989TIP3   OH245457   1.965   4.226   4.519 -0.0886  0.3045  0.0668
 7989TIP3    H145458   1.888   4.169   4.516  0.3735 -0.4206  1.1153
 7989TIP3    H245459   2.025   4.188   4.455 -0.3765  0.5346 -0.3434
 7990TIP3   OH245460   2.470   2.450  11.423  0.0477  0.1250 -0.1230
 7990TIP3    H145461   2.485   2.367  11.377 -2.1497  0.3843 -1.4331
 7990TIP3    H245462   2.434   2.423  11.508  0.2733 -0.2846 -0.1543
 7991TIP3   OH245463   2.064   1.352  14.393 -0.2490  0.4783  0.4091
 7991TIP3    H145464   2.109   1.423  14.439  0.7928 -0.1933  0.4432
 7991TIP3    H245465   2.120   1.276  14.405  0.5512  0.4368 -2.6463
 7992TIP3   OH245466   0.264   2.018  12.673  0.3825 -0.0473 -0.3342
 7992TIP3    H145467   0.175   1.996  12.645  0.3300 -0.7337  0.3305
 7992TIP3    H245468   0.301   1.935  12.703  0.1936  0.7164  2.2153
 7993TIP3   OH245469   4.052   3.867  17.111 -0.2361  0.0647  0.3101
 7993TIP3    H145470   4.118   3.810  17.072  0.0038 -0.2171  1.1078
 7993TIP3    H245471   4.020   3.920  17.038  0.6788  0.0161 -0.1432
 7994TIP3   OH245472   1.628   2.705  16.150 -0.4570 -0.0596  0.4336
 7994TIP3    H145473   1.550   2.717  16.095 -0.8888 -1.9757  0.5691
 7994TIP3    H245474   1.699   2.687  16.087  0.4317  3.5962  0.1430
 7995TIP3   OH245475   1.918   4.949  14.022  0.0438 -0.2854 -0.4562
 7995TIP3    H145476   1.856   4.897  14.073  0.5217  0.2500  0.7049
 7995TIP3    H245477   1.864   5.003  13.965 -0.5537 -0.0874  0.2841
 7996TIP3   OH245478   0.318   0.867  11.226  0.9274  0.1681 -0.2627
 7996TIP3    H145479   0.384   0.830  11.286  0.1580 -0.3733  0.2724
 7996TIP3    H245480   0.273   0.933  11.278  0.1101 -0.4554 -0.1482
 7997TIP3   OH245481   5.207   6.059  16.774  0.2902  0.3023 -0.2361
 7997TIP3    H145482   5.153   6.122  16.727  1.3171  0.1260 -1.7089
 7997TIP3    H245483   5.184   5.974  16.735  0.6481  0.0595  0.0738
 7998TIP3   OH245484   5.089   2.988   3.985 -0.2384  0.4345  0.0822
 7998TIP3    H145485   5.105   2.987   3.891 -0.7555 -0.9036 -0.0161
 7998TIP3    H245486   5.174   3.012   4.023  0.7050 -1.4898 -0.6358
 7999TIP3   OH245487   2.144   4.230   0.130 -0.3700 -0.5978 -0.3281
 7999TIP3    H145488   2.073   4.182   0.088  0.2122 -1.0799 -0.7780
 7999TIP3    H245489   2.217   4.168   0.132  0.3184  0.1769 -0.6796
 8000TIP3   OH245490   2.011   0.542  17.006 -1.1512 -0.4370 -0.6727
 8000TIP3    H145491   1.969   0.628  17.007 -2.0204 -0.7905  1.8817
 8000TIP3    H245492   1.964   0.493  16.939 -1.1120  0.8244 -1.6726
 8001TIP3   OH245493   3.269   3.771   0.633  0.0307 -0.1591  0.9014
 8001TIP3    H145494   3.309   3.792   0.549  0.5683  2.4329  1.7020
 8001TIP3    H245495   3.200   3.708   0.612  0.8299 -0.3990 -1.3004
 8002TIP3   OH245496   1.972   5.641  16.381  0.1572  0.0766 -0.2217
 8002TIP3    H145497   1.938   5.654  16.293  0.1404 -0.8020 -0.3468
 8002TIP3    H245498   1.895   5.621  16.434  0.0653  1.3257  0.1542
 8003TIP3   OH245499   2.745   3.436  16.421  0.0481  0.1200 -0.4093
 8003TIP3    H145500   2.816   3.500  16.420 -0.1930  0.4542  0.9538
 8003TIP3    H245501   2.776   3.366  16.479 -1.0074  0.6599  0.8847
 8004TIP3   OH245502   1.965   6.556   0.249  0.0182  0.0968 -0.3116
 8004TIP3    H145503   1.949   6.603   0.331  1.5465 -1.0603  0.7139
 8004TIP3    H245504   1.878   6.535   0.216 -0.6489  0.0360  1.3794
 8005TIP3   OH245505   5.668   2.976  12.843  0.4362 -0.0176  0.0913
 8005TIP3    H145506   5.631   2.975  12.931 -0.2278  0.3565 -0.1814
 8005TIP3    H245507   5.597   3.006  12.787 -0.3755 -3.8217 -1.1543
 8006TIP3   OH245508   2.451   6.733  15.080 -0.4200 -0.2463  0.5338
 8006TIP3    H145509   2.406   6.656  15.047 -3.1883  0.5862  2.0582
 8006TIP3    H245510   2.422   6.805  15.024  0.6188  0.0369  0.3262
 8007TIP3   OH245511   3.376   6.840  16.322 -0.3008  0.2291  0.2951
 8007TIP3    H145512   3.290   6.859  16.285 -0.3911 -0.8124 -0.0568
 8007TIP3    H245513   3.380   6.893  16.401 -1.3760  0.0839  0.4609
 8008TIP3   OH245514   3.081   2.129  14.796  0.5560  0.4423 -0.0376
 8008TIP3    H145515   3.009   2.069  14.818  0.5746 -0.2259 -1.6923
 8008TIP3    H245516   3.056   2.166  14.711  3.3625 -1.8660 -2.0648
 8009TIP3   OH245517   5.817   3.604  15.386  0.2337  0.5012 -0.1535
 8009TIP3    H145518   5.766   3.654  15.322 -0.2268 -2.0179 -1.9235
 8009TIP3    H245519   5.751   3.557  15.437  0.6906 -0.0018 -0.0198
 8010TIP3   OH245520   4.657   5.224   6.864  0.0382 -0.0130 -0.2030
 8010TIP3    H145521   4.574   5.233   6.911 -0.5334 -0.2524 -1.1300
 8010TIP3    H245522   4.702   5.152   6.910 -1.4206 -1.6858 -1.2432
 8011TIP3   OH245523   5.793   6.716   3.872 -0.1259 -0.0841 -0.0892
 8011TIP3    H145524   5.876   6.673   3.890 -0.0604 -0.7649 -1.7962
 8011TIP3    H245525   5.734   6.645   3.847 -0.6137  0.5902 -0.9040
 8012TIP3   OH245526   1.805   1.718   5.543  0.1458  0.1780 -0.1635
 8012TIP3    H145527   1.743   1.745   5.475 -0.1334  1.4939  0.5826
 8012TIP3    H245528   1.755   1.657   5.597  0.1248 -0.2627 -0.6656
 8013TIP3   OH245529   2.867   4.447   1.170 -0.1274  0.2458  0.6454
 8013TIP3    H145530   2.797   4.401   1.216 -0.9841  2.5010  1.6929
 8013TIP3    H245531   2.924   4.481   1.239  0.3780  0.9421 -0.0911
 8014TIP3   OH245532   3.832   2.603  12.298 -0.3725 -0.4069 -0.1514
 8014TIP3    H145533   3.766   2.534  12.308  1.0020 -2.0123 -1.5696
 8014TIP3    H245534   3.907   2.571  12.349  0.9409 -0.9163 -2.2963
 8015TIP3   OH245535   5.920   2.641   5.394 -0.3417 -0.0311  0.2264
 8015TIP3    H145536   6.006   2.619   5.357 -0.5165 -0.9789  0.3517
 8015TIP3    H245537   5.870   2.560   5.387 -0.2077 -0.4797  3.0004
 8016TIP3   OH245538   2.789   3.924   1.531  0.9289 -0.1585  0.3607
 8016TIP3    H145539   2.798   3.991   1.599  0.8882 -0.1237  0.3318
 8016TIP3    H245540   2.879   3.908   1.501  0.9139  0.0683  0.1906
 8017TIP3   OH245541   4.582   2.458   3.929  0.4102  0.7202  0.1466
 8017TIP3    H145542   4.551   2.437   4.017 -2.2316 -1.5343 -1.1549
 8017TIP3    H245543   4.671   2.422   3.925 -0.2576 -1.1717  1.2477
 8018TIP3   OH245544   4.126   5.907  13.848  0.0886  0.3488  0.1125
 8018TIP3    H145545   4.115   5.814  13.828  0.1045  0.0555  1.4080
 8018TIP3    H245546   4.220   5.919  13.857  0.0306  0.2658  0.9156
 8019TIP3   OH245547   1.935   0.667  10.892  0.1676  0.7097 -0.4276
 8019TIP3    H145548   2.023   0.705  10.892  0.8556 -0.7073  1.0954
 8019TIP3    H245549   1.930   0.621  10.809  2.0299 -1.4649  0.5269
 8020TIP3   OH245550   2.704   5.590  12.513 -0.4278  0.3316  0.8119
 8020TIP3    H145551   2.691   5.521  12.578  0.2697 -0.9512 -0.3430
 8020TIP3    H245552   2.617   5.601  12.473 -0.1183 -1.6125 -0.5791
 8021TIP3   OH245553   1.979   4.865  15.255  0.5657 -0.1906  0.2879
 8021TIP3    H145554   1.891   4.891  15.281 -0.4846 -1.2855 -1.8810
 8021TIP3    H245555   2.009   4.807  15.325 -0.8209 -0.5347  0.6173
 8022TIP3   OH245556   5.464   0.803  14.299 -0.3260 -0.1357 -0.2139
 8022TIP3    H145557   5.544   0.774  14.343  0.5469  2.5869  0.2316
 8022TIP3    H245558   5.421   0.860  14.364 -2.3493 -1.0821 -0.6655
 8023TIP3   OH245559   6.131   4.434   1.727 -0.5652  0.4617 -0.1588
 8023TIP3    H145560   6.223   4.427   1.702 -0.6323 -1.3992 -0.0091
 8023TIP3    H245561   6.122   4.524   1.760  1.3241  0.5039  0.3534
 8024TIP3   OH245562   0.490   0.031  16.789 -0.0860 -0.3562  0.5477
 8024TIP3    H145563   0.521   0.017  16.878  2.2566  2.0777  0.2449
 8024TIP3    H245564   0.562   0.004  16.733 -0.8812 -0.3159 -0.5337
 8025TIP3   OH245565   6.096   3.647   1.439 -0.5050 -0.2082  0.1026
 8025TIP3    H145566   6.186   3.672   1.460 -0.5432  1.3399 -1.2920
 8025TIP3    H245567   6.044   3.724   1.464 -0.8973  0.5152 -2.5549
 8026TIP3   OH245568   6.640   5.157  16.313  0.3115 -0.1899  0.3049
 8026TIP3    H145569   6.734   5.169  16.332  0.6415  0.0692 -1.3063
 8026TIP3    H245570   6.638   5.084  16.251 -0.6003 -0.4396  0.6215
 8027TIP3   OH245571   1.793   6.356  12.038 -0.2170 -0.2304  0.2709
 8027TIP3    H145572   1.733   6.349  12.112  0.3656 -0.8334  0.7069
 8027TIP3    H245573   1.860   6.418  12.067  0.3350 -0.9127  0.4962
 8028TIP3   OH245574   3.469   6.573  16.363 -0.8228  0.1540  0.2338
 8028TIP3    H145575   3.421   6.656  16.367  1.6462  1.6160  2.1829
 8028TIP3    H245576   3.443   6.526  16.442 -1.0371 -0.3004 -0.0942
 8029TIP3   OH245577   2.202   2.423   5.804  0.1644  0.5427  0.3096
 8029TIP3    H145578   2.239   2.336   5.816 -0.0573  0.2071 -1.1772
 8029TIP3    H245579   2.140   2.413   5.731  0.4377  2.0177 -0.1734
 8030TIP3   OH245580   5.580   3.894   3.419 -0.0688 -0.5557  0.2337
 8030TIP3    H145581   5.655   3.857   3.465  0.5658  0.0083 -0.3094
 8030TIP3    H245582   5.562   3.831   3.349 -0.0566 -0.6708  0.3357
 8031TIP3   OH245583   5.587   2.240  13.214 -0.3979  0.0665  0.7022
 8031TIP3    H145584   5.613   2.331  13.198  2.7144 -0.7819  0.3959
 8031TIP3    H245585   5.594   2.229  13.309  0.2470 -0.1193  0.6358
 8032TIP3   OH245586   6.816   1.270   0.735 -0.3183  0.2095  0.6430
 8032TIP3    H145587   6.745   1.285   0.673 -0.2550 -0.1044  0.4952
 8032TIP3    H245588   6.896   1.291   0.687 -0.2516 -0.2879  0.5352
 8033TIP3   OH245589   5.775   0.284  12.876 -0.0108 -0.0123 -0.4968
 8033TIP3    H145590   5.728   0.355  12.921 -2.0641 -2.2658  1.1703
 8033TIP3    H245591   5.835   0.249  12.943 -0.7191 -1.3179 -0.5233
 8034TIP3   OH245592   3.788   5.011   4.121  0.2369  0.8568  0.0450
 8034TIP3    H145593   3.882   5.000   4.105  0.0867 -0.1921 -0.1917
 8034TIP3    H245594   3.783   5.056   4.205  0.9436 -0.1781  0.6561
 8035TIP3   OH245595   4.175   0.654   5.586 -0.9463 -0.5161 -0.0670
 8035TIP3    H145596   4.085   0.633   5.611 -0.9100 -1.1439 -0.4388
 8035TIP3    H245597   4.166   0.709   5.508 -1.0487  1.1139  1.0497
 8036TIP3   OH245598   5.574   2.641   2.975 -0.9431  0.7371 -0.1002
 8036TIP3    H145599   5.498   2.585   2.992 -1.1498  0.6758 -1.1754
 8036TIP3    H245600   5.542   2.709   2.916 -0.0865  0.4957 -0.8673
 8037TIP3   OH245601   5.433   6.283   4.668 -0.6762 -0.2165 -0.1174
 8037TIP3    H145602   5.417   6.196   4.631 -1.1825 -0.4142  0.5590
 8037TIP3    H245603   5.505   6.270   4.730 -0.2110  0.0084 -0.6004
 8038TIP3   OH245604   2.766   1.263   5.737 -0.3606 -0.1793  0.2055
 8038TIP3    H145605   2.850   1.237   5.700 -1.2777 -2.8154 -0.2014
 8038TIP3    H245606   2.703   1.253   5.665 -1.4056 -0.7447  1.1636
 8039TIP3   OH245607   0.572   5.824  17.036  0.2254  0.2177 -0.0726
 8039TIP3    H145608   0.616   5.904  17.067  1.9527  0.1816 -2.1948
 8039TIP3    H245609   0.484   5.853  17.012  0.3445  1.1617  0.5598
 8040TIP3   OH245610   3.282   1.728   4.844 -0.0145 -0.1564  0.2717
 8040TIP3    H145611   3.368   1.687   4.839  0.7312  1.3189  0.3916
 8040TIP3    H245612   3.294   1.814   4.804 -1.1935  0.4482  1.1449
 8041TIP3   OH245613   4.419   6.815  15.110 -0.0937 -0.4262 -0.1858
 8041TIP3    H145614   4.423   6.724  15.079  0.6601 -0.6374  0.5077
 8041TIP3    H245615   4.330   6.843  15.087 -0.2591 -1.2553 -0.6317
 8042TIP3   OH245616   6.442   4.958  16.189  0.0421 -0.1617 -0.2410
 8042TIP3    H145617   6.347   4.952  16.187 -0.1350  1.9095 -0.1930
 8042TIP3    H245618   6.472   4.890  16.129 -1.5071 -0.1739 -1.0286
 8043TIP3   OH245619   5.457   2.251   2.812  0.3058 -0.0315  0.2364
 8043TIP3    H145620   5.384   2.287   2.863 -0.1302  0.1566 -0.4963
 8043TIP3    H245621   5.417   2.227   2.728  1.0263 -0.2344 -0.0513
 8044TIP3   OH245622   4.957   0.535  12.393  0.2474 -0.2827 -0.0011
 8044TIP3    H145623   5.037   0.588  12.385  0.5029 -0.5851  0.4603
 8044TIP3    H245624   4.972   0.460  12.336  1.3529 -1.5828  1.8745
 8045TIP3   OH245625   6.073   4.653  11.058  0.5242 -0.1737  0.0689
 8045TIP3    H145626   6.146   4.625  11.002  0.0314 -1.0464 -0.1591
 8045TIP3    H245627   6.043   4.735  11.019  0.8015 -0.2816 -0.3832
 8046TIP3   OH245628   6.604   5.340   6.493  0.1016 -0.0980 -0.1826
 8046TIP3    H145629   6.636   5.406   6.555 -2.0274  1.5961 -0.8013
 8046TIP3    H245630   6.658   5.352   6.415  0.3149  0.2910  0.0202
 8047TIP3   OH245631   3.229   3.385   5.601 -0.3429  0.3039  0.7157
 8047TIP3    H145632   3.229   3.411   5.694 -2.9032 -0.3480  0.9772
 8047TIP3    H245633   3.138   3.397   5.573  0.2144 -0.2463 -1.5197
 8048TIP3   OH245634   5.396   1.090   0.571 -0.5013  0.3387  0.3452
 8048TIP3    H145635   5.365   1.178   0.592 -0.2686  0.3390  0.6977
 8048TIP3    H245636   5.317   1.038   0.560 -0.6392  0.2963  1.4127
 8049TIP3   OH245637   4.507   2.334   1.658 -0.0172  0.3274 -0.2650
 8049TIP3    H145638   4.429   2.337   1.602  0.1917 -0.0389 -0.5834
 8049TIP3    H245639   4.567   2.397   1.620 -0.3363  0.9597  0.2617
 8050TIP3   OH245640   6.337   4.790  13.802 -0.0067 -0.0385 -0.5251
 8050TIP3    H145641   6.267   4.828  13.749  2.2005  2.1834 -2.0990
 8050TIP3    H245642   6.293   4.753  13.878 -2.8574  1.1491 -1.4758
 8051TIP3   OH245643   2.874   5.580   1.681 -0.8857  0.2274  0.0915
 8051TIP3    H145644   2.824   5.508   1.642 -1.0024 -0.7365  1.9329
 8051TIP3    H245645   2.928   5.613   1.608 -1.6741 -0.9506 -1.0807
 8052TIP3   OH245646   6.409   1.721  12.130  0.1476  0.2773 -0.5777
 8052TIP3    H145647   6.399   1.642  12.182 -1.4366  0.4719 -0.5391
 8052TIP3    H245648   6.484   1.703  12.073  1.5934 -0.1230  1.3733
 8053TIP3   OH245649   5.512   5.435  15.868  0.1607  0.5240  0.2520
 8053TIP3    H145650   5.580   5.452  15.803 -0.0703 -1.5717 -0.6095
 8053TIP3    H245651   5.430   5.440  15.818  0.0698 -3.0994 -0.2455
 8054TIP3   OH245652   3.665   3.629   1.231  0.6089 -0.4740  0.3644
 8054TIP3    H145653   3.637   3.538   1.219 -0.3515 -0.4313  1.9954
 8054TIP3    H245654   3.687   3.635   1.324 -2.0511  1.6558  0.9885
 8055TIP3   OH245655   2.722   3.864   5.345  0.2883 -0.1416  0.2352
 8055TIP3    H145656   2.710   3.921   5.421  1.0086  1.8940 -1.0928
 8055TIP3    H245657   2.748   3.924   5.275  1.1544 -2.1503 -1.2301
 8056TIP3   OH245658   4.797   1.971  13.330 -0.2003  1.2801 -0.2561
 8056TIP3    H145659   4.880   1.949  13.286  0.5773  2.1329  0.7171
 8056TIP3    H245660   4.797   1.915  13.408 -1.2563  0.2407 -0.9816
 8057TIP3   OH245661   4.022   6.266   3.930  0.3676  0.1382  0.2348
 8057TIP3    H145662   4.044   6.228   3.845  0.9095 -1.9586  1.2254
 8057TIP3    H245663   4.071   6.348   3.933 -0.0249  0.4892 -1.6176
 8058TIP3   OH245664   0.649   0.004   3.438  0.1487 -0.8166  0.0803
 8058TIP3    H145665   0.645   0.099   3.439 -2.9385 -0.8485  0.3173
 8058TIP3    H245666   0.742  -0.016   3.448  1.0532  2.1416 -1.2449
 8059TIP3   OH245667   6.506   3.360  10.749 -0.4548  0.2328  0.2047
 8059TIP3    H145668   6.584   3.413  10.731 -0.3080 -0.3304 -0.8719
 8059TIP3    H245669   6.451   3.372  10.672 -0.8484 -0.4228  0.3774
 8060TIP3   OH245670   2.312   1.739  12.807 -0.3348  0.0711 -0.5451
 8060TIP3    H145671   2.327   1.734  12.901 -3.5842 -0.7256  0.0492
 8060TIP3    H245672   2.399   1.745  12.769  1.1044 -0.1090  2.4676
 8061TIP3   OH245673   1.518   6.100   1.596  0.2250  0.4785 -0.3144
 8061TIP3    H145674   1.475   6.147   1.525  0.4883  1.1717 -0.0315
 8061TIP3    H245675   1.461   6.025   1.614 -0.5329  1.0218 -0.3777
 8062TIP3   OH245676   1.977   1.362  13.423  0.8973  0.4242 -0.2039
 8062TIP3    H145677   1.928   1.443  13.413 -1.4845 -0.9843 -0.6319
 8062TIP3    H245678   2.049   1.370  13.360  2.1387  3.1168  1.3928
 8063TIP3   OH245679   0.920   6.032  15.680 -0.3191  0.1825  0.4893
 8063TIP3    H145680   0.845   5.972  15.681  0.8151 -1.2752  1.0254
 8063TIP3    H245681   0.960   6.022  15.766  0.5545  0.8971  0.1858
 8064TIP3   OH245682   6.509   3.614   0.401 -0.7018  0.1129  0.1148
 8064TIP3    H145683   6.555   3.593   0.483 -0.7798 -1.1244 -0.1355
 8064TIP3    H245684   6.440   3.674   0.427  0.3351  1.0845  0.6828
 8065TIP3   OH245685   6.737   3.657   2.559  0.1154  0.5967  0.4948
 8065TIP3    H145686   6.761   3.632   2.648  1.2643  0.6301  0.2110
 8065TIP3    H245687   6.726   3.574   2.513 -1.6982  0.5447  0.9437
 8066TIP3   OH245688   1.257   5.954   4.315 -0.2049  0.1693  0.1239
 8066TIP3    H145689   1.268   5.961   4.220  0.2573 -0.0094  0.1629
 8066TIP3    H245690   1.179   5.899   4.326  0.6265 -1.0982 -0.1494
 8067TIP3   OH245691   0.721   1.681   0.587  0.7559 -0.4390  0.0084
 8067TIP3    H145692   0.813   1.654   0.595  1.2532  0.3844 -2.2115
 8067TIP3    H245693   0.725   1.766   0.542 -0.9970  0.8697  2.1000
 8068TIP3   OH245694   1.436   2.411  11.755  0.0520  0.1609 -0.6977
 8068TIP3    H145695   1.460   2.504  11.758 -0.1232  0.2965 -2.3273
 8068TIP3    H245696   1.418   2.387  11.846  0.4074  1.6383 -0.2139
 8069TIP3   OH245697   0.083   6.832  10.264  0.2602  0.4518 -0.1547
 8069TIP3    H145698   0.138   6.907  10.239  1.7887 -0.4784  0.2862
 8069TIP3    H245699   0.117   6.760  10.212 -0.5858 -0.1484  0.1106
 8070TIP3   OH245700   5.392   3.511  15.555 -0.3311 -0.2535  0.3661
 8070TIP3    H145701   5.401   3.416  15.544 -0.8041 -0.4679  1.6747
 8070TIP3    H245702   5.355   3.541  15.472 -1.2520 -1.3704  0.3515
 8071TIP3   OH245703   2.005   5.798   0.483 -0.2222  0.3763  0.2515
 8071TIP3    H145704   2.012   5.803   0.578  0.5404 -0.3998  0.2556
 8071TIP3    H245705   1.919   5.760   0.467  0.1591 -0.7254  0.7006
 8072TIP3   OH245706   2.933   6.083  13.868 -0.2442  0.7754 -0.5666
 8072TIP3    H145707   2.847   6.106  13.903 -1.2982 -2.3432 -0.8122
 8072TIP3    H245708   2.926   5.990  13.845  2.6167  0.8704 -2.3876
 8073TIP3   OH245709   6.005   3.410   6.375 -0.2767  0.1424 -0.6585
 8073TIP3    H145710   6.099   3.398   6.387 -0.4592 -0.6469  0.1053
 8073TIP3    H245711   5.991   3.504   6.385  0.5172  0.3663 -1.5194
 8074TIP3   OH245712   3.494   1.539   1.761  0.6914  0.3364 -0.3610
 8074TIP3    H145713   3.513   1.523   1.853 -0.1932 -1.9494 -0.5047
 8074TIP3    H245714   3.413   1.590   1.762  0.0151 -0.7021  0.1624
 8075TIP3   OH245715   4.376   4.725   4.267 -0.1469  0.1318 -0.2690
 8075TIP3    H145716   4.377   4.802   4.323 -0.5197  0.5416 -0.8110
 8075TIP3    H245717   4.458   4.680   4.286 -0.1197  0.4338  0.3560
 8076TIP3   OH245718   3.938   2.103  12.320  0.1231 -0.2082  0.2389
 8076TIP3    H145719   3.924   2.073  12.409 -0.9357 -0.6324 -0.0569
 8076TIP3    H245720   3.962   2.195  12.329  0.8522 -0.4541  0.9964
 8077TIP3   OH245721   0.737   6.252   0.304 -0.1414  0.1127  0.0346
 8077TIP3    H145722   0.790   6.327   0.278  0.7293 -0.1651  0.9581
 8077TIP3    H245723   0.656   6.262   0.253  1.2886 -0.2056 -2.4753
 8078TIP3   OH245724   4.425   0.585  10.737  0.2441  0.1730 -0.0513
 8078TIP3    H145725   4.431   0.518  10.805 -0.2959  0.2306  0.0558
 8078TIP3    H245726   4.507   0.576  10.687  0.2904 -0.3916  0.1192
 8079TIP3   OH245727   4.423   1.382  11.382 -0.0415 -0.0728 -0.6752
 8079TIP3    H145728   4.372   1.304  11.357  2.1515 -2.3583  1.3947
 8079TIP3    H245729   4.359   1.440  11.423 -1.6192 -1.1844 -1.4546
 8080TIP3   OH245730   3.168   1.419  15.340 -0.0365  0.6010  0.1029
 8080TIP3    H145731   3.134   1.440  15.427  0.2776 -2.1266  0.9546
 8080TIP3    H245732   3.263   1.422  15.349 -0.0009  0.3768 -0.1739
 8081TIP3   OH245733   3.115   2.173   1.411 -0.2980 -0.3907 -0.0701
 8081TIP3    H145734   3.185   2.228   1.447 -0.2494  0.3725 -1.2612
 8081TIP3    H245735   3.142   2.157   1.320 -0.8108 -1.5653 -0.0284
 8082TIP3   OH245736   0.389   4.147   2.215 -0.0819  0.5626 -0.1138
 8082TIP3    H145737   0.322   4.170   2.151  0.5470  0.8456 -0.6755
 8082TIP3    H245738   0.429   4.230   2.238  1.4511  0.1901 -1.3114
 8083TIP3   OH245739   0.888   3.059  10.222 -0.2820  0.3289 -0.4072
 8083TIP3    H145740   0.878   2.971  10.260 -0.5050  0.4523 -0.1739
 8083TIP3    H245741   0.979   3.082  10.240 -0.5076  0.5740  0.4718
 8084TIP3   OH245742   0.805   6.042  16.747  0.2865  0.6508  0.3747
 8084TIP3    H145743   0.871   6.044  16.817  0.0170  0.5434  0.6336
 8084TIP3    H245744   0.727   6.080  16.786 -0.9609 -2.5511  1.2888
 8085TIP3   OH245745   1.937   2.242   6.159 -0.0634  0.2053  0.1648
 8085TIP3    H145746   1.958   2.174   6.222 -0.8030  0.0409  0.2447
 8085TIP3    H245747   1.917   2.195   6.078 -0.2649  0.3443  0.1325
 8086TIP3   OH245748   2.295   4.435  15.602  0.3141 -0.2800  0.3649
 8086TIP3    H145749   2.384   4.471  15.595  0.6088 -0.8049  1.1994
 8086TIP3    H245750   2.249   4.496  15.659  0.4802 -0.6013  0.8530
 8087TIP3   OH245751   2.644   4.121  15.089 -0.0873 -0.1990  0.4014
 8087TIP3    H145752   2.587   4.154  15.159  0.2954  0.7811  0.2673
 8087TIP3    H245753   2.732   4.148  15.115 -0.1250  1.9175 -1.3637
 8088TIP3   OH245754   2.463   4.661  16.024 -0.4513  0.6749 -0.0276
 8088TIP3    H145755   2.527   4.691  15.960 -0.6483  0.1752 -0.4611
 8088TIP3    H245756   2.437   4.574  15.994 -2.5110  1.4751 -0.7606
 8089TIP3   OH245757   5.590   5.017   6.182 -0.6477 -0.0125 -0.3929
 8089TIP3    H145758   5.607   5.054   6.269 -0.3345 -0.6696 -0.1624
 8089TIP3    H245759   5.514   5.065   6.150 -0.7167  0.2979  0.2137
 8090TIP3   OH245760   6.807   6.292  15.226  0.3397  0.0530  0.4138
 8090TIP3    H145761   6.840   6.206  15.199 -0.2954 -0.2941  0.7130
 8090TIP3    H245762   6.881   6.334  15.269  0.1883 -1.0402  1.8268
 8091TIP3   OH245763   2.905   6.347   6.247 -0.2255  0.3468  0.0662
 8091TIP3    H145764   2.968   6.387   6.307 -0.2695 -1.3140  1.2788
 8091TIP3    H245765   2.905   6.254   6.270 -1.7877  0.0090 -1.1214
 8092TIP3   OH245766   6.482   5.084  16.509 -0.2098  0.3511  0.3188
 8092TIP3    H145767   6.545   5.106  16.440  0.6274 -0.4144  0.8086
 8092TIP3    H245768   6.482   4.989  16.511 -0.4087  0.3654  1.2106
 8093TIP3   OH245769   2.917   6.029  12.414 -0.1790 -0.6884  0.7452
 8093TIP3    H145770   3.007   6.038  12.446 -0.0740 -1.4976  0.6968
 8093TIP3    H245771   2.922   5.959  12.349 -0.7738 -0.4555  0.4444
 8094TIP3   OH245772   6.622   2.785  14.369 -0.0839 -0.1153 -0.4124
 8094TIP3    H145773   6.543   2.828  14.337 -0.2894  0.6167  1.0221
 8094TIP3    H245774   6.591   2.706  14.413  0.1239 -0.5967 -1.0993
 8095TIP3   OH245775   1.196   6.847   5.068  0.2100 -0.0817  0.1704
 8095TIP3    H145776   1.286   6.879   5.072 -0.0495  0.7005  0.0962
 8095TIP3    H245777   1.160   6.887   4.988 -0.2336 -0.2883  0.2628
 8096TIP3   OH245778   1.325   2.939   4.309 -0.0865 -0.3578 -0.2990
 8096TIP3    H145779   1.343   2.880   4.382  2.0719 -0.3135 -0.7426
 8096TIP3    H245780   1.285   2.883   4.242  0.3432 -0.9590 -0.0632
 8097TIP3   OH245781   0.634   4.656   4.928  0.1029 -0.3383  0.1107
 8097TIP3    H145782   0.607   4.643   5.019  2.4127 -0.7604  0.7971
 8097TIP3    H245783   0.701   4.723   4.932  0.3861 -0.4989 -1.2765
 8098TIP3   OH245784   6.083   0.080   2.068  0.1814  0.3496  0.2802
 8098TIP3    H145785   6.119   0.148   2.012  0.9183 -0.4074 -0.1884
 8098TIP3    H245786   6.149   0.011   2.068 -2.1689 -2.1588 -2.4986
 8099TIP3   OH245787   4.137   4.611   2.759  0.6172 -0.4174 -0.2458
 8099TIP3    H145788   4.063   4.568   2.802 -0.7609  1.7508 -0.2898
 8099TIP3    H245789   4.103   4.639   2.675  0.8230  2.2606  0.4568
 8100TIP3   OH245790   2.125   0.536  12.258  0.4390  0.1358 -0.4269
 8100TIP3    H145791   2.047   0.552  12.312  1.1551  2.0551  0.1103
 8100TIP3    H245792   2.181   0.482  12.314  0.7947  1.3712  0.4602
 8101TIP3   OH245793   0.595   1.606  15.406  0.7230 -0.1290  0.6730
 8101TIP3    H145794   0.614   1.695  15.436 -1.9834  1.2707 -1.3361
 8101TIP3    H245795   0.511   1.585  15.447  0.1508 -0.7507 -0.7792
 8102TIP3   OH245796   6.716   1.756  13.761  0.0832 -0.4457  0.0361
 8102TIP3    H145797   6.800   1.754  13.806 -0.1436  0.5948  0.5259
 8102TIP3    H245798   6.701   1.665  13.734  0.9523 -0.7916  0.6820
 8103TIP3   OH245799   6.227   4.581  16.153  0.1206 -0.9754 -0.0060
 8103TIP3    H145800   6.163   4.635  16.200 -0.1943 -0.9681 -0.4326
 8103TIP3    H245801   6.277   4.538  16.221  0.1191 -0.4409  0.3386
 8104TIP3   OH245802   5.365   6.386   3.719 -0.3004  0.8726  0.1552
 8104TIP3    H145803   5.312   6.457   3.684 -1.2919  0.1435  0.1468
 8104TIP3    H245804   5.311   6.346   3.787 -0.9153 -1.5618 -1.6530
 8105TIP3   OH245805   3.556   4.547   1.202 -0.1271 -0.3283 -0.1478
 8105TIP3    H145806   3.638   4.502   1.180  0.6904  0.7397  0.6023
 8105TIP3    H245807   3.560   4.630   1.155 -1.9395 -1.2585 -2.0771
 8106TIP3   OH245808   5.623   5.154   2.427  0.2641 -0.4337  0.3149
 8106TIP3    H145809   5.588   5.217   2.490  2.8569  2.1312 -0.5752
 8106TIP3    H245810   5.567   5.165   2.350  0.6662  0.8392  0.1801
 8107TIP3   OH245811   2.448   0.376   1.356 -0.1848  0.1339  0.7129
 8107TIP3    H145812   2.494   0.382   1.439  0.4853  1.1559  0.2771
 8107TIP3    H245813   2.438   0.466   1.327 -2.8781  0.0198  0.9981
 8108TIP3   OH245814   2.008   1.886  16.367 -0.0314  0.5073  0.0566
 8108TIP3    H145815   2.059   1.923  16.295  0.9553 -0.8703 -0.0023
 8108TIP3    H245816   1.982   1.961  16.420 -2.1633  1.7321 -2.5551
 8109TIP3   OH245817   5.065   1.590  16.851 -0.1917 -0.0434  0.0035
 8109TIP3    H145818   5.059   1.585  16.947 -1.2427 -0.3758 -0.0649
 8109TIP3    H245819   5.039   1.680  16.831 -0.4881 -0.1263  0.0062
 8110TIP3   OH245820   2.782   0.939   4.042  0.1382  0.5602  0.4920
 8110TIP3    H145821   2.796   0.911   4.132 -1.7841  0.9823  0.9560
 8110TIP3    H245822   2.723   0.874   4.005  1.0460  0.2914 -0.5477
 8111TIP3   OH245823   6.024   1.846  14.605  0.5083  0.2801 -0.4261
 8111TIP3    H145824   6.057   1.873  14.519 -0.0353 -1.2634 -1.1549
 8111TIP3    H245825   6.095   1.794  14.642 -0.7318 -2.5627 -1.7559
 8112TIP3   OH245826   6.247   2.642   2.587  0.4680  0.5612 -0.1635
 8112TIP3    H145827   6.313   2.640   2.517  0.0739  0.4157 -0.5402
 8112TIP3    H245828   6.295   2.618   2.666  0.4640 -1.7582 -0.7782
 8113TIP3   OH245829   3.915   4.797   5.976  0.1563  0.4602 -0.5491
 8113TIP3    H145830   3.897   4.765   6.065  0.5831 -0.0303 -0.6352
 8113TIP3    H245831   3.908   4.892   5.983  0.0836  0.4199 -0.0119
 8114TIP3   OH245832   4.458   0.864  15.873 -0.5662 -0.0289 -0.1163
 8114TIP3    H145833   4.518   0.821  15.935  0.2223  1.7712  0.4506
 8114TIP3    H245834   4.371   0.838  15.903 -0.1462 -3.1180 -1.2657
 8115TIP3   OH245835   2.153   2.207  11.551 -0.2562  0.2376 -1.4039
 8115TIP3    H145836   2.201   2.192  11.470  0.2025  1.1318 -1.3085
 8115TIP3    H245837   2.198   2.153  11.616 -0.4407 -0.2448 -1.6719
 8116TIP3   OH245838   4.225   5.752   1.979  0.3828 -0.1205  0.6683
 8116TIP3    H145839   4.255   5.842   1.977  0.4778 -0.0794  2.4950
 8116TIP3    H245840   4.258   5.714   1.897  2.0661  0.9537  0.8159
 8117TIP3   OH245841   6.706   1.619  11.231  0.1405 -0.6372 -0.1080
 8117TIP3    H145842   6.731   1.633  11.322 -0.2443  1.8905 -0.3146
 8117TIP3    H245843   6.619   1.581  11.236 -0.3438  0.5042  0.6183
 8118TIP3   OH245844   5.455   2.062   3.660 -0.1586 -0.3194  0.1516
 8118TIP3    H145845   5.517   1.990   3.677 -2.2137 -1.6581  2.6765
 8118TIP3    H245846   5.427   2.048   3.570  0.5318 -1.8976  0.1441
 8119TIP3   OH245847   5.324   5.861   0.037  0.0056  0.4177 -0.1773
 8119TIP3    H145848   5.328   5.898   0.126  0.2112  0.8745 -0.3732
 8119TIP3    H245849   5.302   5.936  -0.019  1.0975  0.3893 -0.6690
 8120TIP3   OH245850   4.381   0.102  16.089 -0.3468  0.2656  0.2674
 8120TIP3    H145851   4.456   0.043  16.083  0.2963  1.0527  0.3700
 8120TIP3    H245852   4.398   0.168  16.021  0.4590  1.9990  2.0710
 8121TIP3   OH245853   1.087   3.670   0.614  0.2174 -0.1004 -0.3397
 8121TIP3    H145854   1.030   3.714   0.678  1.2531 -1.7913  1.8893
 8121TIP3    H245855   1.082   3.577   0.636 -1.3751 -1.1997 -4.4701
 8122TIP3   OH245856   3.461   1.539   0.873 -0.4370 -0.1507 -0.2744
 8122TIP3    H145857   3.506   1.603   0.928  1.1683 -1.3005 -0.1753
 8122TIP3    H245858   3.425   1.476   0.935  0.3152 -0.7827 -0.4685
 8123TIP3   OH245859   5.833   1.650   0.392 -0.0463 -0.6146 -0.0433
 8123TIP3    H145860   5.753   1.604   0.415  0.0076 -0.9417 -0.5030
 8123TIP3    H245861   5.900   1.613   0.450  0.3384 -2.2704 -1.4705
 8124TIP3   OH245862   1.745   1.425   4.398  0.4695 -0.0793  0.5411
 8124TIP3    H145863   1.817   1.400   4.339 -1.0935 -0.2273 -1.3974
 8124TIP3    H245864   1.767   1.514   4.425  0.8699  0.2960 -0.9166
 8125TIP3   OH245865   4.728   5.470   6.258 -0.5164 -0.0665  0.0086
 8125TIP3    H145866   4.679   5.389   6.249  3.0842 -2.3214 -1.8492
 8125TIP3    H245867   4.819   5.441   6.269  0.8193  3.7425  0.3530
 8126TIP3   OH245868   1.024   1.190  15.738  0.2903  0.8428 -0.1228
 8126TIP3    H145869   0.961   1.254  15.706 -0.0630  0.3734 -0.3845
 8126TIP3    H245870   1.110   1.225  15.714  0.0186 -0.1140 -2.7903
 8127TIP3   OH245871   0.124   5.264   2.632 -0.4492  0.1528 -0.1011
 8127TIP3    H145872   0.177   5.278   2.554 -0.1499  1.5466  0.3355
 8127TIP3    H245873   0.103   5.351   2.663 -0.5739 -0.3744  1.3671
 8128TIP3   OH245874   1.546   6.354  10.870  0.1483 -0.0659  0.1050
 8128TIP3    H145875   1.573   6.286  10.932  2.6824  0.2138 -0.5735
 8128TIP3    H245876   1.627   6.401  10.850 -0.9046  0.9199 -2.1316
 8129TIP3   OH245877   0.608   5.670  13.428 -0.1453 -0.5043 -0.2169
 8129TIP3    H145878   0.680   5.688  13.488  0.0739 -0.2288 -0.5561
 8129TIP3    H245879   0.627   5.583  13.393  0.9616  0.2633 -1.6070
 8130TIP3   OH245880   5.680   0.813  11.251 -0.6979  0.3134 -0.0529
 8130TIP3    H145881   5.624   0.886  11.224 -1.9948 -0.1609  1.2109
 8130TIP3    H245882   5.621   0.737  11.252 -0.0605 -0.1987  1.3527
 8131TIP3   OH245883   2.515   3.921   1.714  0.2622 -0.5672  0.4719
 8131TIP3    H145884   2.456   3.996   1.722  0.5838 -0.1429 -0.8458
 8131TIP3    H245885   2.601   3.956   1.737  0.9825  0.3591 -3.0559
 8132TIP3   OH245886   3.025   6.220  16.901  0.0036 -0.1782  0.5485
 8132TIP3    H145887   3.060   6.131  16.911  0.4250  0.0019  0.7122
 8132TIP3    H245888   2.968   6.214  16.825 -1.5911 -1.0746  1.7545
 8133TIP3   OH245889   5.403   1.767   3.233 -0.0591  0.3740 -0.4642
 8133TIP3    H145890   5.319   1.773   3.187 -0.4780 -1.3346 -0.0048
 8133TIP3    H245891   5.457   1.713   3.175  0.4957  0.9143 -0.4463
 8134TIP3   OH245892   5.247   3.417   4.861 -0.1082  0.2590  1.1077
 8134TIP3    H145893   5.153   3.425   4.843  0.3326  0.8972 -1.2809
 8134TIP3    H245894   5.288   3.473   4.796  1.9796 -0.4884  1.7124
 8135TIP3   OH245895   0.394   0.462  13.313 -0.5908 -0.1338 -0.2643
 8135TIP3    H145896   0.383   0.547  13.357  0.0482 -0.3032  0.2431
 8135TIP3    H245897   0.380   0.397  13.382  1.6942 -0.3897  0.0428
 8136TIP3   OH245898   0.422   5.100  13.942 -0.2806 -0.6652  0.2015
 8136TIP3    H145899   0.416   5.021  13.887  0.6865 -0.0074 -0.8932
 8136TIP3    H245900   0.430   5.172  13.880  1.3165  0.0750  1.1939
 8137TIP3   OH245901   2.424   5.505   4.491 -0.1444  0.1688  0.4757
 8137TIP3    H145902   2.387   5.501   4.403  0.7909 -3.2382  0.0716
 8137TIP3    H245903   2.511   5.466   4.482  1.0123  2.0225  2.5235
 8138TIP3   OH245904   3.964   6.457   1.817 -0.7356  0.4789 -0.1268
 8138TIP3    H145905   4.011   6.491   1.741  0.0005 -0.5311 -0.1495
 8138TIP3    H245906   3.967   6.362   1.807 -1.9364  0.3633  0.4033
 8139TIP3   OH245907   3.038   0.821  16.263 -0.2521 -0.6908  0.3428
 8139TIP3    H145908   3.122   0.832  16.307  0.1002  0.9418 -0.6500
 8139TIP3    H245909   3.015   0.729  16.278  2.0341 -1.3827  0.0490
 8140TIP3   OH245910   4.897   6.364  11.403 -0.2932 -0.0233  0.2807
 8140TIP3    H145911   4.861   6.421  11.335 -1.3163  2.1295  2.5042
 8140TIP3    H245912   4.956   6.420  11.453 -0.7484 -1.1010  2.1011
 8141TIP3   OH245913   4.692   1.552  12.496 -0.4094  0.2091  0.1454
 8141TIP3    H145914   4.610   1.596  12.475 -0.1162  0.7103  0.0206
 8141TIP3    H245915   4.728   1.602  12.570 -0.1577  0.0679  0.1209
 8142TIP3   OH245916   5.982   0.919   2.899 -0.1927 -0.0712 -0.2403
 8142TIP3    H145917   5.920   0.951   2.964 -0.9235  1.1523 -1.4881
 8142TIP3    H245918   5.944   0.837   2.867 -0.1659 -0.3260  0.3649
 8143TIP3   OH245919   5.654   0.312   5.559 -0.0127  0.4747  0.1397
 8143TIP3    H145920   5.570   0.291   5.518 -0.0744 -1.7387  1.2538
 8143TIP3    H245921   5.631   0.370   5.632 -0.4471  0.6996 -0.1689
 8144TIP3   OH245922   2.128   1.946  12.783  0.7146  0.3073  0.4712
 8144TIP3    H145923   2.194   1.878  12.775  1.5238  0.8534  2.0688
 8144TIP3    H245924   2.066   1.911  12.848 -0.2934  0.0374 -0.5983
 8145TIP3   OH245925   1.669   5.715  13.881  0.1433  0.3654  0.2348
 8145TIP3    H145926   1.707   5.643  13.931  0.4403  0.7358  0.5574
 8145TIP3    H245927   1.675   5.790  13.940 -1.0500  0.4451  0.2678
 8146TIP3   OH245928   4.656   0.991   0.603 -0.8901  0.8220  0.1064
 8146TIP3    H145929   4.698   0.949   0.528 -0.2865  1.1972  0.2296
 8146TIP3    H245930   4.679   0.935   0.678  0.1988  1.5369  0.3250
 8147TIP3   OH245931   4.415   4.684  10.470 -0.2107 -0.0577 -0.3143
 8147TIP3    H145932   4.442   4.623  10.402  1.2206  0.7217 -0.4854
 8147TIP3    H245933   4.488   4.745  10.478 -1.2169  1.0935  0.4860
 8148TIP3   OH245934   0.013   3.167   0.089 -0.2567 -0.4312 -0.0861
 8148TIP3    H145935  -0.043   3.222   0.034  0.4774 -1.7295 -2.2200
 8148TIP3    H245936   0.101   3.201   0.075 -0.1825 -0.0121  1.2758
 8149TIP3   OH245937   1.256   0.763   2.440  0.5778 -0.2847 -0.0388
 8149TIP3    H145938   1.176   0.747   2.491  1.0479 -0.2606  0.7314
 8149TIP3    H245939   1.228   0.818   2.367 -0.1403 -0.4311  0.1207
 8150TIP3   OH245940   4.387   4.464  15.039  0.1568  0.7410 -0.2974
 8150TIP3    H145941   4.464   4.503  15.081 -0.1521  0.1046  0.9018
 8150TIP3    H245942   4.393   4.492  14.948  1.4437  1.2590 -0.0765
 8151TIP3   OH245943   3.579   6.400   5.424 -0.3081 -0.1232  0.1411
 8151TIP3    H145944   3.554   6.319   5.380  1.2657 -0.4726 -0.1874
 8151TIP3    H245945   3.643   6.440   5.364 -0.0816  0.6920  0.9090
 8152TIP3   OH245946   2.911   4.594  10.712 -0.1495  0.3511  0.7134
 8152TIP3    H145947   2.955   4.513  10.685  0.4505  1.5947 -2.5220
 8152TIP3    H245948   2.824   4.589  10.671  0.3639  1.8502 -0.6549
 8153TIP3   OH245949   5.719   5.259   0.422  0.0203 -0.3495 -0.8736
 8153TIP3    H145950   5.777   5.333   0.441 -0.2558 -0.5717  0.9799
 8153TIP3    H245951   5.652   5.296   0.364  0.9070  0.3885 -1.4599
 8154TIP3   OH245952   0.478   4.063   4.718 -0.1262  0.0570  0.0030
 8154TIP3    H145953   0.473   4.110   4.635 -1.5222 -0.4608 -0.2276
 8154TIP3    H245954   0.514   3.977   4.695  2.2112  0.8782  0.3915
 8155TIP3   OH245955   1.440   4.302   5.258 -0.3023 -0.4100  0.5448
 8155TIP3    H145956   1.407   4.337   5.175  1.2417  1.5953  0.6938
 8155TIP3    H245957   1.389   4.349   5.325 -0.2536 -0.6228  0.7319
 8156TIP3   OH245958   3.121   0.671   2.062 -0.2655  0.1490 -0.1131
 8156TIP3    H145959   3.070   0.751   2.050  0.5923  0.5231 -1.5062
 8156TIP3    H245960   3.201   0.686   2.011  0.6243 -0.9612  0.8986
 8157TIP3   OH245961   6.837   0.135  11.437 -0.2929 -0.7814  0.2778
 8157TIP3    H145962   6.895   0.128  11.361 -0.8966  0.6051 -0.3485
 8157TIP3    H245963   6.852   0.223  11.471 -0.7654 -1.0337  1.1682
 8158TIP3   OH245964   0.180   3.110   0.621  0.1231  0.1017 -0.1682
 8158TIP3    H145965   0.263   3.066   0.635 -0.5136 -0.7693  1.0183
 8158TIP3    H245966   0.162   3.097   0.527  1.2070  0.1522 -0.3975
 8159TIP3   OH245967   4.755   1.851  12.363 -0.0907  0.0792 -0.3694
 8159TIP3    H145968   4.668   1.830  12.397 -0.1814 -0.5479 -0.9531
 8159TIP3    H245969   4.754   1.946  12.351 -0.5567  0.1234  0.0011
 8160TIP3   OH245970   6.273   4.924  15.272 -0.0102 -0.0880 -0.1302
 8160TIP3    H145971   6.254   4.897  15.182  1.8862 -0.6288 -0.4044
 8160TIP3    H245972   6.335   4.859  15.305  1.7222  1.7708  0.4852
 8161TIP3   OH245973   0.810   0.158   2.604 -0.0675 -0.4564 -0.1644
 8161TIP3    H145974   0.825   0.092   2.671 -1.2287 -0.2143  0.3515
 8161TIP3    H245975   0.784   0.108   2.527  1.7759 -0.7770 -0.6485
 8162TIP3   OH245976   6.409   3.521   2.534 -0.3929 -0.3823  0.5673
 8162TIP3    H145977   6.500   3.501   2.513 -0.1901 -1.0139  1.9068
 8162TIP3    H245978   6.366   3.436   2.539 -0.2369 -0.4087  3.2788
 8163TIP3   OH245979   2.663   2.671   5.591 -0.4037  0.2211  0.2516
 8163TIP3    H145980   2.582   2.700   5.549 -1.5949 -2.2420  0.6718
 8163TIP3    H245981   2.647   2.679   5.685 -0.3551 -0.6955  0.3475
 8164TIP3   OH245982   3.323   3.011  14.677 -0.6679  0.4842 -0.3237
 8164TIP3    H145983   3.288   2.996  14.590  1.0332  0.9993 -1.1451
 8164TIP3    H245984   3.291   3.098  14.701 -2.6146 -0.3745  0.3716
 8165TIP3   OH245985   4.759   6.251   3.847 -0.4999 -0.1147  0.6676
 8165TIP3    H145986   4.772   6.189   3.775 -1.8222 -1.3010  1.3828
 8165TIP3    H245987   4.774   6.200   3.926 -0.7314  0.7171  1.2686
 8166TIP3   OH245988   5.541   0.245  16.210 -0.4930 -0.1948 -0.0838
 8166TIP3    H145989   5.489   0.324  16.223 -1.1774 -0.4846 -0.9473
 8166TIP3    H245990   5.476   0.175  16.198  0.0959 -0.9484  0.9457
 8167TIP3   OH245991   0.071   4.520   5.230  0.1030  0.4305 -0.1179
 8167TIP3    H145992   0.057   4.615   5.228 -0.3670  0.3706  0.2005
 8167TIP3    H245993  -0.017   4.483   5.221  0.2852  0.0250 -0.2210
 8168TIP3   OH245994   0.741   3.069   0.871 -0.2018  0.1082  0.0103
 8168TIP3    H145995   0.720   3.121   0.793 -1.5044  0.1712  0.3950
 8168TIP3    H245996   0.806   3.005   0.840 -0.4598  0.3448 -1.0461
 8169TIP3   OH245997   4.368   4.094   1.018 -0.1544 -0.3820  0.1739
 8169TIP3    H145998   4.442   4.151   1.039  0.0479 -0.1957 -0.9499
 8169TIP3    H245999   4.292   4.140   1.054  0.0389  0.4985 -0.4900
 8170TIP3   OH246000   1.713   4.240  14.958  0.4433  0.0692 -0.6808
 8170TIP3    H146001   1.731   4.245  15.052  0.5140 -0.5845 -0.6598
 8170TIP3    H246002   1.618   4.233  14.953  0.3109  1.5394 -0.7205
 8171TIP3   OH246003   6.708   1.585   2.573  0.0268 -0.0628 -0.0272
 8171TIP3    H146004   6.638   1.566   2.511  1.1273  2.2640 -2.1902
 8171TIP3    H246005   6.675   1.660   2.624  0.2924 -0.0131  0.0757
 8172TIP3   OH246006   1.263   1.490   4.862 -0.3797  0.3584  0.3300
 8172TIP3    H146007   1.321   1.526   4.796 -1.1407  2.8754  0.9392
 8172TIP3    H246008   1.252   1.398   4.837  2.1498  0.3364 -0.9681
 8173TIP3   OH246009   1.227   3.366   2.202 -0.5571 -0.2484 -0.2431
 8173TIP3    H146010   1.299   3.340   2.259 -2.6831 -0.1861  2.6360
 8173TIP3    H246011   1.206   3.456   2.229 -0.8028  0.2872 -2.0641
 8174TIP3   OH246012   2.374   4.292  12.731 -0.1044 -0.3539  0.2620
 8174TIP3    H146013   2.308   4.226  12.750 -0.5825  0.1742  0.4672
 8174TIP3    H246014   2.383   4.341  12.812 -1.8874  1.6723 -0.6463
 8175TIP3   OH246015   3.454   0.390  15.799  0.5731 -0.5214  0.4564
 8175TIP3    H146016   3.474   0.371  15.708  1.0113  0.9978  0.2225
 8175TIP3    H246017   3.524   0.348  15.849  0.4804 -1.1203  0.0904
 8176TIP3   OH246018   5.233   4.788  14.084 -0.1121  0.3132  0.5920
 8176TIP3    H146019   5.148   4.823  14.111  0.4127  1.1267  1.2090
 8176TIP3    H246020   5.290   4.864  14.078  1.1165 -0.4253  2.2366
 8177TIP3   OH246021   5.812   1.893   2.621 -0.0950  0.0359  0.4936
 8177TIP3    H146022   5.746   1.912   2.555  2.4438  2.0686 -1.6863
 8177TIP3    H246023   5.807   1.966   2.683  0.1444  0.2621  0.2521
 8178TIP3   OH246024   1.167   1.413   5.672 -0.1914 -0.5239 -0.0489
 8178TIP3    H146025   1.250   1.461   5.673 -0.8558  0.7094 -0.8486
 8178TIP3    H246026   1.102   1.476   5.704 -1.0392 -0.9914 -0.7920
 8179TIP3   OH246027   1.375   2.653   6.830 -0.0548 -0.0644 -0.4823
 8179TIP3    H146028   1.356   2.724   6.892 -0.2478 -0.4527 -0.0865
 8179TIP3    H246029   1.391   2.697   6.747 -1.7440  0.3654 -0.6153
 8180TIP3   OH246030   2.459   2.664   0.305  0.3820  0.0379  0.1505
 8180TIP3    H146031   2.427   2.672   0.215  0.0796  0.1257  0.2652
 8180TIP3    H246032   2.387   2.695   0.360  0.3371 -0.5771  0.4529
 8181TIP3   OH246033   0.238   2.628  13.605  0.2051 -0.7864 -0.9473
 8181TIP3    H146034   0.325   2.591  13.590  1.1060  1.2463 -1.1079
 8181TIP3    H246035   0.198   2.633  13.518  0.7477  0.1111 -1.1591
 8182TIP3   OH246036   2.991   1.852  12.610  0.0486 -0.0356  0.0359
 8182TIP3    H146037   2.913   1.800  12.591  0.2718 -1.0268  1.5666
 8182TIP3    H246038   3.063   1.803  12.570  0.2160 -0.7593  1.1757
 8183TIP3   OH246039   2.666   0.973   0.738 -0.0235 -0.0438 -0.1986
 8183TIP3    H146040   2.735   0.926   0.785 -0.4852 -0.5941 -0.0649
 8183TIP3    H246041   2.649   0.920   0.660 -0.4873 -0.0614 -0.0884
 8184TIP3   OH246042   4.585   2.648   4.513 -0.0538 -0.4374 -0.2553
 8184TIP3    H146043   4.594   2.732   4.467  1.2244 -1.0214 -1.1507
 8184TIP3    H246044   4.668   2.637   4.559  0.3623 -1.8103 -1.2480
 8185TIP3   OH246045   2.480   0.346  11.665  0.6128  0.2284 -0.4359
 8185TIP3    H146046   2.523   0.406  11.726 -0.7905 -1.1254  2.0239
 8185TIP3    H246047   2.387   0.359  11.678  0.2417 -0.2385 -2.2342
 8186TIP3   OH246048   0.872   5.189   3.722  0.2346 -0.5336  0.0913
 8186TIP3    H146049   0.821   5.113   3.694  0.6261 -1.0761  0.8251
 8186TIP3    H246050   0.863   5.190   3.817 -0.1389  0.6114  0.0595
 8187TIP3   OH246051   0.831   5.998  14.584  0.2162 -0.0107  0.8525
 8187TIP3    H146052   0.774   6.054  14.532  1.4636  1.5547  1.0626
 8187TIP3    H246053   0.888   5.955  14.521  0.3929  0.3151  0.7874
 8188TIP3   OH246054   2.438   6.658  11.482  0.2040  0.1298  0.3968
 8188TIP3    H146055   2.528   6.626  11.493  0.3991  0.1686 -0.9871
 8188TIP3    H246056   2.447   6.739  11.433 -0.6050  0.0263  0.0679
 8189TIP3   OH246057   1.062   3.656   1.559  0.6300 -0.6666 -0.5566
 8189TIP3    H146058   1.062   3.581   1.619  0.2915 -0.2000  0.0272
 8189TIP3    H246059   1.010   3.627   1.484  0.6989 -1.0968 -0.4411
 8190TIP3   OH246060   3.125   0.355   4.190  0.5986  0.1154 -0.3953
 8190TIP3    H146061   3.037   0.318   4.181  0.6578  0.0021 -0.5161
 8190TIP3    H246062   3.173   0.320   4.116 -0.2679  3.2601 -2.6455
 8191TIP3   OH246063   6.426   3.254  16.586  0.1539  0.1244  0.5633
 8191TIP3    H146064   6.479   3.314  16.638 -0.9953 -0.3391  2.3715
 8191TIP3    H246065   6.342   3.299  16.576 -0.2263 -0.5399  0.6811
 8192TIP3   OH246066   2.532   1.862   1.098 -0.0277  0.1351 -0.0938
 8192TIP3    H146067   2.577   1.860   1.182 -2.3140 -0.6665  1.2048
 8192TIP3    H246068   2.454   1.808   1.111 -0.7466  0.4479 -2.5653
 8193TIP3   OH246069   3.254   6.086   1.225 -0.1299  0.1322  0.2406
 8193TIP3    H146070   3.249   6.105   1.319 -2.5661  0.6588  0.0513
 8193TIP3    H246071   3.163   6.077   1.197  0.5285  0.3326 -2.1641
 8194TIP3   OH246072   5.891   2.691   1.811  0.0462  0.5774 -0.4472
 8194TIP3    H146073   5.952   2.656   1.874  0.1009  2.5216  0.6701
 8194TIP3    H246074   5.889   2.627   1.740  2.5934 -0.0205 -0.0562
 8195TIP3   OH246075   1.469   2.368   0.466  0.0608 -0.3774  0.0777
 8195TIP3    H146076   1.446   2.293   0.411  1.1188 -0.0582 -0.8499
 8195TIP3    H246077   1.558   2.351   0.495  1.0270  1.2785 -1.6243
 8196TIP3   OH246078   1.246   6.372   0.845 -0.5829  0.0249  0.1088
 8196TIP3    H146079   1.226   6.427   0.769 -0.4070 -0.1459 -0.0617
 8196TIP3    H246080   1.341   6.361   0.842 -0.8636 -3.4662 -2.1100
 8197TIP3   OH246081   3.447   0.239  12.627  0.4307  0.0830 -0.7796
 8197TIP3    H146082   3.540   0.224  12.642  0.6050  1.8000  0.1121
 8197TIP3    H246083   3.408   0.234  12.714  0.0139  1.2887 -0.8748
 8198TIP3   OH246084   1.151   6.378   4.022  0.1099  0.0932  0.1145
 8198TIP3    H146085   1.182   6.353   3.935 -2.0094 -0.7038 -0.4813
 8198TIP3    H246086   1.200   6.458   4.043  1.8569 -0.5973 -1.0609
 8199TIP3   OH246087   5.115   5.001   0.910  0.1705  0.1103  0.3188
 8199TIP3    H146088   5.053   4.960   0.971 -0.3965 -0.3921 -0.5556
 8199TIP3    H246089   5.070   5.079   0.879 -0.6773 -0.9642 -1.3569
 8200TIP3   OH246090   5.330   5.750   5.080  0.3060  0.4829 -0.1367
 8200TIP3    H146091   5.410   5.697   5.085 -0.0934 -0.3449 -1.7531
 8200TIP3    H246092   5.260   5.687   5.072 -0.1505  1.1983 -2.5929
 8201TIP3   OH246093   5.358   5.996  14.222 -0.6238 -0.1105  0.7988
 8201TIP3    H146094   5.369   6.000  14.317  0.8196  0.0766  0.6464
 8201TIP3    H246095   5.419   5.927  14.194 -0.5525  0.2903 -0.0520
 8202TIP3   OH246096   0.831   2.064  12.593  0.2428 -0.6908 -0.1474
 8202TIP3    H146097   0.849   2.152  12.560  5.8653 -1.9818 -1.6763
 8202TIP3    H246098   0.801   2.016  12.517 -1.8739 -0.4176  0.4646
 8203TIP3   OH246099   3.592   1.781  10.152 -0.4491  0.2793 -0.5639
 8203TIP3    H146100   3.641   1.701  10.134 -2.1111 -0.7192 -0.9240
 8203TIP3    H246101   3.656   1.851  10.143  1.0917 -1.0081 -0.1018
 8204TIP3   OH246102   5.948   0.452   2.876 -0.1682 -0.0228 -0.4451
 8204TIP3    H146103   5.961   0.456   2.971  0.9775 -2.2452 -0.4313
 8204TIP3    H246104   5.890   0.376   2.863  1.2082 -0.9236 -1.6033
 8205TIP3   OH246105   1.448   5.230  12.189  0.4639 -0.2030 -0.3181
 8205TIP3    H146106   1.540   5.255  12.200 -0.0228  1.5531  0.0977
 8205TIP3    H246107   1.447   5.181  12.107  1.8758 -0.8824  0.0318
 8206TIP3   OH246108   0.993   0.052  12.154  0.7384 -0.2349 -0.5194
 8206TIP3    H146109   1.076   0.075  12.112 -0.3125 -0.0257 -2.5944
 8206TIP3    H246110   0.963   0.133  12.195  2.4396 -0.7619  1.9873
 8207TIP3   OH246111   4.274   6.447   6.479  0.3479 -0.6305 -0.4207
 8207TIP3    H146112   4.265   6.452   6.574  1.4567 -0.2274 -0.3271
 8207TIP3    H246113   4.287   6.353   6.461  1.9090 -0.5132  0.0077
 8208TIP3   OH246114   4.305   0.176  14.727 -0.1519 -0.3670 -0.0336
 8208TIP3    H146115   4.237   0.110  14.714 -0.5624 -0.2879  1.5021
 8208TIP3    H246116   4.308   0.224  14.644 -1.7773 -0.5503 -0.2370
 8209TIP3   OH246117   3.061   6.659   2.128  0.3139 -0.6662  0.4426
 8209TIP3    H146118   3.099   6.588   2.180  0.4757 -0.1658  1.0124
 8209TIP3    H246119   3.040   6.727   2.192 -0.5681 -0.5105  0.0028
 8210TIP3   OH246120   1.748   3.990   3.154 -0.3458 -0.1745 -0.1225
 8210TIP3    H146121   1.827   3.965   3.202 -0.9587 -0.7441  0.6114
 8210TIP3    H246122   1.708   3.907   3.128 -1.1025  0.0796  0.1841
 8211TIP3   OH246123   6.436   5.906  12.843  0.1173 -0.2116 -0.0505
 8211TIP3    H146124   6.377   5.910  12.919  1.2674  0.5921  0.8334
 8211TIP3    H246125   6.481   5.990  12.844  1.2127 -0.7756 -0.7665
 8212TIP3   OH246126   5.284   5.113  14.886  0.6399 -0.2190  0.1622
 8212TIP3    H146127   5.273   5.158  14.970  0.5077 -0.2362  0.1538
 8212TIP3    H246128   5.276   5.020  14.906 -0.2230 -0.1870  0.0044
 8213TIP3   OH246129   6.385   0.171   5.505 -0.4727 -0.4521 -0.0127
 8213TIP3    H146130   6.369   0.163   5.411 -0.6914  2.6824 -0.3806
 8213TIP3    H246131   6.469   0.129   5.520 -0.4565 -1.0421 -1.6102
 8214TIP3   OH246132   4.526   0.832   4.977  0.1876  0.3622  0.6900
 8214TIP3    H146133   4.570   0.751   5.001 -0.9123 -0.4580  0.0391
 8214TIP3    H246134   4.437   0.806   4.957 -0.7691  2.0337  2.4059
 8215TIP3   OH246135   1.441   3.375   0.371  0.1467  0.0380 -0.1175
 8215TIP3    H146136   1.438   3.465   0.341 -0.9962  0.5370  1.3822
 8215TIP3    H246137   1.352   3.342   0.359 -0.0474 -0.1178  1.5221
 8216TIP3   OH246138   2.695   0.420  11.130 -0.2021  0.2428 -0.2010
 8216TIP3    H146139   2.780   0.450  11.096 -0.7909  0.0799 -1.9321
 8216TIP3    H246140   2.706   0.418  11.225  2.4511 -1.7941 -0.4152
 8217TIP3   OH246141   3.605   5.495  16.928  0.0242 -0.2556  0.4579
 8217TIP3    H146142   3.693   5.462  16.945  1.3426  2.5937 -0.2096
 8217TIP3    H246143   3.552   5.461  17.000  0.7757 -4.7586 -0.8097
 8218TIP3   OH246144   0.918   3.105   1.444  0.2554  0.1335 -0.1707
 8218TIP3    H146145   1.004   3.062   1.452  0.1790  0.1298  0.6643
 8218TIP3    H246146   0.856   3.039   1.473  0.1796  0.9811  1.6777
 8219TIP3   OH246147   4.804   4.891   1.675  0.1159  0.1288  0.1178
 8219TIP3    H146148   4.846   4.966   1.633 -1.4695  0.6653 -0.5588
 8219TIP3    H246149   4.751   4.930   1.745 -0.5332 -0.3731 -0.0892
 8220TIP3   OH246150   5.873   3.645  13.605  0.1480  0.5163 -0.4620
 8220TIP3    H146151   5.942   3.697  13.563  1.1262 -1.1528 -1.0569
 8220TIP3    H246152   5.920   3.570  13.641 -1.3448 -0.6083 -0.7596
 8221TIP3   OH246153   3.464   0.847   5.409 -1.1864 -0.2346 -0.0477
 8221TIP3    H146154   3.459   0.794   5.489  1.4362 -2.4251 -1.1738
 8221TIP3    H246155   3.401   0.806   5.349 -0.5574 -0.9031 -0.2671
 8222TIP3   OH246156   0.312   0.396   0.049 -0.0246 -0.2747  0.1790
 8222TIP3    H146157   0.248   0.460   0.080 -2.2613 -1.6359 -1.3089
 8222TIP3    H246158   0.292   0.385  -0.044  1.0005 -2.2954  0.1468
 8223TIP3   OH246159   6.387   3.895   3.770  0.1372 -0.1694  0.3366
 8223TIP3    H146160   6.356   3.943   3.847 -1.4912  0.0375 -0.4121
 8223TIP3    H246161   6.470   3.937   3.748 -0.0414  0.6652  1.1688
 8224TIP3   OH246162   0.454   4.224  12.997  0.1457  0.0115  0.3845
 8224TIP3    H146163   0.445   4.276  12.918  1.0154 -0.5189 -0.0717
 8224TIP3    H246164   0.480   4.287  13.064 -1.4497  0.6205  0.4896
 8225TIP3   OH246165   6.662   2.545  14.184 -0.4808  0.0823  0.2312
 8225TIP3    H146166   6.672   2.522  14.092 -2.9937 -0.5221  0.0418
 8225TIP3    H246167   6.628   2.635  14.182  1.3383  0.8390  0.7018
 8226TIP3   OH246168   6.290   3.301  16.315 -0.2174 -0.3734  0.3242
 8226TIP3    H146169   6.339   3.377  16.284 -0.8908 -0.5475 -1.2212
 8226TIP3    H246170   6.211   3.299  16.261 -0.9783 -1.2588  1.4175
 8227TIP3   OH246171   5.560   1.043   1.385 -0.5301 -0.5948 -0.2212
 8227TIP3    H146172   5.641   1.003   1.418 -0.6836  0.8802  2.1796
 8227TIP3    H246173   5.589   1.101   1.314  0.4910 -0.3523  0.3668
 8228TIP3   OH246174   5.762   4.044  13.807 -0.5236  0.1268 -0.1533
 8228TIP3    H146175   5.789   4.050  13.715  1.5470  1.8747  0.5150
 8228TIP3    H246176   5.797   3.960  13.836  1.5647  0.9359 -0.1784
 8229TIP3   OH246177   3.788   6.521  16.001 -0.1569  0.0373  0.3832
 8229TIP3    H146178   3.854   6.502  15.935 -0.0749 -3.3464  1.2445
 8229TIP3    H246179   3.704   6.509  15.956 -0.1566  0.8419  0.1558
 8230TIP3   OH246180   3.856   6.489  11.475  0.3185 -0.9862  0.2327
 8230TIP3    H146181   3.852   6.458  11.384 -2.8358 -0.0618 -0.0822
 8230TIP3    H246182   3.765   6.484  11.506  0.2967  3.4154  1.6276
 8231TIP3   OH246183   5.653   2.924  10.831  0.0940 -0.0016  0.5215
 8231TIP3    H146184   5.599   2.861  10.783  1.3938 -1.2337  0.6132
 8231TIP3    H246185   5.592   2.965  10.893 -0.7877 -1.1731  0.4684
 8232TIP3   OH246186   3.160   4.325   4.129  0.9000 -0.1480 -0.7968
 8232TIP3    H146187   3.245   4.337   4.172 -0.3264 -0.6434  1.9802
 8232TIP3    H246188   3.163   4.235   4.096  1.3830 -0.2320 -0.5436
 8233TIP3   OH246189   0.609   4.942   5.614  0.0921 -0.4344 -0.0459
 8233TIP3    H146190   0.624   5.026   5.572  0.8356  0.6654  2.2312
 8233TIP3    H246191   0.530   4.954   5.666 -0.2032 -1.3883 -0.2526
 8234TIP3   OH246192   1.810   1.660  16.512  0.7647  0.1652  0.2047
 8234TIP3    H146193   1.881   1.640  16.451 -0.4151 -1.3545 -0.7554
 8234TIP3    H246194   1.745   1.708  16.459 -0.5392 -1.6881  0.0137
 8235TIP3   OH246195   2.801   6.682   5.099  0.5389  0.3222 -0.5811
 8235TIP3    H146196   2.852   6.605   5.074 -0.0036 -0.6082  1.0613
 8235TIP3    H246197   2.791   6.731   5.017  0.3784 -1.6508 -1.8095
 8236TIP3   OH246198   3.963   5.242  16.391  0.1165  0.1346  0.5873
 8236TIP3    H146199   4.052   5.267  16.366 -1.6810  3.1539 -4.0657
 8236TIP3    H246200   3.923   5.323  16.422 -1.3346 -1.0103  1.9064
 8237TIP3   OH246201   2.657   5.050  11.232 -0.2397 -0.3837  0.2821
 8237TIP3    H146202   2.664   4.956  11.212  0.2662 -0.1922 -0.4519
 8237TIP3    H246203   2.577   5.057  11.285 -1.4500 -0.9506 -1.3921
 8238TIP3   OH246204   0.629   1.295  10.946  0.3169 -0.4492  0.1413
 8238TIP3    H146205   0.585   1.380  10.940 -0.8793 -1.1281 -1.0310
 8238TIP3    H246206   0.576   1.236  10.893  1.1822 -1.9271  0.8595
 8239TIP3   OH246207   4.076   0.923   5.133  0.0310 -0.3207  0.1758
 8239TIP3    H146208   4.033   0.965   5.059 -1.9714  0.2940  1.6135
 8239TIP3    H246209   4.074   0.989   5.203  1.3576 -1.0776  0.9746
 8240TIP3   OH246210   0.586   0.154  12.609 -0.2352 -0.3161 -0.0776
 8240TIP3    H146211   0.633   0.103  12.542 -0.7792 -1.1174  0.1351
 8240TIP3    H246212   0.570   0.091  12.679  1.2286  0.7677  1.2868
 8241TIP3   OH246213   1.918   4.309  13.137 -0.5204  0.3253  0.4164
 8241TIP3    H146214   1.866   4.250  13.083 -0.2793 -0.0968  0.6411
 8241TIP3    H246215   1.995   4.328  13.084 -0.4522  0.1958  0.4705
 8242TIP3   OH246216   5.638   4.939  14.800  0.1860 -0.2076 -0.3477
 8242TIP3    H146217   5.591   4.985  14.870  2.0075 -0.3070  0.9975
 8242TIP3    H246218   5.609   4.848  14.808  0.5451 -0.2603  0.4471
 8243TIP3   OH246219   4.027   4.014  14.155 -0.7131  0.1804 -0.0848
 8243TIP3    H146220   4.047   4.100  14.118  1.4288 -0.0771  0.3440
 8243TIP3    H246221   3.965   3.975  14.094 -1.1656  1.7437 -0.6629
 8244TIP3   OH246222   6.466   1.046  15.478  0.2674 -0.0104 -0.3415
 8244TIP3    H146223   6.472   0.973  15.540  2.7009  0.3830 -0.0202
 8244TIP3    H246224   6.444   1.122  15.533  0.9051  0.0595 -0.1761
 8245TIP3   OH246225   2.430   3.519  12.790 -0.0570 -0.4175 -0.4917
 8245TIP3    H146226   2.352   3.470  12.763 -0.6418 -0.7863  1.6605
 8245TIP3    H246227   2.399   3.577  12.859  1.7216 -1.2296  1.0785
 8246TIP3   OH246228   3.137   6.073   2.268 -0.2545 -0.1342 -0.3772
 8246TIP3    H146229   3.202   6.082   2.338 -0.5030  1.5220 -0.3168
 8246TIP3    H246230   3.055   6.054   2.314 -0.4638  1.1756 -0.1621
 8247TIP3   OH246231   0.123   6.688  14.914 -0.5508 -0.4296  0.2388
 8247TIP3    H146232   0.216   6.674  14.897 -0.6483 -0.4635 -0.2791
 8247TIP3    H246233   0.080   6.669  14.831 -1.1374 -1.5160  0.7740
 8248TIP3   OH246234   1.339   5.370  15.279  0.3443 -0.6150  0.1199
 8248TIP3    H146235   1.431   5.380  15.256  0.2005  0.4407 -0.0343
 8248TIP3    H246236   1.313   5.455  15.315  0.0274 -1.5624  2.2929
 8249TIP3   OH246237   1.447   0.518  14.386 -0.0937 -0.1543 -0.9186
 8249TIP3    H146238   1.450   0.613  14.401 -0.3474 -0.2764 -0.0405
 8249TIP3    H246239   1.537   0.494  14.366 -0.0680  0.3053 -1.3629
 8250TIP3   OH246240   2.993   2.478  16.440 -0.1152 -0.2039 -0.2039
 8250TIP3    H146241   3.051   2.407  16.413  0.5706  0.3022 -0.0810
 8250TIP3    H246242   2.948   2.444  16.518 -0.2479 -0.7271 -0.5023
 8251TIP3   OH246243   5.178   3.135  13.983  0.0179  0.2351 -0.1141
 8251TIP3    H146244   5.224   3.120  14.066 -0.9036  0.2690  0.4056
 8251TIP3    H246245   5.214   3.218  13.951  0.4121  0.1973  0.2159
 8252TIP3   OH246246   5.789   4.038   0.150  0.1781 -0.0765 -0.2065
 8252TIP3    H146247   5.765   3.973   0.216  2.6538 -0.4442  0.4488
 8252TIP3    H246248   5.847   3.991   0.090  0.0017  0.9036 -1.1662
 8253TIP3   OH246249   3.237   3.078   0.070  0.3960  0.6677 -0.1026
 8253TIP3    H146250   3.147   3.070   0.039  1.2129 -1.8596 -2.1802
 8253TIP3    H246251   3.229   3.092   0.165 -2.1569 -1.3249  0.0619
 8254TIP3   OH246252   1.897   5.279  13.662  0.2895  0.7779  0.0255
 8254TIP3    H146253   1.874   5.249  13.574  0.9541  1.2229 -0.3080
 8254TIP3    H246254   1.991   5.264  13.669 -0.0216 -0.8926  1.3141
 8255TIP3   OH246255   5.851   1.493  11.801  0.2589  0.6565  0.1736
 8255TIP3    H146256   5.913   1.452  11.741 -0.2884  0.2428 -0.1263
 8255TIP3    H246257   5.880   1.584  11.808  2.0078  0.0397  1.5266
 8256TIP3   OH246258   0.047   2.560  14.323  0.0861  0.2407  0.0786
 8256TIP3    H146259  -0.044   2.545  14.301  0.0656  0.6967 -0.1624
 8256TIP3    H246260   0.070   2.641  14.276  0.8749 -0.3727 -0.6280
 8257TIP3   OH246261   2.875   3.049   3.728 -1.4630 -0.1119 -0.0832
 8257TIP3    H146262   2.927   3.079   3.654 -2.1624  0.3889 -0.3811
 8257TIP3    H246263   2.909   3.098   3.803  0.2501 -1.6747  0.2574
 8258TIP3   OH246264   3.985   4.278   2.247  0.4075  0.0186  0.1845
 8258TIP3    H146265   3.945   4.227   2.176  2.4530 -1.0563 -0.2757
 8258TIP3    H246266   4.061   4.318   2.207  0.8701  0.4683  1.4702
 8259TIP3   OH246267   0.098   5.403  16.110  0.8047 -0.6754  0.3441
 8259TIP3    H146268   0.164   5.334  16.112  0.5335 -0.9251  1.3138
 8259TIP3    H246269   0.073   5.415  16.202  0.4629  0.3440  0.1298
 8260TIP3   OH246270   0.788   3.933  15.185  0.1258 -0.5383  0.4624
 8260TIP3    H146271   0.838   4.015  15.181 -2.4848  1.1476  0.6203
 8260TIP3    H246272   0.798   3.904  15.275 -1.5452  1.4025  1.3307
 8261TIP3   OH246273   3.703   6.028  11.575  0.1226 -0.3261 -0.1762
 8261TIP3    H146274   3.763   5.958  11.551  1.0177 -0.2011  1.5476
 8261TIP3    H246275   3.746   6.073  11.648 -1.3847  0.7144  0.1187
 8262TIP3   OH246276   3.102   0.680  15.604 -0.8058  0.0398 -0.1389
 8262TIP3    H146277   3.033   0.697  15.668 -1.8411 -1.8038 -0.7116
 8262TIP3    H246278   3.063   0.704  15.520 -0.8199 -1.1773 -0.4877
 8263TIP3   OH246279   0.769   0.365  10.889 -0.2459 -0.2536 -0.0437
 8263TIP3    H146280   0.787   0.316  10.808 -2.2019 -1.0292 -0.0538
 8263TIP3    H246281   0.690   0.414  10.870  0.0502  0.6536  0.9676
 8264TIP3   OH246282   1.565   2.168   2.674  0.2121 -0.0256 -0.2091
 8264TIP3    H146283   1.618   2.115   2.614 -0.4791 -1.8408  0.6998
 8264TIP3    H246284   1.483   2.184   2.627  0.1480 -0.3909 -0.2255
 8265TIP3   OH246285   1.232   3.632   1.910  0.1933  0.4257  0.1685
 8265TIP3    H146286   1.162   3.576   1.875  1.0001  0.5165 -1.6948
 8265TIP3    H246287   1.307   3.614   1.854  1.7441  0.2639  2.1956
 8266TIP3   OH246288   1.648   6.083  11.517  0.4267  0.0662 -0.5137
 8266TIP3    H146289   1.725   6.086  11.460  2.5194 -1.2259  2.0389
 8266TIP3    H246290   1.626   5.990  11.524  1.3468 -0.0257  2.0868
 8267TIP3   OH246291   1.686   2.995  15.040  0.3862 -0.1065 -0.0875
 8267TIP3    H146292   1.653   2.949  14.963 -0.1501  0.4540 -0.2003
 8267TIP3    H246293   1.656   2.943  15.114 -1.8541  1.0107 -0.1183
 8268TIP3   OH246294   3.253   0.953   3.481  0.4753  0.6204 -0.6698
 8268TIP3    H146295   3.173   0.904   3.462  0.9470 -0.6404  0.4732
 8268TIP3    H246296   3.319   0.915   3.423  0.7073  0.3021 -0.1969
 8269TIP3   OH246297   3.617   1.710  12.675 -0.4436  0.0008  0.1687
 8269TIP3    H146298   3.591   1.800  12.660 -1.3380 -0.3481 -0.4597
 8269TIP3    H246299   3.547   1.657  12.635 -1.0497 -0.9752  2.3219
 8270TIP3   OH246300   5.207   1.573   0.965  0.0678  0.1996 -0.1446
 8270TIP3    H146301   5.240   1.632   1.034 -0.0899 -1.6489  1.5916
 8270TIP3    H246302   5.125   1.613   0.937 -0.4558  0.4316  1.5887
 8271TIP3   OH246303   2.015   5.298  16.254  0.4913  0.8265 -0.5301
 8271TIP3    H146304   1.946   5.297  16.321  1.0498 -0.0764  0.0507
 8271TIP3    H246305   1.974   5.342  16.179 -0.3153  1.3928  0.2157
 8272TIP3   OH246306   2.075   2.474  11.573 -0.1818 -0.3154 -0.6376
 8272TIP3    H146307   2.054   2.445  11.484 -0.1163  0.6148 -0.9661
 8272TIP3    H246308   2.102   2.394  11.618 -0.4768 -0.8438 -1.3762
 8273TIP3   OH246309   5.262   2.164  14.171 -0.0070  0.4740  0.1497
 8273TIP3    H146310   5.216   2.081  14.176 -0.7905  0.8813 -0.1527
 8273TIP3    H246311   5.309   2.161  14.088  0.7556 -0.0546  0.5849
 8274TIP3   OH246312   2.749   1.888  13.136 -0.1592 -0.0614  0.0687
 8274TIP3    H146313   2.710   1.825  13.197  1.2196 -0.8936  0.1399
 8274TIP3    H246314   2.797   1.834  13.073  1.5904  0.9086  0.4968
 8275TIP3   OH246315   4.887   0.019   1.257  0.2643  0.5257  0.3918
 8275TIP3    H146316   4.884  -0.077   1.250  3.4466  0.4450 -2.0507
 8275TIP3    H246317   4.890   0.049   1.166  0.4772  2.9078  1.1369
 8276TIP3   OH246318   2.471   3.239   1.922  0.6583  0.0532 -0.4071
 8276TIP3    H146319   2.497   3.323   1.959 -0.2212  0.1819 -0.0756
 8276TIP3    H246320   2.425   3.194   1.992  2.6176 -1.4529 -0.0135
 8277TIP3   OH246321   1.648   2.683   3.452 -0.8814 -0.5986 -0.1975
 8277TIP3    H146322   1.627   2.724   3.367 -1.6077 -0.7265 -0.0793
 8277TIP3    H246323   1.590   2.727   3.514  1.9295  1.9681  0.8814
 8278TIP3   OH246324   2.269   5.724   1.468 -0.7230  0.6570  0.1814
 8278TIP3    H146325   2.191   5.716   1.413 -0.5736 -0.3311  0.0925
 8278TIP3    H246326   2.337   5.754   1.408 -0.4288 -0.9320 -0.3280
 8279TIP3   OH246327   6.462   4.839   1.173  0.0233  0.1448 -0.2792
 8279TIP3    H146328   6.524   4.770   1.195 -1.9107 -2.1972 -1.7081
 8279TIP3    H246329   6.389   4.825   1.233 -0.1305  1.4267 -0.1425
 8280TIP3   OH246330   6.469   6.764   3.867 -0.2524  0.1194 -0.4310
 8280TIP3    H146331   6.515   6.781   3.785 -1.1785  1.4309 -0.7251
 8280TIP3    H246332   6.538   6.743   3.930  0.6236  0.7538 -1.1528
 8281TIP3   OH246333   5.543   3.533   1.981 -0.0454 -0.5000  0.0859
 8281TIP3    H146334   5.516   3.505   2.068  1.4035 -3.7115 -0.3449
 8281TIP3    H246335   5.591   3.615   1.996  2.9734 -2.5396  2.8913
 8282TIP3   OH246336   6.636   6.165   0.000  0.1814  0.2662 -0.2954
 8282TIP3    H146337   6.661   6.252  -0.030  1.0725 -0.6236 -2.3832
 8282TIP3    H246338   6.706   6.140   0.061  0.5044  0.5979 -0.5227
 8283TIP3   OH246339   6.183   0.752  14.502 -0.1503 -0.6167  0.2563
 8283TIP3    H146340   6.256   0.713  14.453 -0.3369 -0.4939 -0.1289
 8283TIP3    H246341   6.190   0.846  14.484 -0.4545 -0.6151  0.1419
 8284TIP3   OH246342   3.312   6.500  15.353 -0.1342  0.2896  0.0545
 8284TIP3    H146343   3.268   6.456  15.281 -1.0392 -0.4914  1.0519
 8284TIP3    H246344   3.245   6.555  15.393  0.0505 -0.1043  0.9418
 8285TIP3   OH246345   2.212   1.953  14.783 -0.3695  0.6051  0.1020
 8285TIP3    H146346   2.279   1.962  14.714 -0.7190  0.3324 -0.2761
 8285TIP3    H246347   2.162   2.035  14.778 -1.3978 -0.0527 -1.0514
 8286TIP3   OH246348   1.362   0.473  12.933  0.2353  0.3005  0.2983
 8286TIP3    H146349   1.436   0.439  12.883 -0.8632  2.5624 -3.3097
 8286TIP3    H246350   1.399   0.540  12.990  1.0534  1.2654 -1.3152
 8287TIP3   OH246351   2.843   6.643   2.519 -0.0718  0.2943 -0.3319
 8287TIP3    H146352   2.906   6.575   2.493  2.4632  1.5901  1.9015
 8287TIP3    H246353   2.864   6.717   2.462 -1.7160 -0.1884 -1.6347
 8288TIP3   OH246354   1.561   2.870  15.246 -0.1598  0.5585  0.1870
 8288TIP3    H146355   1.536   2.862  15.338 -0.4407  1.3999  0.1912
 8288TIP3    H246356   1.483   2.904  15.203  0.0126  0.2935 -0.3425
 8289TIP3   OH246357   1.861   4.857   0.070  0.3889  0.2893 -0.3691
 8289TIP3    H146358   1.941   4.817   0.036  0.0883 -0.8927  0.2554
 8289TIP3    H246359   1.806   4.783   0.096  0.0067  1.0862  1.2757
 8290TIP3   OH246360   0.591   1.893  13.544  0.3058  0.4392  0.2268
 8290TIP3    H146361   0.627   1.806  13.561 -1.9043 -1.0163 -1.9102
 8290TIP3    H246362   0.644   1.926  13.471  1.4533  1.1681  1.3417
 8291TIP3   OH246363   0.517   3.458  10.956 -0.3415 -0.0951 -0.0892
 8291TIP3    H146364   0.609   3.483  10.951 -0.5071  0.7105  0.6578
 8291TIP3    H246365   0.484   3.470  10.867  0.8510 -2.9121 -1.0438
 8292TIP3   OH246366   4.894   6.194  14.503 -0.0403  0.3916 -0.2076
 8292TIP3    H146367   4.866   6.276  14.546  0.6448  0.6382 -0.2292
 8292TIP3    H246368   4.974   6.169  14.549 -1.3523 -1.4296  1.2596
 8293TIP3   OH246369   6.180   3.347   4.251 -0.2618  0.2986  0.2910
 8293TIP3    H146370   6.190   3.314   4.341  0.8787  0.4247  0.2238
 8293TIP3    H246371   6.191   3.270   4.196  0.1140  0.4000  0.2220
 8294TIP3   OH246372   3.233   5.207  15.416  0.3930  0.1281 -0.0944
 8294TIP3    H146373   3.224   5.302  15.422 -0.0514 -0.0000  2.1358
 8294TIP3    H246374   3.226   5.188  15.322  1.8117  2.3891 -0.7455
 8295TIP3   OH246375   3.737   2.614   5.507 -0.3610 -0.6582 -0.1328
 8295TIP3    H146376   3.810   2.674   5.494 -0.5846 -0.3802 -0.1197
 8295TIP3    H246377   3.683   2.657   5.574 -1.6974  0.2269 -1.7091
 8296TIP3   OH246378   2.396   1.822  11.573  0.4189  0.2735 -0.2446
 8296TIP3    H146379   2.442   1.739  11.588  0.8709  0.7374  1.0315
 8296TIP3    H246380   2.424   1.879  11.645 -1.2511  0.9690 -0.0911
 8297TIP3   OH246381   1.011   2.480   2.840 -0.2881 -0.4803  0.1958
 8297TIP3    H146382   1.058   2.525   2.911 -1.3913  1.0551  0.0134
 8297TIP3    H246383   1.067   2.407   2.817  1.5994  0.7705  0.5742
 8298TIP3   OH246384   6.212   4.389  16.794  0.0029 -0.2173  0.1469
 8298TIP3    H146385   6.273   4.331  16.839 -0.3994 -0.7990 -0.0376
 8298TIP3    H246386   6.198   4.347  16.709 -0.3162  0.1411  0.0199
 8299TIP3   OH246387   5.925   2.363   4.807 -0.1663  0.0091  0.5917
 8299TIP3    H146388   6.016   2.387   4.788  1.3527 -5.0685 -0.0437
 8299TIP3    H246389   5.926   2.333   4.898 -1.4674  0.6883  0.8591
 8300TIP3   OH246390   0.490   2.245  17.095  0.2947 -0.0034  0.0458
 8300TIP3    H146391   0.444   2.222  17.014  0.7622 -0.1930 -0.1688
 8300TIP3    H246392   0.420   2.264  17.157 -0.0741  1.1225 -0.6784
 8301TIP3   OH246393   2.538   4.638  15.396  0.1789 -0.1975 -0.4565
 8301TIP3    H146394   2.528   4.638  15.491  0.2862  1.0803 -0.4260
 8301TIP3    H246395   2.474   4.702  15.365 -1.1505 -1.9198 -1.4313
 8302TIP3   OH246396   6.716   1.563   0.048 -0.4270 -0.2165 -0.2512
 8302TIP3    H146397   6.784   1.509   0.008 -2.6171 -2.8571 -0.7429
 8302TIP3    H246398   6.634   1.522   0.019 -2.2089  0.1348  3.7197
 8303TIP3   OH246399   3.798   2.601   3.331  0.4829  0.3576  0.6596
 8303TIP3    H146400   3.720   2.553   3.356  0.5614 -0.0146  0.1915
 8303TIP3    H246401   3.791   2.612   3.236 -0.4675  2.9086  0.9447
 8304TIP3   OH246402   2.340   0.623   5.644 -0.0858  0.3117  0.4496
 8304TIP3    H146403   2.356   0.712   5.677  1.9259  0.1528  0.0713
 8304TIP3    H246404   2.414   0.607   5.585 -0.0339 -1.8720  1.0306
 8305TIP3   OH246405   1.295   3.126  11.517  0.0403  0.3274 -0.7822
 8305TIP3    H146406   1.372   3.182  11.506  2.1933 -1.9368  1.4326
 8305TIP3    H246407   1.318   3.044  11.473 -0.5464 -0.7957  0.8920
 8306TIP3   OH246408   6.023   0.308  13.029  0.5604  0.0871  0.1334
 8306TIP3    H146409   6.041   0.356  12.949 -0.3854 -1.0898 -0.8210
 8306TIP3    H246410   6.103   0.258  13.046 -0.1262 -1.7554 -1.6457
 8307TIP3   OH246411   3.130   6.601  11.864 -0.1697  0.3556  0.1703
 8307TIP3    H146412   3.059   6.554  11.821 -0.8040  2.5236 -1.3185
 8307TIP3    H246413   3.194   6.615  11.794  0.8406  0.1547  1.0316
 8308TIP3   OH246414   1.612   5.528   5.727  0.1911 -0.2246 -0.0557
 8308TIP3    H146415   1.622   5.600   5.664  1.6460 -0.7379 -0.4483
 8308TIP3    H246416   1.673   5.549   5.797  1.5233 -1.6362 -0.7332
 8309TIP3   OH246417   2.962   2.440   0.526 -0.2820 -0.2541  0.0969
 8309TIP3    H146418   3.042   2.447   0.578  0.5879  0.3430 -1.2572
 8309TIP3    H246419   2.903   2.507   0.563  0.6307  0.7296 -0.1801
 8310TIP3   OH246420   5.104   3.015   1.425  0.1574  0.1803 -0.0758
 8310TIP3    H146421   5.128   2.940   1.479 -1.8574  0.0957  0.7957
 8310TIP3    H246422   5.185   3.064   1.415  0.7821 -0.2093  2.4215
 8311TIP3   OH246423   5.066   2.033   2.589 -0.0941  0.1220 -0.1895
 8311TIP3    H146424   5.086   2.119   2.625 -1.1073 -0.2067  1.2768
 8311TIP3    H246425   5.137   2.015   2.528  0.4016  1.7729 -0.1379
 8312TIP3   OH246426   2.300   4.875  17.056 -0.1313 -0.2327 -0.2384
 8312TIP3    H146427   2.222   4.822  17.075  0.3095 -0.7957  0.0495
 8312TIP3    H246428   2.363   4.812  17.022 -0.3622  0.4933 -2.1187
 8313TIP3   OH246429   0.059   5.139   6.092 -0.1471 -0.1233 -0.3709
 8313TIP3    H146430   0.115   5.069   6.057  0.6587 -0.2935  1.2006
 8313TIP3    H246431   0.052   5.202   6.020  1.1124 -0.6590 -0.9848
 8314TIP3   OH246432   5.967   1.375  13.372  0.5557 -0.5580 -0.3563
 8314TIP3    H146433   5.926   1.450  13.414  0.6197 -1.9094  2.3221
 8314TIP3    H246434   5.905   1.350  13.303 -1.1793 -0.1364  0.9893
 8315TIP3   OH246435   2.891   3.922  15.930  0.4433  0.0962  0.4661
 8315TIP3    H146436   2.882   3.994  15.867  1.3661  0.0316  0.2514
 8315TIP3    H246437   2.906   3.965  16.014 -1.3847  0.2024  0.7893
 8316TIP3   OH246438   6.219   5.786   2.917  0.3514  0.3785  0.3265
 8316TIP3    H146439   6.162   5.781   2.840 -0.5788  0.1444  1.0041
 8316TIP3    H246440   6.234   5.880   2.929  0.1347  0.4421  0.1160
 8317TIP3   OH246441   1.023   2.729  12.351  0.3461  0.2432  0.0936
 8317TIP3    H146442   1.017   2.744  12.446  1.3368 -1.3054  0.4422
 8317TIP3    H246443   1.099   2.672  12.341 -2.4410 -3.6854 -1.0868
 8318TIP3   OH246444   3.583   3.232   5.440  0.0879  0.0513 -0.3031
 8318TIP3    H146445   3.658   3.187   5.480  0.5436 -0.3049 -1.4996
 8318TIP3    H246446   3.623   3.295   5.379 -0.5417  1.9919  1.1947
 8319TIP3   OH246447   2.999   1.381  13.501 -0.2450  0.5522  0.1798
 8319TIP3    H146448   3.075   1.432  13.471 -0.4271  0.6751 -0.0798
 8319TIP3    H246449   2.973   1.330  13.425 -1.7654  2.1361 -0.4495
 8320TIP3   OH246450   1.740   1.450   1.294  0.0202  0.1746 -0.2357
 8320TIP3    H146451   1.700   1.453   1.207 -0.9558  1.7599  0.2425
 8320TIP3    H246452   1.725   1.360   1.324  0.8024 -0.5505 -1.8648
 8321TIP3   OH246453   2.673   5.911   2.874  0.0897  0.0663  0.3730
 8321TIP3    H146454   2.618   5.836   2.898 -1.5981  1.1957  0.2209
 8321TIP3    H246455   2.714   5.885   2.791  0.6886 -1.2304  1.0365
 8322TIP3   OH246456   2.919   3.530  12.751 -0.0316 -0.5635  0.3441
 8322TIP3    H146457   2.952   3.600  12.806 -1.2438  1.4553 -1.3719
 8322TIP3    H246458   2.838   3.501  12.793 -0.5962  0.5005  0.0105
 8323TIP3   OH246459   4.213   6.164   1.692 -0.0567 -0.1223  0.2693
 8323TIP3    H146460   4.276   6.132   1.756 -0.2073  1.3091  1.1782
 8323TIP3    H246461   4.253   6.245   1.658 -1.5839  1.0999  1.2506
 8324TIP3   OH246462   0.618   6.315  16.915 -0.6960 -0.1171 -0.3264
 8324TIP3    H146463   0.568   6.340  16.837  0.9017  1.8977 -0.7963
 8324TIP3    H246464   0.635   6.398  16.960  1.9116 -0.7322 -0.0401
 8325TIP3   OH246465   1.671   3.370  13.069 -0.3521 -0.0762  0.1510
 8325TIP3    H146466   1.588   3.382  13.022 -0.3097  1.8904  0.5278
 8325TIP3    H246467   1.659   3.416  13.152  0.4084 -1.5294  1.1175
 8326TIP3   OH246468   6.552   6.711  16.386  0.2642  0.3790  0.3586
 8326TIP3    H146469   6.485   6.763  16.430  0.6814  0.1042  1.3407
 8326TIP3    H246470   6.610   6.777  16.346  0.6208  0.6728  1.3403
 8327TIP3   OH246471   1.646   1.776  11.209  0.4998  0.4393 -0.3581
 8327TIP3    H146472   1.553   1.794  11.195  0.1393 -1.0700 -0.0404
 8327TIP3    H246473   1.686   1.785  11.122  0.0008  0.7469 -0.5574
 8328TIP3   OH246474   1.643   6.111  11.000  0.0954  0.4152 -0.3466
 8328TIP3    H146475   1.555   6.073  11.001 -0.0416  0.7276 -0.3697
 8328TIP3    H246476   1.696   6.046  10.955 -0.1237  0.2205 -0.3266
 8329TIP3   OH246477   1.487   6.402   0.621 -0.6745  0.0152 -0.1611
 8329TIP3    H146478   1.454   6.378   0.535 -0.2109 -1.2036 -0.0145
 8329TIP3    H246479   1.537   6.326   0.650  1.2263  1.2989  0.1602
 8330TIP3   OH246480   6.397   3.584  13.386 -0.0175  0.2022 -0.2729
 8330TIP3    H146481   6.485   3.596  13.351  0.0985  0.5730  0.1288
 8330TIP3    H246482   6.385   3.659  13.445 -0.1840 -0.4239  0.5113
 8331TIP3   OH246483   4.899   1.348   4.342 -0.7896 -0.3106 -0.1840
 8331TIP3    H146484   4.985   1.390   4.352 -1.4672  0.6460  2.0474
 8331TIP3    H246485   4.842   1.418   4.310 -1.2583 -0.2799  0.6907
 8332TIP3   OH246486   5.150   1.049  16.481 -0.6064  0.1844 -0.2039
 8332TIP3    H146487   5.168   1.067  16.573 -0.0450 -0.3411 -0.2054
 8332TIP3    H246488   5.224   0.996  16.452 -1.5229 -0.9529 -0.5558
 8333TIP3   OH246489   4.123   0.653   1.232 -0.2839  0.3659  0.3535
 8333TIP3    H146490   4.175   0.708   1.173  0.5655  0.6870  1.3766
 8333TIP3    H246491   4.162   0.667   1.318 -1.4813 -0.1279  0.9921
 8334TIP3   OH246492   1.334   0.051  16.511  0.4117  0.1481 -0.1770
 8334TIP3    H146493   1.410   0.068  16.567  0.2913 -1.2087  0.4189
 8334TIP3    H246494   1.260   0.050  16.571  0.1676 -0.4312 -0.4873
 8335TIP3   OH246495   6.508   2.358   5.007 -0.4332  0.0105 -0.0921
 8335TIP3    H146496   6.419   2.392   5.009 -0.7334 -0.7499 -0.3553
 8335TIP3    H246497   6.510   2.292   5.076 -0.4629 -0.9002 -0.9377
 8336TIP3   OH246498   3.932   0.342   2.530 -0.6951 -0.2568  0.1842
 8336TIP3    H146499   4.003   0.281   2.510 -0.0899 -0.0709  1.6291
 8336TIP3    H246500   3.975   0.428   2.535 -0.8943 -0.2230  1.6343
 8337TIP3   OH246501   4.734   1.015   4.766 -0.8015  0.7702  0.1079
 8337TIP3    H146502   4.687   0.981   4.842 -0.0316  0.8342  0.6217
 8337TIP3    H246503   4.696   1.101   4.751  0.0609  1.4126  1.3844
 8338TIP3   OH246504   1.825   2.537  10.854  0.0290  0.2529 -0.1452
 8338TIP3    H146505   1.889   2.485  10.806 -1.3915 -1.4893 -0.2555
 8338TIP3    H246506   1.857   2.627  10.847  2.1016 -0.4717 -0.7081
 8339TIP3   OH246507   4.863   5.406   1.656 -0.0700 -0.0781 -0.7403
 8339TIP3    H146508   4.905   5.348   1.593  2.2427  2.4501 -1.6783
 8339TIP3    H246509   4.811   5.467   1.603 -1.0716 -0.1661  0.0993
 8340TIP3   OH246510   3.776   5.786  12.297 -0.0844  0.4300  0.7983
 8340TIP3    H146511   3.818   5.700  12.298 -0.5792  0.1710  2.6570
 8340TIP3    H246512   3.699   5.775  12.242 -0.3158 -0.4212  1.2778
 8341TIP3   OH246513   2.840   6.601  15.418 -0.1653 -0.2104 -0.1871
 8341TIP3    H146514   2.812   6.598  15.327  0.1783  1.6094 -0.3939
 8341TIP3    H246515   2.908   6.534  15.425  2.5836  2.0960 -2.3301
 8342TIP3   OH246516   0.252   6.250  10.692  0.6045  0.0750  0.4585
 8342TIP3    H146517   0.342   6.237  10.723  0.9094  0.3459 -0.2881
 8342TIP3    H246518   0.200   6.186  10.742  0.9699  0.8913  1.9364
 8343TIP3   OH246519   0.858   4.995  15.362  0.5985 -0.2452  0.1713
 8343TIP3    H146520   0.799   4.957  15.296  1.0407 -0.3625 -0.1629
 8343TIP3    H246521   0.887   4.920  15.414 -0.7249 -0.0064  1.3212
 8344TIP3   OH246522   3.346   5.847  12.411  0.4010 -0.0086 -0.1608
 8344TIP3    H146523   3.361   5.827  12.318 -0.0868 -1.5497  0.0639
 8344TIP3    H246524   3.279   5.785  12.439  0.7037  0.2707  1.2911
 8345TIP3   OH246525   3.375   6.227  14.706  0.2588 -0.4383 -0.0736
 8345TIP3    H146526   3.338   6.307  14.670 -0.4288 -0.8955 -0.4082
 8345TIP3    H246527   3.336   6.157  14.653 -0.8424 -1.1466  1.5921
 8346TIP3   OH246528   5.067   5.792  16.625 -0.3429 -0.0799  0.4359
 8346TIP3    H146529   5.160   5.797  16.602 -0.4698  0.0859 -0.0594
 8346TIP3    H246530   5.058   5.708  16.670  0.3567  0.6392  1.9608
 8347TIP3   OH246531   5.580   3.430   0.638 -0.0775  0.0360  1.1012
 8347TIP3    H146532   5.667   3.432   0.597 -0.7048  0.5233 -0.2948
 8347TIP3    H246533   5.564   3.520   0.664 -1.3229  0.6223 -1.3559
 8348TIP3   OH246534   5.480   0.848   3.623 -0.3867  0.3721 -0.3605
 8348TIP3    H146535   5.466   0.763   3.664 -0.9026  0.1297 -1.0182
 8348TIP3    H246536   5.402   0.899   3.645 -0.6638  0.2443 -1.0017
 8349TIP3   OH246537   4.366   5.897  15.692 -0.2368  0.0090 -0.0890
 8349TIP3    H146538   4.431   5.965  15.709 -1.1041  0.8936 -0.2437
 8349TIP3    H246539   4.284   5.944  15.680 -0.6994 -1.0013 -1.0645
 8350TIP3   OH246540   5.507   1.815  12.381 -0.4759  0.1242 -0.2739
 8350TIP3    H146541   5.476   1.728  12.405 -1.1932  0.3231 -0.4745
 8350TIP3    H246542   5.429   1.870  12.381 -0.4347  0.2680 -2.4975
 8351TIP3   OH246543   4.086   2.044  15.958  0.3929  0.3480  0.2635
 8351TIP3    H146544   4.095   2.004  15.872  0.1398  1.9387 -0.5333
 8351TIP3    H246545   4.120   1.978  16.019  0.2648 -0.9305 -1.0071
 8352TIP3   OH246546   2.441   2.393  12.278 -0.5202 -0.3355 -0.2851
 8352TIP3    H146547   2.353   2.395  12.316 -1.0943  0.8233 -1.5881
 8352TIP3    H246548   2.458   2.484  12.252  1.8684 -0.1237  1.6198
 8353TIP3   OH246549   3.093   3.252  14.119 -0.1355  0.1140 -0.6020
 8353TIP3    H146550   3.057   3.288  14.200 -1.0243 -0.3336 -0.7885
 8353TIP3    H246551   3.169   3.201  14.148 -0.0237  0.5362 -0.1348
 8354TIP3   OH246552   4.091   1.343   1.851 -0.6375 -0.4437 -0.2206
 8354TIP3    H146553   4.071   1.436   1.863 -1.0273 -0.4737 -0.6183
 8354TIP3    H246554   4.132   1.338   1.765  1.7662 -0.2873  0.8313
 8355TIP3   OH246555   2.215   3.549   2.454 -0.1687 -0.2415 -0.3261
 8355TIP3    H146556   2.225   3.474   2.512  0.4380 -0.3465 -0.5612
 8355TIP3    H246557   2.163   3.612   2.504 -1.2800 -1.0832 -0.3821
 8356TIP3   OH246558   5.617   1.426  11.931 -0.0421 -0.0071 -0.1979
 8356TIP3    H146559   5.670   1.470  11.864  0.9326 -2.1696 -0.9514
 8356TIP3    H246560   5.529   1.427  11.895 -0.3225  2.3419  0.3853
 8357TIP3   OH246561   2.925   0.451  11.951 -0.0267  0.7724 -0.1451
 8357TIP3    H146562   3.017   0.441  11.977  0.0142 -1.7806 -0.9975
 8357TIP3    H246563   2.929   0.491  11.865  0.4148 -0.7438 -0.8636
 8358TIP3   OH246564   0.369   2.122  12.242 -0.9226 -0.5049 -0.0999
 8358TIP3    H146565   0.458   2.153  12.228 -1.3445  0.8911  0.0692
 8358TIP3    H246566   0.320   2.155  12.167 -1.3582 -0.9726 -0.0251
 8359TIP3   OH246567   1.528   6.640   4.335  0.3059 -0.6568  0.4494
 8359TIP3    H146568   1.452   6.690   4.305  1.6154  0.4158 -1.2746
 8359TIP3    H246569   1.569   6.696   4.401  1.4174  0.3628 -1.0294
 8360TIP3   OH246570   0.051   6.503  14.678  0.2646 -0.2833 -0.6977
 8360TIP3    H146571   0.080   6.422  14.635 -1.2224 -0.7526 -0.8811
 8360TIP3    H246572  -0.013   6.475  14.742  0.6424  0.6621  0.1261
 8361TIP3   OH246573   3.560   4.293   4.513 -0.1508  0.0075 -0.6597
 8361TIP3    H146574   3.643   4.261   4.549 -0.3860  0.4635  0.3232
 8361TIP3    H246575   3.494   4.264   4.576 -0.5292  1.1897 -0.4932
 8362TIP3   OH246576   3.682   2.510   4.951 -0.5048 -0.2072 -0.1045
 8362TIP3    H146577   3.676   2.547   5.039  0.6987 -0.7179  0.2206
 8362TIP3    H246578   3.610   2.550   4.903  0.8172  2.7569  0.1529
 8363TIP3   OH246579   6.625   2.462  15.504  0.1434 -0.1109 -0.1434
 8363TIP3    H146580   6.571   2.506  15.570 -0.5953 -0.5703 -0.4189
 8363TIP3    H246581   6.614   2.514  15.425 -0.8992 -0.8758 -0.5250
 8364TIP3   OH246582   5.094   6.835  11.031  0.0014 -0.2872 -0.3323
 8364TIP3    H146583   5.106   6.930  11.029 -0.7202 -0.1938 -0.2956
 8364TIP3    H246584   5.168   6.801  10.980  0.4140  0.2722 -0.1303
 8365TIP3   OH246585   0.386   4.308  13.852 -0.0974 -0.4462  0.2704
 8365TIP3    H146586   0.377   4.358  13.934  0.0265 -0.4451  0.2825
 8365TIP3    H246587   0.321   4.348  13.794 -2.3271 -2.3485  1.2868
 8366TIP3   OH246588   4.493   6.365  16.010  0.5081 -0.2629  0.5534
 8366TIP3    H146589   4.482   6.270  16.019  1.5558 -0.2323  3.0161
 8366TIP3    H246590   4.406   6.396  15.986 -0.2975 -1.6966  1.4308
 8367TIP3   OH246591   3.493   5.388  13.800 -0.0670 -0.4420  0.6026
 8367TIP3    H146592   3.502   5.369  13.893 -0.9676 -1.2692  0.5434
 8367TIP3    H246593   3.553   5.460  13.784  1.6556 -1.6446  1.3756
 8368TIP3   OH246594   1.301   4.220  11.326 -0.6560  0.1378 -0.1464
 8368TIP3    H146595   1.224   4.249  11.277  1.0239  2.2464 -1.7604
 8368TIP3    H246596   1.375   4.248  11.272  1.2760 -1.3567  1.5760
 8369TIP3   OH246597   0.127   2.166  13.583 -0.3470  1.0133  0.4851
 8369TIP3    H146598   0.040   2.146  13.551  0.1373  1.4656 -1.2536
 8369TIP3    H246599   0.113   2.205  13.669 -1.6813 -0.9147  1.2084
 8370TIP3   OH246600   1.862   0.217   3.122 -0.4529  0.2867  0.0989
 8370TIP3    H146601   1.789   0.242   3.065  0.0632  0.2051 -0.6160
 8370TIP3    H246602   1.932   0.193   3.061  0.5903  1.5484  0.7588
 8371TIP3   OH246603   5.619   6.363  16.479  0.1027 -0.0620  0.5338
 8371TIP3    H146604   5.685   6.400  16.539  0.7011 -2.3498  1.3756
 8371TIP3    H246605   5.587   6.285  16.524  1.1259 -2.3565 -2.4133
 8372TIP3   OH246606   6.274   2.691   1.812 -0.7162  0.1801  0.1701
 8372TIP3    H146607   6.226   2.767   1.845 -1.9795 -0.9084  0.9623
 8372TIP3    H246608   6.271   2.701   1.716  0.2755  1.7658  0.2770
 8373TIP3   OH246609   2.024   6.733  15.653  0.0181 -0.1105  0.3125
 8373TIP3    H146610   2.066   6.719  15.738  0.4556 -0.2008  0.0811
 8373TIP3    H246611   1.951   6.792  15.672  0.7668  0.7583  0.5762
 8374TIP3   OH246612   5.351   1.430  11.892 -0.0549 -0.3177 -0.3897
 8374TIP3    H146613   5.371   1.498  11.827  1.6137 -0.0787  0.3166
 8374TIP3    H246614   5.287   1.470  11.950  2.8896  1.8204  1.6718
 8375TIP3   OH246615   0.018   0.074  11.043  0.2667 -0.0062 -0.3322
 8375TIP3    H146616  -0.068   0.063  11.082  0.1735 -0.1742 -0.5857
 8375TIP3    H246617   0.028  -0.000  10.983  0.5173  0.1009 -0.4275
 8376TIP3   OH246618   6.730   4.647  11.469 -0.0284 -0.2549  0.0169
 8376TIP3    H146619   6.790   4.572  11.469  1.4257  0.8649  0.3673
 8376TIP3    H246620   6.724   4.673  11.562 -0.2120  0.2943 -0.1444
 8377TIP3   OH246621   1.137   5.878  10.927  0.8700  0.9714 -0.1045
 8377TIP3    H146622   1.223   5.841  10.908  1.4376  2.4136 -0.4437
 8377TIP3    H246623   1.092   5.880  10.843  0.7003  0.7251 -0.0220
 8378TIP3   OH246624   1.948   3.398   3.909  0.4624  0.3996  0.5305
 8378TIP3    H146625   1.857   3.373   3.890  0.0379  0.4661  2.3122
 8378TIP3    H246626   1.991   3.315   3.931  1.2108  0.1791 -1.5632
 8379TIP3   OH246627   3.682   3.602   3.064 -0.4660 -0.0981  0.7378
 8379TIP3    H146628   3.712   3.686   3.098  0.5444 -0.4659  0.8072
 8379TIP3    H246629   3.708   3.602   2.972  1.4431 -1.1179  1.1989
 8380TIP3   OH246630   2.756   5.596   2.944  0.9223  0.3177  0.1288
 8380TIP3    H146631   2.740   5.532   3.014 -0.0074  0.6101  0.1950
 8380TIP3    H246632   2.849   5.617   2.952  1.3484 -1.3642 -0.1888
 8381TIP3   OH246633   1.218   1.664  12.812 -0.4792 -0.1303 -0.0265
 8381TIP3    H146634   1.244   1.752  12.783 -2.2448  1.3569  2.4847
 8381TIP3    H246635   1.158   1.633  12.745 -0.0181  0.6579 -0.8358
 8382TIP3   OH246636   4.231   3.753   1.655  0.4721  0.4703 -0.3424
 8382TIP3    H146637   4.236   3.805   1.736  0.7218 -0.1671  0.0593
 8382TIP3    H246638   4.270   3.809   1.588 -1.6265  1.8843 -0.4925
 8383TIP3   OH246639   6.750   0.808  11.390  0.4437  0.2649  0.7027
 8383TIP3    H146640   6.836   0.774  11.364  0.3740  0.4376  0.2566
 8383TIP3    H246641   6.745   0.894  11.351 -1.4548 -1.1265 -2.4576
 8384TIP3   OH246642   6.564   3.622   6.543  0.0897 -0.3690  0.2331
 8384TIP3    H146643   6.535   3.702   6.497 -1.0687  0.4955  2.3353
 8384TIP3    H246644   6.659   3.632   6.549  0.3661 -0.7515 -2.3009
 8385TIP3   OH246645   5.343   1.166  15.511 -0.1857 -0.3225  0.1562
 8385TIP3    H146646   5.340   1.151  15.417 -0.3867  1.0524 -0.0693
 8385TIP3    H246647   5.261   1.212  15.531  1.0795  1.9299  0.5165
 8386TIP3   OH246648   1.348   2.525  16.626  0.6103 -0.5047 -0.1838
 8386TIP3    H146649   1.393   2.605  16.600  0.5776 -0.3389  0.2632
 8386TIP3    H246650   1.272   2.520  16.568 -1.6675  1.9052  2.3104
 8387TIP3   OH246651   4.182   4.808   2.398 -0.0301 -0.5337 -0.0486
 8387TIP3    H146652   4.097   4.852   2.398  0.4709  0.5181  1.2844
 8387TIP3    H246653   4.214   4.815   2.308 -1.3061 -0.8969 -0.5553
 8388TIP3   OH246654   5.432   2.257  13.481  0.4098 -0.2584  0.3005
 8388TIP3    H146655   5.399   2.340  13.516  0.9795  0.0368  0.1532
 8388TIP3    H246656   5.400   2.254  13.391  0.2047 -0.3029  0.3741
 8389TIP3   OH246657   1.507   3.477   5.892  0.6853 -0.4156 -0.9207
 8389TIP3    H146658   1.567   3.438   5.956  0.9457  0.6578 -0.4808
 8389TIP3    H246659   1.549   3.560   5.868 -0.3036  0.0466 -1.1113
 8390TIP3   OH246660   2.966   2.910  16.289 -0.0985  0.4448  0.6372
 8390TIP3    H146661   2.883   2.864  16.300 -1.2722  2.1939 -0.5034
 8390TIP3    H246662   3.012   2.860  16.222 -0.4499 -0.2233  0.8830
 8391TIP3   OH246663   2.872   0.368   2.349  0.2307 -0.3201  0.2342
 8391TIP3    H146664   2.930   0.361   2.273  0.1884 -0.1514  0.1863
 8391TIP3    H246665   2.859   0.462   2.361  1.5231 -0.2546  1.4249
 8392TIP3   OH246666   5.776   5.916   5.634 -0.0732  0.4015  0.2386
 8392TIP3    H146667   5.746   6.003   5.659 -2.0614 -0.4334  0.9326
 8392TIP3    H246668   5.872   5.921   5.641 -0.2056  2.1694  1.4056
 8393TIP3   OH246669   0.991   6.488  15.114 -0.6056 -0.2386 -0.6606
 8393TIP3    H146670   1.050   6.536  15.057  0.9574 -1.2895  0.0060
 8393TIP3    H246671   0.952   6.556  15.170  1.6297  0.3280  0.3396
 8394TIP3   OH246672   2.659   5.236   0.586  0.0537  0.2690  0.6143
 8394TIP3    H146673   2.598   5.203   0.652 -0.0835 -1.8721 -0.4576
 8394TIP3    H246674   2.614   5.310   0.546 -2.1557 -1.5174 -0.4469
 8395TIP3   OH246675   3.448   4.489   5.568 -0.2617 -0.2290  0.0267
 8395TIP3    H146676   3.448   4.582   5.543 -0.3242 -0.1755  0.2199
 8395TIP3    H246677   3.418   4.489   5.659 -0.5135 -0.4623 -0.0552
 8396TIP3   OH246678   2.858   3.261   0.847 -0.3078 -0.4087  0.4992
 8396TIP3    H146679   2.947   3.256   0.884  0.2088  0.7998 -0.5200
 8396TIP3    H246680   2.835   3.170   0.828  2.8027 -0.5584 -3.9706
 8397TIP3   OH246681   6.678   6.079   1.650 -0.8327 -0.1722 -0.3062
 8397TIP3    H146682   6.770   6.103   1.659 -1.0540  1.3553 -1.7234
 8397TIP3    H246683   6.630   6.155   1.683 -1.5598 -0.0489 -1.5857
 8398TIP3   OH246684   5.427   4.068   2.179 -0.3996 -0.4908  0.5993
 8398TIP3    H146685   5.443   4.065   2.084 -1.3998  0.8580  0.3589
 8398TIP3    H246686   5.380   3.987   2.198  1.0699 -1.4743  0.2276
 8399TIP3   OH246687   4.231   1.197   5.663  0.0019 -0.3293 -0.0512
 8399TIP3    H146688   4.239   1.280   5.710 -1.3470  0.2713 -0.8327
 8399TIP3    H246689   4.268   1.214   5.577  0.5545 -0.8221  0.0777
 8400TIP3   OH246690   3.543   4.292   1.379 -0.7869 -0.0945 -0.3459
 8400TIP3    H146691   3.476   4.359   1.369 -0.3796  0.0286 -2.8454
 8400TIP3    H246692   3.560   4.261   1.290 -0.1271 -2.7118  0.5834
 8401TIP3   OH246693   4.295   5.546   4.826  0.0306  0.4800  0.8686
 8401TIP3    H146694   4.355   5.498   4.769 -2.2417 -1.4673 -0.0578
 8401TIP3    H246695   4.315   5.513   4.914 -0.1278 -0.6804  0.4883
 8402TIP3   OH246696   6.046   1.508   6.220 -0.1073  0.2428  0.0952
 8402TIP3    H146697   6.097   1.566   6.277  0.0986  0.4410 -0.2937
 8402TIP3    H246698   5.981   1.565   6.180 -1.2590 -0.1655  1.3019
 8403TIP3   OH246699   6.754   1.327   2.332 -0.2647  0.1053  0.3685
 8403TIP3    H146700   6.831   1.271   2.321  0.3996  1.0135  0.3259
 8403TIP3    H246701   6.789   1.415   2.342 -1.3013  0.5313  0.3833
 8404TIP3   OH246702   6.582   0.652   5.558  0.3339 -0.0465 -0.1174
 8404TIP3    H146703   6.652   0.686   5.501  1.2092 -1.9269 -0.2199
 8404TIP3    H246704   6.519   0.613   5.498 -0.2992  0.6907  0.0467
 8405TIP3   OH246705   6.631   0.389   3.890  0.4228 -0.2683  0.2208
 8405TIP3    H146706   6.549   0.383   3.840 -0.3184  0.1029  1.3552
 8405TIP3    H246707   6.612   0.343   3.972  1.3002 -0.0335  0.5611
 8406TIP3   OH246708   3.881   1.948  15.238 -0.6322  0.4635 -0.1632
 8406TIP3    H146709   3.856   2.011  15.171 -0.7774  0.1520 -0.4042
 8406TIP3    H246710   3.936   1.885  15.191 -1.1041 -0.0059 -0.0848
 8407TIP3   OH246711   5.942   3.525   5.932 -0.4702 -0.4103  0.1103
 8407TIP3    H146712   5.993   3.591   5.885 -0.4345 -1.1637 -0.9558
 8407TIP3    H246713   5.897   3.574   6.001 -1.0278  0.8531 -1.1039
 8408TIP3   OH246714   3.604   5.085   1.601 -0.1597 -0.6722 -0.2567
 8408TIP3    H146715   3.648   5.144   1.540 -1.5130  0.8400  0.1398
 8408TIP3    H246716   3.573   5.013   1.547  2.8915 -1.9535 -0.5185
 8409TIP3   OH246717   1.021   1.138   3.919  0.2806  0.1870  0.6084
 8409TIP3    H146718   1.092   1.084   3.885  1.2244  0.7492  1.6350
 8409TIP3    H246719   0.979   1.174   3.841 -0.4007 -2.0061 -0.1131
 8410TIP3   OH246720   2.545   1.253   1.449 -0.2537 -0.1004 -0.4145
 8410TIP3    H146721   2.458   1.274   1.482 -1.5797 -0.3992 -3.3774
 8410TIP3    H246722   2.554   1.159   1.463  0.6798  0.2717  2.0226
 8411TIP3   OH246723   3.714   4.180  16.642 -0.1009  0.8224  0.1768
 8411TIP3    H146724   3.669   4.261  16.665 -0.8868  1.0128 -1.7820
 8411TIP3    H246725   3.664   4.146  16.567  1.3420 -0.4718 -0.2415
 8412TIP3   OH246726   0.135   5.232  14.421 -0.1845 -0.4418 -0.0621
 8412TIP3    H146727   0.056   5.185  14.396 -2.6135  2.7435  0.9490
 8412TIP3    H246728   0.150   5.295  14.351  0.2632  0.3013  0.6714
 8413TIP3   OH246729   3.656   0.467  11.724  0.3539 -0.1091  0.3638
 8413TIP3    H146730   3.743   0.472  11.763 -0.2004 -0.4380  1.7083
 8413TIP3    H246731   3.621   0.383  11.754 -0.7380  0.3863  0.5293
 8414TIP3   OH246732   2.018   3.824  13.959  0.1094  0.0890 -0.6728
 8414TIP3    H146733   2.084   3.867  14.014 -2.3700  1.9614  1.0813
 8414TIP3    H246734   1.984   3.754  14.014 -1.7071  1.3536 -0.0967
 8415TIP3   OH246735   3.750   2.124  12.748  0.0114 -0.1823 -0.0459
 8415TIP3    H146736   3.674   2.066  12.749 -0.0803 -0.0698 -0.6185
 8415TIP3    H246737   3.712   2.212  12.743  0.1712 -0.1024  0.1295
 8416TIP3   OH246738   3.898   1.044  12.677 -0.5379  0.1215 -0.1119
 8416TIP3    H146739   3.974   0.986  12.680  0.1843  1.0453  2.2320
 8416TIP3    H246740   3.879   1.055  12.584  2.2069 -0.1309 -0.7685
 8417TIP3   OH246741   1.084   2.823  13.816 -0.9676 -0.0544  0.2107
 8417TIP3    H146742   1.066   2.874  13.737  2.3855  1.5200  0.2882
 8417TIP3    H246743   1.067   2.882  13.888 -1.2243 -0.5196  0.5369
 8418TIP3   OH246744   2.028   6.638  16.810  0.8661 -0.0245  0.0659
 8418TIP3    H146745   2.081   6.571  16.854 -0.5515 -2.2527 -1.3961
 8418TIP3    H246746   1.941   6.627  16.848  0.0207 -0.8179 -1.9427
 8419TIP3   OH246747   4.731   3.698   5.042 -0.3233 -0.4049  0.4321
 8419TIP3    H146748   4.729   3.696   4.946  0.0709 -0.4991  0.4218
 8419TIP3    H246749   4.660   3.757   5.066 -2.1463 -2.3425  0.1676
 8420TIP3   OH246750   4.953   3.122   0.192  0.2139 -0.0812 -0.3784
 8420TIP3    H146751   4.926   3.043   0.146  0.8426 -0.9849  0.7536
 8420TIP3    H246752   5.035   3.098   0.235  0.8235  1.4258 -0.6271
 8421TIP3   OH246753   0.000   6.129   1.164 -0.1656  0.7335 -0.0413
 8421TIP3    H146754  -0.091   6.100   1.162  0.4773 -1.6767  0.9540
 8421TIP3    H246755   0.044   6.074   1.098  0.7701  0.9071  0.4198
 8422TIP3   OH246756   6.050   2.241   6.242  0.0036  0.5487  0.4630
 8422TIP3    H146757   6.034   2.160   6.290 -0.4452  0.1744 -0.2990
 8422TIP3    H246758   6.107   2.292   6.299 -0.0563 -0.1237  1.1370
 8423TIP3   OH246759   0.463   5.157  12.190 -0.0206  0.3263  0.4174
 8423TIP3    H146760   0.393   5.207  12.231  0.9311  1.1884  1.0212
 8423TIP3    H246761   0.452   5.172  12.096 -1.7297 -1.0161  0.3593
 8424TIP3   OH246762   4.691   6.280   2.702 -0.3012 -0.3213 -0.5545
 8424TIP3    H146763   4.721   6.291   2.793  1.0126  1.5646 -1.1450
 8424TIP3    H246764   4.747   6.339   2.651 -1.9397 -0.2715 -2.4234
 8425TIP3   OH246765   4.817   3.159   5.470  0.2423 -0.2678 -0.7081
 8425TIP3    H146766   4.856   3.124   5.390  2.6317  2.1751 -0.7807
 8425TIP3    H246767   4.774   3.240   5.442 -0.4478 -0.2969  0.2246
 8426TIP3   OH246768   5.452   5.339  16.566  0.2844  0.4307  0.0781
 8426TIP3    H146769   5.397   5.366  16.639  1.3835 -1.4346  1.6951
 8426TIP3    H246770   5.513   5.413  16.554 -1.3449  1.7333 -0.5438
 8427TIP3   OH246771   0.344   2.333  16.823 -0.0755 -0.1319  0.8620
 8427TIP3    H146772   0.252   2.352  16.838 -0.3374 -1.0823  0.4843
 8427TIP3    H246773   0.377   2.409  16.775 -1.1074 -0.6118 -0.6482
 8428TIP3   OH246774   6.390   0.503  12.597  0.6195  0.4297  0.6494
 8428TIP3    H146775   6.361   0.586  12.559  0.2783 -0.2076 -0.5278
 8428TIP3    H246776   6.483   0.498  12.575  0.2730 -0.2564 -0.7547
 8429TIP3   OH246777   6.779   5.140  14.269 -1.0158 -0.0429 -0.5500
 8429TIP3    H146778   6.803   5.093  14.189 -0.8861  0.6294 -0.9152
 8429TIP3    H246779   6.724   5.212  14.238  0.0981  0.9898 -0.1818
 8430TIP3   OH246780   6.382   5.008  12.039 -0.4342  0.7919 -0.5586
 8430TIP3    H146781   6.364   4.945  12.108  2.1171  0.9134  0.3006
 8430TIP3    H246782   6.362   5.093  12.078 -0.2007  0.7690 -0.3843
 8431TIP3   OH246783   4.591   0.493  14.763  0.8021 -0.5340 -0.1499
 8431TIP3    H146784   4.587   0.467  14.855 -0.2287 -0.3438 -0.1378
 8431TIP3    H246785   4.521   0.557  14.752 -0.4292 -2.0067 -1.5313
 8432TIP3   OH246786   0.019   4.694  15.295  0.2285 -1.3250 -0.4661
 8432TIP3    H146787  -0.057   4.636  15.301 -0.6921 -0.1257  0.0885
 8432TIP3    H246788   0.019   4.725  15.205 -1.7872  0.9338  0.1783
 8433TIP3   OH246789   1.490   5.255  16.339 -0.3902 -0.1849 -0.1369
 8433TIP3    H146790   1.468   5.281  16.428 -0.8101  2.1554 -0.8448
 8433TIP3    H246791   1.452   5.168  16.329  0.2371 -0.7925  2.1451
 8434TIP3   OH246792   4.194   4.358   0.996  0.5890  0.6324 -0.2001
 8434TIP3    H146793   4.148   4.277   0.974 -0.6821  1.3110 -0.0781
 8434TIP3    H246794   4.215   4.398   0.912  0.5444  0.5618 -0.2443
 8435TIP3   OH246795   1.280   4.506  16.627 -0.3310  0.3467 -0.0684
 8435TIP3    H146796   1.347   4.525  16.561 -0.6321 -1.5768 -1.0116
 8435TIP3    H246797   1.200   4.494  16.576 -0.4610 -1.7228  0.5355
 8436TIP3   OH246798   3.834   0.925   5.610  0.2411 -0.0269  0.3663
 8436TIP3    H146799   3.910   0.961   5.656  0.2334  1.0900 -0.4639
 8436TIP3    H246800   3.870   0.858   5.552  0.4353 -0.3199  0.8115
 8437TIP3   OH246801   1.491   1.842   1.973 -0.0082  0.8435 -0.4709
 8437TIP3    H146802   1.495   1.769   2.035 -2.3665 -0.0868 -1.3068
 8437TIP3    H246803   1.479   1.919   2.028  2.5943  0.7281  0.4337
 8438TIP3   OH246804   1.130   2.233  14.598  0.7590  0.1846  0.7231
 8438TIP3    H146805   1.157   2.269  14.513  1.7063  2.1260  1.7577
 8438TIP3    H246806   1.207   2.184  14.628  0.1571 -1.1378  0.1643
 8439TIP3   OH246807   4.276   6.110   3.332 -0.7576  0.1905 -0.1915
 8439TIP3    H146808   4.183   6.085   3.328 -1.0041  0.7606  1.2683
 8439TIP3    H246809   4.278   6.201   3.303 -1.0221  0.9066  1.8651
 8440TIP3   OH246810   2.324   0.752  14.215  0.2230 -0.4440  0.0714
 8440TIP3    H146811   2.367   0.677  14.174  0.2022  0.6562 -2.1147
 8440TIP3    H246812   2.236   0.720  14.237  0.2585 -1.1069 -0.7150
 8441TIP3   OH246813   4.923   0.341   4.416  0.0633  1.0194 -0.4959
 8441TIP3    H146814   4.930   0.249   4.390  1.9381  1.4656 -1.7708
 8441TIP3    H246815   4.956   0.343   4.506  0.0612  0.4467 -0.4776
 8442TIP3   OH246816   1.439   0.098  11.868  0.3053  0.0764 -0.5055
 8442TIP3    H146817   1.444   0.007  11.839 -0.8067 -0.3614  0.5680
 8442TIP3    H246818   1.373   0.138  11.812  0.8700  0.2510 -1.0471
 8443TIP3   OH246819   2.834   4.338   0.596  0.4274 -0.3451  0.5842
 8443TIP3    H146820   2.902   4.394   0.557  0.3692  0.3153  1.4129
 8443TIP3    H246821   2.853   4.339   0.690  0.6180 -1.9933  0.5959
 8444TIP3   OH246822   0.354   1.305  15.400 -0.2164  0.3894 -0.5404
 8444TIP3    H146823   0.361   1.267  15.488 -0.2920 -1.2654 -1.2058
 8444TIP3    H246824   0.288   1.251  15.356 -0.9039  1.8108 -1.3270
 8445TIP3   OH246825   6.463   1.667   1.753  0.3866  0.1035 -0.3176
 8445TIP3    H146826   6.421   1.712   1.680  3.0107  0.8018 -1.5384
 8445TIP3    H246827   6.557   1.684   1.740  1.1073 -1.6508  1.9675
 8446TIP3   OH246828   4.499   1.832  14.456 -0.7189  0.2089  0.7277
 8446TIP3    H146829   4.547   1.789  14.386 -2.6874 -0.3134 -0.3768
 8446TIP3    H246830   4.539   1.801  14.536 -0.0663 -1.2229 -0.1245
 8447TIP3   OH246831   2.148   2.401  12.124  0.4878  0.2735 -0.2816
 8447TIP3    H146832   2.193   2.362  12.050 -2.0240 -1.9120 -0.7839
 8447TIP3    H246833   2.167   2.343  12.198  0.3146  0.5825  0.0104
 8448TIP3   OH246834   2.718   4.011   3.110  0.2829  0.0322  0.6461
 8448TIP3    H146835   2.760   4.095   3.128  0.6431 -0.0869  0.3784
 8448TIP3    H246836   2.790   3.948   3.109  0.6316  0.2466 -2.8367
 8449TIP3   OH246837   5.592   0.184   4.386 -0.3227 -0.0075  0.4346
 8449TIP3    H146838   5.601   0.095   4.419  0.2062 -1.3202 -2.7918
 8449TIP3    H246839   5.501   0.189   4.355  0.3497 -0.4967 -1.8361
 8450TIP3   OH246840   1.954   2.111  16.540 -0.0792 -0.2540  0.5037
 8450TIP3    H146841   1.990   2.137  16.625 -1.6978  3.4822  0.2218
 8450TIP3    H246842   1.868   2.152  16.537 -1.6727 -3.3590 -1.5488
 8451TIP3   OH246843   5.057   5.587   1.857 -0.7688 -0.1697  0.1034
 8451TIP3    H146844   5.060   5.623   1.946 -1.8642 -1.7294  0.8170
 8451TIP3    H246845   4.965   5.566   1.843 -0.6164  0.0871 -1.4451
 8452TIP3   OH246846   4.572   6.374  16.332 -0.9768 -0.2367  0.0676
 8452TIP3    H146847   4.604   6.436  16.266  1.3433 -0.0098  1.3037
 8452TIP3    H246848   4.489   6.412  16.362 -0.2207  1.6545 -0.0965
 8453TIP3   OH246849   6.677   5.244   4.719  0.3658  0.4520 -0.0560
 8453TIP3    H146850   6.736   5.295   4.664 -1.8890  1.5058 -1.6262
 8453TIP3    H246851   6.648   5.306   4.786 -2.2288  1.3549 -1.8549
 8454TIP3   OH246852   5.547   6.649  14.777 -0.2494  0.3087 -0.5308
 8454TIP3    H146853   5.453   6.652  14.794  0.0748  1.6605  1.4385
 8454TIP3    H246854   5.566   6.733  14.735  0.0064 -0.1890 -1.4190
 8455TIP3   OH246855   2.676   5.592  12.198 -0.6949 -0.6294 -0.1237
 8455TIP3    H146856   2.625   5.605  12.278 -1.8980  0.1547 -0.9807
 8455TIP3    H246857   2.696   5.498  12.197 -3.6309 -1.3584 -0.5809
 8456TIP3   OH246858   0.459   1.688   0.021  0.1841 -0.1294  0.0676
 8456TIP3    H146859   0.439   1.782   0.029  0.1348 -0.1401  0.0715
 8456TIP3    H246860   0.375   1.645   0.036 -0.4765 -0.0614 -2.8306
 8457TIP3   OH246861   1.829   1.725   1.653  0.2670  0.5415 -0.0994
 8457TIP3    H146862   1.780   1.805   1.633  1.8114  0.9602 -2.7391
 8457TIP3    H246863   1.896   1.753   1.714 -0.0857  0.9347  0.1159
 8458TIP3   OH246864   0.273   0.484  13.061 -0.1781  0.0852 -0.6760
 8458TIP3    H146865   0.318   0.490  13.145 -2.2764 -0.6728  0.5746
 8458TIP3    H246866   0.341   0.504  12.996  1.9669 -1.1473  1.0430
 8459TIP3   OH246867   0.992   6.803  16.339 -0.3092 -0.7409 -0.6248
 8459TIP3    H146868   1.050   6.811  16.264  0.0435 -5.4715 -1.1455
 8459TIP3    H246869   1.040   6.843  16.412  0.1361  2.2625 -2.3973
 8460TIP3   OH246870   5.086   5.586  15.100 -0.0096 -0.5781  0.4274
 8460TIP3    H146871   5.074   5.509  15.154 -0.4927  0.3835  1.7358
 8460TIP3    H246872   5.082   5.660  15.161  0.9952  0.4605 -0.6989
 8461TIP3   OH246873   2.871   6.191   1.306  0.0397 -0.5097  0.0457
 8461TIP3    H146874   2.941   6.254   1.287  1.7348 -1.8308  1.5579
 8461TIP3    H246875   2.904   6.108   1.271 -0.7284 -1.1737  0.8546
 8462TIP3   OH246876   0.993   3.617   5.746 -0.3896 -0.0137  0.6504
 8462TIP3    H146877   0.962   3.662   5.824  0.8508  1.0970  0.5466
 8462TIP3    H246878   0.957   3.529   5.753 -1.1917  0.3883  1.9193
 8463TIP3   OH246879   3.415   1.575   5.829  0.3564  0.6496 -0.0943
 8463TIP3    H146880   3.332   1.526   5.835 -0.2684  1.5422 -1.0612
 8463TIP3    H246881   3.406   1.645   5.895  1.3952 -0.6687  1.5398
 8464TIP3   OH246882   5.134   5.387  12.933  0.0767  0.4783 -0.3951
 8464TIP3    H146883   5.138   5.383  13.029  0.9314 -0.9773 -0.4542
 8464TIP3    H246884   5.044   5.361  12.913  0.5913 -1.9435 -0.0049
 8465TIP3   OH246885   0.493   5.413   4.844  0.3756  0.0893  0.7239
 8465TIP3    H146886   0.536   5.334   4.811  0.4869  0.1840  0.6440
 8465TIP3    H246887   0.425   5.380   4.904  0.2754 -0.0759  0.5218
 8466TIP3   OH246888   5.640   4.632  16.878 -0.2465  0.0639  0.5277
 8466TIP3    H146889   5.590   4.598  16.803 -0.7118  0.8712  0.4571
 8466TIP3    H246890   5.707   4.687  16.838 -0.8690  0.9801  0.7048
 8467TIP3   OH246891   6.386   3.282   0.729  0.0885  0.2415  0.4057
 8467TIP3    H146892   6.439   3.230   0.668 -0.2686 -0.8231  0.9887
 8467TIP3    H246893   6.405   3.245   0.815  1.3834  2.3783  1.1253
 8468TIP3   OH246894   3.721   4.521  15.301 -0.3436 -0.1241 -0.3629
 8468TIP3    H146895   3.763   4.436  15.285  1.7742  1.1659 -2.3468
 8468TIP3    H246896   3.784   4.569  15.356 -0.5980  0.8109 -0.8704
 8469TIP3   OH246897   4.273   0.122  13.389  0.0373  0.0465 -0.1211
 8469TIP3    H146898   4.320   0.122  13.472 -1.8486  0.3056  0.9925
 8469TIP3    H246899   4.181   0.110  13.413 -0.5394 -0.0814 -2.1882
 8470TIP3   OH246900   5.036   3.476  13.490 -0.3672  0.2637  0.6986
 8470TIP3    H146901   4.998   3.550  13.443 -1.2018  0.0937  1.0858
 8470TIP3    H246902   4.987   3.472  13.572 -2.0015 -2.1435 -0.2804
 8471TIP3   OH246903   0.862   3.967  12.661 -0.3429 -0.2531 -0.4089
 8471TIP3    H146904   0.887   3.880  12.692 -0.4901  0.1153  0.8098
 8471TIP3    H246905   0.944   4.016  12.657 -0.5480  0.3282  1.5359
 8472TIP3   OH246906   3.273   1.686  11.963  0.5357 -0.6652  0.2204
 8472TIP3    H146907   3.264   1.764  12.019  2.3971  0.2524 -0.6714
 8472TIP3    H246908   3.332   1.629  12.012  1.1807 -0.3946 -0.2230
 8473TIP3   OH246909   6.659   1.687  16.526 -0.2438 -0.0267 -0.5366
 8473TIP3    H146910   6.639   1.603  16.486 -0.5764  0.1804 -0.8165
 8473TIP3    H246911   6.692   1.741  16.454  0.0458  0.0569 -0.3423
 8474TIP3   OH246912   1.656   3.508  12.183  0.6360  0.4183 -0.7734
 8474TIP3    H146913   1.625   3.463  12.104  1.4523  0.9967 -1.4580
 8474TIP3    H246914   1.599   3.478  12.253 -0.3650  0.1912 -1.6653
 8475TIP3   OH246915   4.216   5.370  15.164 -0.0073  0.4890 -0.0365
 8475TIP3    H146916   4.191   5.404  15.250  0.4812 -0.9545  0.6974
 8475TIP3    H246917   4.135   5.335  15.127  0.4540 -2.9006  1.7534
 8476TIP3   OH246918   1.155   5.641   3.597 -0.4961  0.2569 -0.0549
 8476TIP3    H146919   1.227   5.590   3.561  0.1153  0.6920  0.5212
 8476TIP3    H246920   1.078   5.585   3.589 -0.3434  0.2560 -1.8059
 8477TIP3   OH246921   0.495   3.343  11.214 -0.1974 -0.0120  0.3149
 8477TIP3    H146922   0.590   3.346  11.232  0.2118 -3.0231 -0.8125
 8477TIP3    H246923   0.488   3.358  11.120 -1.0246  1.5600  0.5974
 8478TIP3   OH246924   6.634   6.326   3.924 -0.6003  0.3476 -0.6683
 8478TIP3    H146925   6.659   6.418   3.914 -1.3127  0.5381 -0.7916
 8478TIP3    H246926   6.541   6.329   3.948 -0.2062 -0.2973  1.0379
 8479TIP3   OH246927   6.131   1.003  12.423  0.1253 -0.0994 -0.9415
 8479TIP3    H146928   6.097   0.919  12.390 -1.2359  0.2654 -0.5154
 8479TIP3    H246929   6.071   1.068  12.387 -0.1791  0.4861  0.5836
 8480TIP3   OH246930   2.844   2.609   5.387 -0.0660 -0.0763 -0.5725
 8480TIP3    H146931   2.933   2.642   5.402 -0.4635  1.3827 -1.1940
 8480TIP3    H246932   2.799   2.627   5.470 -0.0161  0.0337 -0.5679
 8481TIP3   OH246933   5.082   4.713   2.284  0.3305  0.7715 -0.2446
 8481TIP3    H146934   5.083   4.667   2.200 -0.0190  1.7119 -0.7826
 8481TIP3    H246935   5.161   4.767   2.282  0.5344  0.4946  0.2140
 8482TIP3   OH246936   3.837   4.613   5.079 -1.0915 -0.3204 -0.3857
 8482TIP3    H146937   3.920   4.658   5.095 -1.8314  0.9848 -0.0743
 8482TIP3    H246938   3.847   4.575   4.992 -0.8391  1.4351 -1.1647
 8483TIP3   OH246939   5.409   6.042   4.555  0.2022  0.9767 -0.2799
 8483TIP3    H146940   5.378   5.951   4.555 -0.3181  1.1481  0.4668
 8483TIP3    H246941   5.491   6.039   4.506  1.4248 -0.3316  1.7122
 8484TIP3   OH246942   3.288   1.453   0.610  0.4125  0.4131  0.1164
 8484TIP3    H146943   3.197   1.426   0.627  0.8527  0.0393  2.0942
 8484TIP3    H246944   3.302   1.433   0.517 -1.4823  0.3865 -0.2079
 8485TIP3   OH246945   2.411   2.585   0.036 -0.1891  0.3438 -0.0516
 8485TIP3    H146946   2.426   2.672  -0.000 -0.9020  0.2280 -0.6309
 8485TIP3    H246947   2.490   2.536   0.012  0.1843  0.8016  0.2151
 8486TIP3   OH246948   6.529   3.730  16.431  0.2845  0.2936  0.0415
 8486TIP3    H146949   6.485   3.681  16.501  1.6112  0.7538  1.2677
 8486TIP3    H246950   6.506   3.684  16.351 -1.0369 -0.4512  0.8152
 8487TIP3   OH246951   2.586   4.294  13.133 -0.3777  0.2833  0.8132
 8487TIP3    H146952   2.669   4.332  13.162 -0.4059 -1.0583  2.8250
 8487TIP3    H246953   2.522   4.322  13.197 -0.8101 -1.3388  1.1361
 8488TIP3   OH246954   5.852   5.297  16.637 -0.8251  0.3932 -0.2072
 8488TIP3    H146955   5.832   5.352  16.713  0.4655  1.3795 -0.5515
 8488TIP3    H246956   5.913   5.231  16.671 -0.3943  0.7219 -0.3276
 8489TIP3   OH246957   6.147   3.338   1.046  1.3415  0.3562  0.6376
 8489TIP3    H146958   6.101   3.416   1.076  2.2933  0.8375  0.8506
 8489TIP3    H246959   6.086   3.297   0.984  1.8132  2.6111 -1.4662
 8490TIP3   OH246960   5.222   3.503   2.356 -0.6021 -0.0002 -0.7595
 8490TIP3    H146961   5.300   3.484   2.304  0.2747 -0.2086  0.5766
 8490TIP3    H246962   5.206   3.596   2.342  0.6363  0.3414 -0.1230
 8491TIP3   OH246963   1.080   4.160  15.129  0.5838  0.4730 -0.3298
 8491TIP3    H146964   1.105   4.123  15.045  1.8591  0.0594  0.1971
 8491TIP3    H246965   1.124   4.105  15.194 -0.9189  0.3737  0.6459
 8492TIP3   OH246966   3.807   1.911  16.795  0.1810 -0.3027  0.3571
 8492TIP3    H146967   3.742   1.955  16.850  0.8551  0.9001  0.2053
 8492TIP3    H246968   3.804   1.957  16.712  1.8737  0.3912  0.6451
 8493TIP3   OH246969   2.876   2.148  14.056  0.3441  0.1298  0.4230
 8493TIP3    H146970   2.826   2.068  14.074  0.4188 -0.1714 -0.6510
 8493TIP3    H246971   2.940   2.122  13.991  0.0578  1.1684 -0.2964
 8494TIP3   OH246972   0.543   5.302  11.957 -0.8350 -0.3966  0.0670
 8494TIP3    H146973   0.529   5.379  11.903 -0.1117  0.2420  0.7591
 8494TIP3    H246974   0.521   5.228  11.900  2.8091  0.0427 -2.2386
 8495TIP3   OH246975   6.433   0.498   3.275  0.0653  0.2780  0.2455
 8495TIP3    H146976   6.477   0.414   3.285 -0.5453  0.1064  1.6715
 8495TIP3    H246977   6.497   0.562   3.306  0.6081  0.3843 -1.0352
 8496TIP3   OH246978   5.329   6.728   4.823 -0.8101 -0.1065  0.0153
 8496TIP3    H146979   5.249   6.760   4.864 -0.8361  0.4520 -0.4517
 8496TIP3    H246980   5.399   6.781   4.862 -0.6801 -0.4920  0.3132
 8497TIP3   OH246981   0.550   1.894   0.336  0.5608 -0.2927 -0.0071
 8497TIP3    H146982   0.585   1.864   0.252  0.5934  0.1731 -0.1634
 8497TIP3    H246983   0.627   1.925   0.384  0.3768  0.8125 -0.3845
 8498TIP3   OH246984   1.867   2.944   6.036  0.3287 -0.4651  0.1253
 8498TIP3    H146985   1.875   2.918   6.128  1.4816  0.8178  0.4230
 8498TIP3    H246986   1.885   3.039   6.037  1.9260 -0.6970 -1.5918
 8499TIP3   OH246987   0.123   1.791  15.630  0.5198 -0.3939  0.3705
 8499TIP3    H146988   0.168   1.766  15.711 -1.8771  1.1980  2.3458
 8499TIP3    H246989   0.131   1.887  15.627 -0.9403 -0.2708 -0.2829
 8500TIP3   OH246990   4.983   6.131  12.611  1.0940 -0.4647  0.1612
 8500TIP3    H146991   5.025   6.070  12.551  0.7849 -0.0150 -0.5261
 8500TIP3    H246992   5.053   6.190  12.639  1.1624 -0.4486 -0.0451
 8501TIP3   OH246993   0.455   5.334  13.624 -0.0392 -0.0432 -0.3196
 8501TIP3    H146994   0.537   5.292  13.599  0.1102  0.6648 -1.0672
 8501TIP3    H246995   0.396   5.316  13.552 -0.3845 -0.1193 -0.0176
 8502TIP3   OH246996   6.386   5.555   6.011 -0.4053 -0.3319 -0.1945
 8502TIP3    H146997   6.409   5.466   6.036 -2.0873 -0.5465  0.7638
 8502TIP3    H246998   6.298   5.548   5.973 -0.4568  0.8729 -0.3564
 8503TIP3   OH246999   2.891   5.597   5.050  0.1695  0.0248 -0.3287
 8503TIP3    H147000   2.875   5.587   5.144  1.3180 -0.6520 -0.1864
 8503TIP3    H247001   2.984   5.577   5.040  0.1828  0.6265 -1.5411
 8504TIP3   OH247002   3.825   6.695   3.948  0.0558  0.1545  0.3283
 8504TIP3    H147003   3.838   6.620   3.890  1.0226  1.5917 -1.3819
 8504TIP3    H247004   3.753   6.668   4.006 -0.3440 -1.6645 -0.9348
 8505TIP3   OH247005   3.076   4.361  15.742 -0.4458 -0.2112  0.4108
 8505TIP3    H147006   3.136   4.391  15.673 -0.7073 -2.1137 -0.7098
 8505TIP3    H247007   3.132   4.351  15.819  0.2794 -0.0473 -0.0826
 8506TIP3   OH247008   4.582   0.687  11.314  0.0249 -0.1614 -0.0198
 8506TIP3    H147009   4.665   0.734  11.299 -0.4834  0.7407 -0.0655
 8506TIP3    H247010   4.516   0.742  11.272 -0.5729 -1.0108 -0.2131
 8507TIP3   OH247011   1.552   0.753   2.341 -0.0346  0.3632  0.0916
 8507TIP3    H147012   1.516   0.710   2.263 -0.7204  0.1824  0.5023
 8507TIP3    H247013   1.488   0.736   2.410  2.0949 -2.3594  1.5869
 8508TIP3   OH247014   4.773   4.352   0.772  0.2760 -0.5775  0.2488
 8508TIP3    H147015   4.830   4.380   0.700  0.5977 -0.7999  0.4165
 8508TIP3    H247016   4.828   4.295   0.826  0.0134 -0.4717  0.6331
 8509TIP3   OH247017   0.757   4.063  14.767  0.0055  0.5349 -0.4803
 8509TIP3    H147018   0.772   3.979  14.809 -1.1883  0.6784  0.2979
 8509TIP3    H247019   0.827   4.072  14.703  0.3255 -0.8978 -0.3458
 8510TIP3   OH247020   6.334   4.371  16.293  1.1571  0.1052 -0.6506
 8510TIP3    H147021   6.353   4.301  16.230  0.5847 -0.9536  0.3253
 8510TIP3    H247022   6.418   4.386  16.337  0.6814 -2.1072  1.2087
 8511TIP3   OH247023   6.459   0.194   5.759  0.3629 -0.3664 -0.2444
 8511TIP3    H147024   6.506   0.278   5.762  1.3572 -0.9148 -0.0471
 8511TIP3    H247025   6.441   0.180   5.666 -0.5444  0.4486 -0.2096
 8512TIP3   OH247026   2.708   5.780   3.227 -0.2202 -0.2839  0.3034
 8512TIP3    H147027   2.710   5.789   3.322 -3.9884 -0.7378  0.5679
 8512TIP3    H247028   2.638   5.840   3.199 -0.1283 -1.1685 -2.0214
 8513TIP3   OH247029   5.694   6.357  15.567 -0.3413 -0.1266 -0.3112
 8513TIP3    H147030   5.610   6.377  15.607  0.1419  2.1052 -0.3010
 8513TIP3    H247031   5.675   6.348  15.474 -0.3881  2.1795 -0.5753
 8514TIP3   OH247032   1.348   3.692  15.803  0.0458 -0.3594 -0.1075
 8514TIP3    H147033   1.320   3.609  15.842  1.8162 -0.7611  0.4086
 8514TIP3    H247034   1.400   3.666  15.727 -1.0425  0.3595 -1.1226
 8515TIP3   OH247035   6.794   5.171   5.771 -0.6276  0.3891  0.1996
 8515TIP3    H147036   6.853   5.220   5.715  3.0157 -1.6056  1.9337
 8515TIP3    H247037   6.784   5.086   5.727 -0.5435  0.0266  0.8574
 8516TIP3   OH247038   1.078   3.287  14.605  0.3510  0.5473  0.0203
 8516TIP3    H147039   1.042   3.207  14.567  1.2944 -0.1802  0.5875
 8516TIP3    H247040   1.130   3.325  14.535 -0.6265  1.0261 -0.4583
 8517TIP3   OH247041   2.725   4.476  12.063 -0.5115  0.5348 -0.1658
 8517TIP3    H147042   2.715   4.511  12.152  1.5650  1.9270 -0.3971
 8517TIP3    H247043   2.818   4.452  12.058 -0.4514  1.0196 -2.1410
 8518TIP3   OH247044   6.488   5.855  16.360 -0.3234 -0.1098  0.2732
 8518TIP3    H147045   6.550   5.900  16.417 -1.0511  1.6061 -0.2445
 8518TIP3    H247046   6.541   5.823  16.287 -0.1297  2.2926 -0.7308
 8519TIP3   OH247047   1.966   2.985  15.093 -0.3221  0.0860 -0.0634
 8519TIP3    H147048   1.872   2.998  15.080 -0.2292  1.2643  0.3565
 8519TIP3    H247049   1.984   3.020  15.180  0.1566 -2.0527  0.7810
 8520TIP3   OH247050   3.229   4.023   1.796  0.7648  0.8678  0.1739
 8520TIP3    H147051   3.209   4.007   1.704  0.1645  1.5744  0.1781
 8520TIP3    H247052   3.165   3.971   1.845  1.6138 -0.1885  0.2193
 8521TIP3   OH247053   5.790   3.749   5.204  0.3589  0.1321 -0.1733
 8521TIP3    H147054   5.840   3.815   5.157 -0.3327  1.8762  1.3824
 8521TIP3    H247055   5.856   3.698   5.251  0.8707  0.1183 -0.8949
 8522TIP3   OH247056   2.038   1.174   3.908  0.6648 -0.1747  0.1625
 8522TIP3    H147057   2.111   1.222   3.947  0.4647 -1.0859  1.7405
 8522TIP3    H247058   2.059   1.170   3.815  2.6433 -0.4250  0.5831
 8523TIP3   OH247059   4.505   3.703   0.685 -0.4274  0.1370 -0.2348
 8523TIP3    H147060   4.501   3.798   0.699 -1.6639  0.2868 -1.4611
 8523TIP3    H247061   4.431   3.668   0.733 -0.5748 -0.0942 -0.6253
 8524TIP3   OH247062   3.242   4.726   1.291 -0.3973  0.0243  0.2083
 8524TIP3    H147063   3.306   4.784   1.251 -0.6092  0.7776  0.9352
 8524TIP3    H247064   3.231   4.655   1.228 -0.0308  0.7007 -0.6371
 8525TIP3   OH247065   6.254   4.316   1.423  0.2595 -0.8753 -0.1102
 8525TIP3    H147066   6.176   4.307   1.478  0.1688 -1.2695 -0.2959
 8525TIP3    H247067   6.277   4.409   1.429 -0.5469 -0.6391 -0.4735
 8526TIP3   OH247068   6.819   0.538   0.165  0.3825  0.0901 -0.2260
 8526TIP3    H147069   6.907   0.543   0.201  0.0307  1.1550  0.5373
 8526TIP3    H247070   6.802   0.444   0.156  2.7109 -0.2144 -3.2536
 8527TIP3   OH247071   1.285   6.528   1.220 -0.0480 -0.1637  0.2318
 8527TIP3    H147072   1.201   6.532   1.174 -0.3899 -0.3866  0.8181
 8527TIP3    H247073   1.344   6.583   1.168 -0.1370 -1.2261 -1.0415
 8528TIP3   OH247074   1.356   3.422  10.713 -0.0050  0.0937 -0.5283
 8528TIP3    H147075   1.349   3.442  10.806 -0.1298  0.8489 -0.6940
 8528TIP3    H247076   1.450   3.430  10.694  0.3002 -1.8966 -0.0843
 8529TIP3   OH247077   5.178   1.318   0.231  0.0472  0.0195 -0.1188
 8529TIP3    H147078   5.104   1.294   0.175 -1.2234 -1.7472  2.1515
 8529TIP3    H247079   5.169   1.412   0.245 -2.7964 -0.3650  1.3511
 8530TIP3   OH247080   2.001   5.043  14.317 -0.1530  0.1138  0.3549
 8530TIP3    H147081   2.090   5.070  14.297  0.0069 -1.9842 -2.3974
 8530TIP3    H247082   1.945   5.099  14.263 -0.3179 -0.2185  0.1768
 8531TIP3   OH247083   6.305   5.716  14.806 -0.4413  0.1483 -0.2111
 8531TIP3    H147084   6.296   5.624  14.783 -2.2112  0.6590 -1.9431
 8531TIP3    H247085   6.214   5.748  14.812  0.1192  1.6835  0.7494
 8532TIP3   OH247086   1.140   0.344  11.456  0.0963 -0.2796 -0.0323
 8532TIP3    H147087   1.088   0.358  11.535  0.1663 -1.0504  0.1557
 8532TIP3    H247088   1.210   0.285  11.484 -0.2459 -1.0703 -0.8153
 8533TIP3   OH247089   5.834   2.798  14.843 -0.3018 -0.1838  0.1634
 8533TIP3    H147090   5.920   2.756  14.840  0.7960  1.7931  1.1638
 8533TIP3    H247091   5.830   2.849  14.761  0.0346  0.6557  0.6542
 8534TIP3   OH247092   6.747   3.876  12.190  0.2270 -0.4331  0.4907
 8534TIP3    H147093   6.826   3.871  12.135  0.3343 -0.5940  0.6605
 8534TIP3    H247094   6.722   3.785  12.204 -0.1816 -0.3713  0.1608
 8535TIP3   OH247095   0.342   2.253  14.568 -0.0664 -0.8060  0.2962
 8535TIP3    H147096   0.293   2.218  14.493 -0.2023  0.9478 -0.4857
 8535TIP3    H247097   0.410   2.308  14.528  0.4289 -0.5398  1.4632
 8536TIP3   OH247098   5.822   1.337  14.422  0.5072 -0.7269  0.1982
 8536TIP3    H147099   5.735   1.377  14.424  0.3793 -0.7267 -2.3070
 8536TIP3    H247100   5.806   1.243  14.418  0.5844 -0.7089 -0.7218
 8537TIP3   OH247101   2.357   3.793  13.514 -0.1793  0.4480  0.0763
 8537TIP3    H147102   2.288   3.763  13.574  1.3076 -0.6834  1.3047
 8537TIP3    H247103   2.408   3.855  13.566  1.3890 -0.8639  0.1845
 8538TIP3   OH247104   6.528   4.348   2.336 -0.4058  0.3454 -0.0960
 8538TIP3    H147105   6.545   4.254   2.347  0.5907  0.2581 -1.9891
 8538TIP3    H247106   6.434   4.353   2.320 -0.2201 -0.5453 -1.6284
 8539TIP3   OH247107   2.918   3.776  15.133 -0.6004 -0.6091 -0.7291
 8539TIP3    H147108   2.889   3.808  15.218 -0.4752 -2.5550  0.1066
 8539TIP3    H247109   2.840   3.781  15.078 -1.4455 -1.8407  0.2978
 8540TIP3   OH247110   4.830   2.276  14.579  0.0014  0.7248  0.0818
 8540TIP3    H147111   4.823   2.371  14.568 -1.4177  0.4612 -1.9240
 8540TIP3    H247112   4.762   2.254  14.643  0.2585  1.0503  0.4681
 8541TIP3   OH247113   3.891   2.476  14.841 -0.1664  0.0554 -0.6903
 8541TIP3    H147114   3.831   2.445  14.773 -1.1793 -1.7432  0.9441
 8541TIP3    H247115   3.974   2.431  14.823 -1.0635 -2.1998  0.4938
 8542TIP3   OH247116   1.038   6.644  13.391 -0.6472  0.0440 -0.0579
 8542TIP3    H147117   1.131   6.638  13.414 -0.3466  0.4804 -1.1111
 8542TIP3    H247118   1.019   6.561  13.348 -0.0817  0.9144 -2.0800
 8543TIP3   OH247119   6.094   1.429   3.519 -0.6635 -0.8775  0.1528
 8543TIP3    H147120   6.135   1.512   3.494 -0.2818 -0.7162  1.2405
 8543TIP3    H247121   6.059   1.394   3.437 -1.8670  0.8969 -0.1586
 8544TIP3   OH247122   3.047   6.022  12.013  0.3195 -0.1976 -0.1268
 8544TIP3    H147123   3.003   6.104  12.035 -0.9579 -1.7036  3.7269
 8544TIP3    H247124   2.996   5.987  11.940 -1.4092  0.7742  0.5508
 8545TIP3   OH247125   3.300   5.988  16.724 -0.0537 -0.0204 -0.1042
 8545TIP3    H147126   3.288   6.079  16.695 -0.7069 -0.2840 -0.6882
 8545TIP3    H247127   3.349   5.995  16.806 -0.2628  0.8663 -0.0484
 8546TIP3   OH247128   0.021   0.961   0.841 -0.6421  0.1550  0.3508
 8546TIP3    H147129  -0.012   0.936   0.928  0.6211  0.3060  0.8973
 8546TIP3    H247130   0.009   1.056   0.838  0.7061  0.3858  1.0220
 8547TIP3   OH247131   5.737   4.304   0.236  0.5836 -0.1251  0.5323
 8547TIP3    H147132   5.753   4.217   0.201  0.8888  0.1261  0.0240
 8547TIP3    H247133   5.756   4.297   0.329  1.2018 -0.4557  0.3884
 8548TIP3   OH247134   1.043   5.787  14.045 -0.4241 -0.7286  0.1093
 8548TIP3    H147135   1.058   5.766  13.953  1.4157  2.4874 -0.4905
 8548TIP3    H247136   1.095   5.866  14.060 -1.7621 -0.3316  3.5697
 8549TIP3   OH247137   6.772   1.332  16.998 -0.8575  0.5218 -0.2555
 8549TIP3    H147138   6.698   1.283  17.031  0.4427 -0.4142  1.4398
 8549TIP3    H247139   6.816   1.273  16.937  1.1034 -0.8986  2.2992
 8550TIP3   OH247140   5.626   2.148   1.818  0.0907 -0.1623 -0.4663
 8550TIP3    H147141   5.614   2.233   1.860  0.3795 -0.1670 -0.3758
 8550TIP3    H247142   5.628   2.085   1.890  1.4196 -0.0871 -0.4086
 8551TIP3   OH247143   2.132   2.648   1.719 -0.4131 -0.5322  0.3402
 8551TIP3    H147144   2.203   2.712   1.718 -1.2902  0.4736  0.7588
 8551TIP3    H247145   2.170   2.569   1.679  1.5822 -0.7372  2.4367
 8552TIP3   OH247146   4.549   1.221   1.590  0.0657  0.2070  0.0785
 8552TIP3    H147147   4.575   1.210   1.681 -0.2752 -0.5332  0.0923
 8552TIP3    H247148   4.551   1.132   1.553  0.6460  0.5487 -0.7591
 8553TIP3   OH247149   6.593   1.820   3.953  0.0883 -0.2038 -0.4377
 8553TIP3    H147150   6.544   1.852   4.029  0.0322 -0.6150 -0.3008
 8553TIP3    H247151   6.661   1.886   3.940  1.1982 -1.0147  1.0470
 8554TIP3   OH247152   2.063   2.390  12.721 -0.2457  0.4667  0.2149
 8554TIP3    H147153   1.985   2.403  12.776  0.8398  2.6659  1.3552
 8554TIP3    H247154   2.050   2.303  12.683 -2.0979 -0.2631  2.2456
 8555TIP3   OH247155   3.408   6.803   3.141  0.1794 -0.4342 -0.5864
 8555TIP3    H147156   3.498   6.808   3.174 -0.5213  0.9467  1.2883
 8555TIP3    H247157   3.418   6.772   3.051  2.6961  1.5988 -1.1573
 8556TIP3   OH247158   6.613   6.847   1.212 -0.0655 -0.3517  0.3686
 8556TIP3    H147159   6.614   6.859   1.117 -2.5932 -1.8856  0.0551
 8556TIP3    H247160   6.699   6.877   1.241  0.1425  1.8686 -2.1601
 8557TIP3   OH247161   4.031   3.411  10.468 -0.1594  0.4552 -0.2201
 8557TIP3    H147162   3.995   3.406  10.557 -2.0778  0.3418 -0.9604
 8557TIP3    H247163   3.969   3.363  10.414  0.3242  1.5526 -1.8260
 8558TIP3   OH247164   2.038   2.547  16.590 -0.4094  0.2700  0.2246
 8558TIP3    H147165   1.963   2.516  16.640 -1.3023 -0.1765 -1.3297
 8558TIP3    H247166   2.070   2.470  16.543  0.1768  0.7417 -0.1747
 8559TIP3   OH247167   1.801   2.929  10.901 -0.5328  0.4939  0.7881
 8559TIP3    H147168   1.857   3.006  10.888  1.8887 -0.8749  2.3590
 8559TIP3    H247169   1.828   2.868  10.832 -2.0671  0.7902 -0.1216
 8560TIP3   OH247170   3.476   1.484  16.591  0.1780  0.4727  0.4986
 8560TIP3    H147171   3.469   1.488  16.495 -0.4722  2.1285  0.5746
 8560TIP3    H247172   3.515   1.568  16.615 -1.3490  0.8542  1.7952
 8561TIP3   OH247173   0.750   6.599   0.570 -0.4497  0.5678  0.8772
 8561TIP3    H147174   0.687   6.662   0.536 -2.1760 -1.1101  0.7460
 8561TIP3    H247175   0.834   6.644   0.568 -1.0266  1.7522 -2.3100
 8562TIP3   OH247176   5.575   4.448   4.108  0.0571  0.3882  0.0470
 8562TIP3    H147177   5.596   4.541   4.111 -1.4066  0.7212  0.4861
 8562TIP3    H247178   5.551   4.431   4.018  0.3420  0.4174 -0.0369
 8563TIP3   OH247179   0.760   6.161  10.986  0.0278 -0.0706  0.9076
 8563TIP3    H147180   0.734   6.206  10.906  0.1006 -0.7430  0.5018
 8563TIP3    H247181   0.845   6.122  10.967 -0.0946 -0.4988  1.2008
 8564TIP3   OH247182   6.265   0.814   5.374  0.0340 -0.3189 -0.0760
 8564TIP3    H147183   6.269   0.718   5.368  0.0505 -0.6340  2.9817
 8564TIP3    H247184   6.205   0.830   5.447  0.0512  2.0178 -0.5235
 8565TIP3   OH247185   6.419   1.707  15.036  0.1595  0.0785 -0.4458
 8565TIP3    H147186   6.412   1.709  14.940 -0.9900  0.1441 -0.3707
 8565TIP3    H247187   6.415   1.799  15.062  0.2899  0.0488 -0.3188
 8566TIP3   OH247188   6.005   1.532   5.011 -0.4561  0.4269 -0.3186
 8566TIP3    H147189   5.978   1.493   5.095 -0.5387 -0.3985 -0.7196
 8566TIP3    H247190   6.095   1.501   4.998 -0.1667  1.1856 -0.1670
 8567TIP3   OH247191   4.296   0.950   5.532 -0.4248  0.2025  0.8729
 8567TIP3    H147192   4.235   1.004   5.483  2.3812  1.2835 -1.7513
 8567TIP3    H247193   4.267   0.860   5.516 -1.1306  0.6646 -0.6277
 8568TIP3   OH247194   0.565   6.149   1.090 -0.1278  0.4287  0.2433
 8568TIP3    H147195   0.588   6.240   1.072  0.9747  0.7318  2.7945
 8568TIP3    H247196   0.633   6.098   1.047  0.7204  0.9606  0.9090
 8569TIP3   OH247197   2.337   1.479  13.709 -0.6554 -0.3562 -0.0415
 8569TIP3    H147198   2.411   1.495  13.768 -0.5243 -0.2803 -0.2253
 8569TIP3    H247199   2.376   1.481  13.622 -0.8432 -0.5082 -0.1279
 8570TIP3   OH247200   6.460   2.827   5.878  0.0137  0.0700  0.2663
 8570TIP3    H147201   6.540   2.823   5.930 -0.4407  1.7291  1.1695
 8570TIP3    H247202   6.463   2.913   5.837 -1.8800  0.7040  1.3451
 8571TIP3   OH247203   0.024   6.178  15.650  0.2671  0.4201 -0.1965
 8571TIP3    H147204  -0.042   6.246  15.664 -0.1410 -0.2492  1.3937
 8571TIP3    H247205  -0.027   6.097  15.646  0.9747 -0.1201  1.1743
 8572TIP3   OH247206   0.298   4.968  12.344 -0.5316  0.4119 -0.5339
 8572TIP3    H147207   0.318   4.981  12.437  0.1849 -1.4129 -0.3850
 8572TIP3    H247208   0.353   5.032  12.298 -0.2677  0.7643  0.2604
 8573TIP3   OH247209   1.983   1.474   1.898 -0.1039  0.7341 -0.3349
 8573TIP3    H147210   2.032   1.515   1.969  0.9281  0.6779 -0.9950
 8573TIP3    H247211   1.964   1.386   1.929  1.2375  0.3676 -0.5281
 8574TIP3   OH247212   1.344   5.669  14.625 -0.1278 -0.2106  0.0026
 8574TIP3    H147213   1.352   5.632  14.537  2.4271 -2.3805  1.0195
 8574TIP3    H247214   1.310   5.598  14.679 -1.0151  0.8791  0.9419
 8575TIP3   OH247215   5.399   2.858  11.829 -0.2199 -0.0033 -0.9899
 8575TIP3    H147216   5.353   2.840  11.747 -0.6291  1.0666 -1.0040
 8575TIP3    H247217   5.367   2.944  11.857  1.4899  0.6106 -0.8131
 8576TIP3   OH247218   3.021   0.482  15.408  0.5510  0.3577  0.1005
 8576TIP3    H147219   3.002   0.442  15.493  2.3883 -1.9552 -0.4816
 8576TIP3    H247220   2.979   0.424  15.344  0.6168  1.1358 -0.6673
 8577TIP3   OH247221   5.210   3.654   4.185 -0.6717  0.1901 -0.0656
 8577TIP3    H147222   5.237   3.662   4.094 -1.4354  0.5896 -0.2662
 8577TIP3    H247223   5.251   3.729   4.228  0.8979 -0.7886  0.2483
 8578TIP3   OH247224   2.164   0.104   1.605  0.4314  0.2235 -0.0437
 8578TIP3    H147225   2.198   0.183   1.646  0.1894  0.8003 -0.9264
 8578TIP3    H247226   2.236   0.074   1.549  0.4124 -0.0119  0.0558
 8579TIP3   OH247227   4.655   4.110   4.082  0.1072 -0.4177  0.4570
 8579TIP3    H147228   4.695   4.122   4.169  1.4740  1.4935 -0.3516
 8579TIP3    H247229   4.565   4.085   4.101  0.3617 -0.0412  2.4515
 8580TIP3   OH247230   3.913   1.405  16.295  0.3641 -0.2775 -0.4555
 8580TIP3    H147231   3.977   1.386  16.226 -0.6640 -0.3837 -1.4033
 8580TIP3    H247232   3.841   1.448  16.250 -0.5410 -0.7649  0.4818
 8581TIP3   OH247233   6.076   4.873  11.886  0.4032 -0.3502 -0.0217
 8581TIP3    H147234   5.983   4.853  11.895  0.3552 -0.3196 -0.4439
 8581TIP3    H247235   6.090   4.949  11.943 -0.1950  0.7265 -1.2516
 8582TIP3   OH247236   6.849   4.588   1.149  0.7849 -0.1626 -0.1157
 8582TIP3    H147237   6.832   4.680   1.170 -1.3055 -0.1953 -1.3323
 8582TIP3    H247238   6.851   4.543   1.233  2.8758  1.0943  0.5747
 8583TIP3   OH247239   4.399   5.568   5.896  0.2328  0.3242  0.5242
 8583TIP3    H147240   4.378   5.662   5.901 -0.3329  0.1452  1.6196
 8583TIP3    H247241   4.493   5.564   5.915  0.7481  0.8401 -1.5555
 8584TIP3   OH247242   3.573   3.693  16.512  0.5082 -0.6596 -0.4481
 8584TIP3    H147243   3.495   3.686  16.568 -0.6026  0.5863 -1.7658
 8584TIP3    H247244   3.629   3.756  16.557 -0.5618  0.6516 -0.8884
 8585TIP3   OH247245   0.903   3.196  11.336 -0.4112  0.1238 -0.9354
 8585TIP3    H147246   0.987   3.174  11.298  0.5739 -0.2073  1.2574
 8585TIP3    H247247   0.864   3.259  11.275  1.2886  0.0638 -2.1319
 8586TIP3   OH247248   1.698   1.137   2.493 -0.2760  0.2604  0.4228
 8586TIP3    H147249   1.743   1.112   2.412  0.0119  0.4811  0.5137
 8586TIP3    H247250   1.648   1.059   2.517 -0.1652  0.1078  0.1675
 8587TIP3   OH247251   1.544   4.690  10.399  0.0091 -0.4338  0.9136
 8587TIP3    H147252   1.489   4.643  10.461 -1.4135 -3.2323 -2.1240
 8587TIP3    H247253   1.616   4.631  10.380  0.1430  0.0962 -0.3896
 8588TIP3   OH247254   3.844   4.876   5.252 -0.1800 -0.3317 -0.0854
 8588TIP3    H147255   3.844   4.895   5.346 -2.0390  0.0087 -0.1251
 8588TIP3    H247256   3.917   4.815   5.240  1.2819  1.0551  1.2529
 8589TIP3   OH247257   5.451   4.316   1.962 -0.3286  0.6771  0.4157
 8589TIP3    H147258   5.372   4.322   2.015  0.3629  0.9160  1.4616
 8589TIP3    H247259   5.520   4.354   2.017  0.8558 -1.0768  0.2522
 8590TIP3   OH247260   4.738   3.475   1.495 -0.6725 -0.2105 -0.1732
 8590TIP3    H147261   4.746   3.550   1.553 -0.6743 -0.3327 -0.0133
 8590TIP3    H247262   4.660   3.428   1.526  0.2536 -1.1801  0.7903
 8591TIP3   OH247263   0.634   2.998   3.676  0.0357  0.2088 -0.2347
 8591TIP3    H147264   0.586   3.012   3.758 -1.1527 -1.6897 -0.5659
 8591TIP3    H247265   0.630   2.904   3.661  1.6167  0.3183 -1.6801
 8592TIP3   OH247266   3.572   0.659   3.009 -0.1721 -0.4825  0.9062
 8592TIP3    H147267   3.535   0.603   3.078 -1.1818  0.1969  0.9315
 8592TIP3    H247268   3.501   0.719   2.987  0.0227 -0.8816 -0.9515
 8593TIP3   OH247269   4.621   2.604  11.410  0.1253 -0.3459  0.2482
 8593TIP3    H147270   4.716   2.594  11.413  0.2510  0.0966 -1.3734
 8593TIP3    H247271   4.594   2.560  11.329 -1.0450 -0.4447  0.6725
 8594TIP3   OH247272   2.473   5.119   4.139 -0.4445  0.3979  0.2503
 8594TIP3    H147273   2.515   5.047   4.092  0.7663 -0.1313  2.0290
 8594TIP3    H247274   2.411   5.075   4.197  1.2275  0.5944  2.2963
 8595TIP3   OH247275   4.841   1.002  16.615  0.1112 -0.1327 -0.2004
 8595TIP3    H147276   4.816   1.087  16.579 -0.1766 -0.1686 -0.0841
 8595TIP3    H247277   4.903   1.024  16.686  1.5228 -0.1026 -1.3842
 8596TIP3   OH247278   1.425   6.205  16.587 -0.7674 -0.2695 -0.7425
 8596TIP3    H147279   1.433   6.136  16.653 -0.4541 -0.1738 -0.6831
 8596TIP3    H247280   1.363   6.267  16.625  0.1063  0.2462 -0.1432
 8597TIP3   OH247281   4.188   2.600  14.570  0.3498  0.5692  0.0297
 8597TIP3    H147282   4.111   2.611  14.514 -1.7884 -2.0363  2.1841
 8597TIP3    H247283   4.163   2.641  14.653  0.9357 -0.9521  0.9943
 8598TIP3   OH247284   0.582   0.042   3.759  0.0997  0.0896 -0.0068
 8598TIP3    H147285   0.521  -0.032   3.759  0.6707 -0.4408  1.7989
 8598TIP3    H247286   0.566   0.086   3.676 -0.1861 -2.1172 -1.2127
 8599TIP3   OH247287   0.433   5.118   1.835  0.3868 -0.6821 -0.5663
 8599TIP3    H147288   0.344   5.117   1.870 -0.9561 -0.3679 -3.5943
 8599TIP3    H247289   0.442   5.205   1.796  2.3228 -0.4712  0.2855
 8600TIP3   OH247290   5.692   6.287   5.182 -0.4643 -0.1055 -0.2919
 8600TIP3    H147291   5.781   6.320   5.194 -0.2390  0.3629 -2.7026
 8600TIP3    H247292   5.657   6.339   5.109 -1.9764 -1.6601 -0.7404
 8601TIP3   OH247293   5.929   6.126   2.887 -0.1382  0.6565 -0.1947
 8601TIP3    H147294   5.922   6.030   2.890 -2.8010  0.6242 -2.9075
 8601TIP3    H247295   5.847   6.158   2.924  0.8423  1.9434  0.9494
 8602TIP3   OH247296   0.690   3.805  16.428  0.4859 -0.1180 -0.2086
 8602TIP3    H147297   0.744   3.727  16.445  0.1675 -0.0757  1.1251
 8602TIP3    H247298   0.601   3.772  16.423  0.1033  0.3181  2.2764
 8603TIP3   OH247299   6.490   3.529  13.702  0.3105  0.2071  0.2049
 8603TIP3    H147300   6.502   3.622  13.683  1.4014  0.1277  0.4375
 8603TIP3    H247301   6.398   3.512  13.685  0.4783  0.9192 -1.5935
 8604TIP3   OH247302   1.304   1.005  14.106  0.2156  0.7048 -0.3086
 8604TIP3    H147303   1.311   0.910  14.099  0.3599  0.6533  0.4806
 8604TIP3    H247304   1.212   1.021  14.128  0.4757  0.6612  0.8489
 8605TIP3   OH247305   2.243   5.771  10.917 -0.2451  0.6077 -0.2984
 8605TIP3    H147306   2.309   5.803  10.855  0.1135 -0.5251 -0.5274
 8605TIP3    H247307   2.293   5.736  10.990 -0.6829  3.0053  1.2410
 8606TIP3   OH247308   0.236   1.985  14.801 -0.4671  1.0358 -0.0294
 8606TIP3    H147309   0.260   1.902  14.841 -0.3599  0.6256 -0.9100
 8606TIP3    H247310   0.182   2.029  14.866 -2.0848 -0.5204 -0.2383
 8607TIP3   OH247311   2.906   5.467  15.444 -0.1069  0.5281  0.2300
 8607TIP3    H147312   2.959   5.469  15.523  0.0151  0.7871  0.1447
 8607TIP3    H247313   2.892   5.374  15.426 -1.7742  0.4552  1.6310
 8608TIP3   OH247314   3.526   1.843  11.882  0.0285  0.0192  0.2138
 8608TIP3    H147315   3.471   1.769  11.858  2.7714 -1.9700 -0.3527
 8608TIP3    H247316   3.500   1.864  11.972 -1.4629 -0.9573  0.0418
 8609TIP3   OH247317   4.728   0.501   2.236 -0.1277 -0.3232 -0.0668
 8609TIP3    H147318   4.796   0.561   2.268 -0.9235  1.2505 -1.2063
 8609TIP3    H247319   4.768   0.458   2.161 -0.0479 -0.1266 -0.1396
 8610TIP3   OH247320   1.306   4.066  10.191 -0.2594  0.3191  0.7153
 8610TIP3    H147321   1.296   4.063  10.096 -2.7954 -0.2308  0.9438
 8610TIP3    H247322   1.268   4.149  10.217  0.2352  0.3728  1.2988
 8611TIP3   OH247323   0.312   0.873   5.453 -0.2276  0.8199 -0.5815
 8611TIP3    H147324   0.380   0.920   5.500 -0.1684 -0.3178  0.5190
 8611TIP3    H247325   0.334   0.886   5.360  2.0889 -0.3281 -0.2596
 8612TIP3   OH247326   6.685   0.889  14.740  0.5107 -0.1434 -0.7628
 8612TIP3    H147327   6.714   0.973  14.705 -1.3025  0.8986  0.0947
 8612TIP3    H247328   6.607   0.867  14.688 -0.5137 -0.0064  0.6576
 8613TIP3   OH247329   3.667   2.809  15.054 -0.4761 -0.5118 -0.4566
 8613TIP3    H147330   3.652   2.869  14.981  0.1857  0.2348  0.0112
 8613TIP3    H247331   3.580   2.776  15.077 -0.8587  0.3439 -0.6595
 8614TIP3   OH247332   1.031   4.544  15.854 -0.0807  0.8147  0.4640
 8614TIP3    H147333   1.100   4.560  15.919 -0.8821 -0.3675  1.6477
 8614TIP3    H247334   0.950   4.544  15.905 -0.9194  1.6300 -0.8301
 8615TIP3   OH247335   6.546   1.483  14.758 -0.1049 -0.1702 -0.1245
 8615TIP3    H147336   6.551   1.404  14.811 -2.8266  0.2371  0.9297
 8615TIP3    H247337   6.505   1.454  14.676 -1.3944  0.1219  0.3823
 8616TIP3   OH247338   5.253   6.101  15.427  0.0444  0.0847 -0.1789
 8616TIP3    H147339   5.267   6.049  15.348  2.6195  1.3459 -0.6763
 8616TIP3    H247340   5.296   6.051  15.496 -0.2063  0.0683 -0.0340
 8617TIP3   OH247341   4.652   0.911  13.079  0.1183  1.0731 -0.4368
 8617TIP3    H147342   4.619   0.822  13.066 -0.9149  1.2574  0.7307
 8617TIP3    H247343   4.689   0.935  12.994  0.0578 -0.3203 -0.8835
 8618TIP3   OH247344   2.123   2.018  14.384 -0.2199 -0.2408 -0.0012
 8618TIP3    H147345   2.050   2.007  14.445  0.2834  0.5123  0.7638
 8618TIP3    H247346   2.113   2.106  14.349  0.8415  0.2488  0.8502
 8619TIP3   OH247347   6.053   6.219   6.243 -0.3591  0.2174 -0.3993
 8619TIP3    H147348   5.997   6.156   6.289  0.5667  0.8737  1.7230
 8619TIP3    H247349   6.030   6.304   6.282  0.2896  0.8441 -1.3528
 8620TIP3   OH247350   4.254   2.082   0.185  0.1640 -0.4792 -0.8726
 8620TIP3    H147351   4.255   2.160   0.129 -0.6999 -1.1421 -1.8285
 8620TIP3    H247352   4.217   2.113   0.268 -0.4067  0.0683 -1.3279
 8621TIP3   OH247353   2.213   5.064   4.686  0.0421  0.3251 -0.0630
 8621TIP3    H147354   2.230   5.100   4.598  1.2755 -0.6332 -0.2553
 8621TIP3    H247355   2.274   5.110   4.743 -0.1491  0.3255  0.1436
 8622TIP3   OH247356   0.984   1.862  13.934 -0.0096 -0.3076  0.4469
 8622TIP3    H147357   0.962   1.931  13.997 -0.1876 -0.6979  0.8207
 8622TIP3    H247358   1.047   1.903  13.875  1.3696 -0.3610  1.7970
 8623TIP3   OH247359   0.935   6.022  12.499 -0.1871 -0.3013 -0.6847
 8623TIP3    H147360   1.011   5.981  12.458  1.0947  0.5894  0.6830
 8623TIP3    H247361   0.886   5.949  12.537  0.2385 -0.8423 -1.1655
 8624TIP3   OH247362   3.825   5.299  13.792  0.8646  0.0639 -0.5162
 8624TIP3    H147363   3.793   5.355  13.721  3.0845  0.6465 -1.1533
 8624TIP3    H247364   3.789   5.337  13.872  2.1588  2.3784 -0.9385
 8625TIP3   OH247365   3.495   3.090  16.060  0.0563 -0.0140  0.0177
 8625TIP3    H147366   3.565   3.120  16.003  0.0134  1.3885  0.6593
 8625TIP3    H247367   3.419   3.144  16.036 -1.5034 -2.9144 -2.1353
 8626TIP3   OH247368   3.337   0.572   0.640  0.2805 -0.0848  0.1249
 8626TIP3    H147369   3.290   0.509   0.586  0.2487 -0.9475  1.1271
 8626TIP3    H247370   3.399   0.519   0.690  1.3401  0.8701 -0.1394
 8627TIP3   OH247371   0.959   6.375   4.433  0.2443  0.3691  0.1603
 8627TIP3    H147372   1.044   6.418   4.447  0.3721  0.2986 -0.3804
 8627TIP3    H247373   0.972   6.286   4.465  0.2946  0.4333  0.3199
 8628TIP3   OH247374   3.010   0.592   4.063  0.0484 -0.1455  0.5665
 8628TIP3    H147375   3.060   0.525   4.110 -0.6343  0.2601  1.8957
 8628TIP3    H247376   2.954   0.632   4.129 -1.1852  0.2244 -0.6485
 8629TIP3   OH247377   4.341   4.831   1.536  0.3357  0.9158  0.0761
 8629TIP3    H147378   4.392   4.893   1.588 -0.7469  1.7951  0.1267
 8629TIP3    H247379   4.307   4.883   1.464 -1.5194  0.6842  0.7256
 8630TIP3   OH247380   4.923   2.096  13.727 -0.1693  0.9241  0.5665
 8630TIP3    H147381   4.845   2.098  13.782 -0.5094 -0.5742  0.1865
 8630TIP3    H247382   4.898   2.147  13.649 -1.3293 -0.6898 -0.1922
 8631TIP3   OH247383   2.179   2.017   3.572 -0.0614 -0.0116 -0.4256
 8631TIP3    H147384   2.208   2.089   3.517  0.8086 -0.2695 -0.3077
 8631TIP3    H247385   2.219   1.939   3.534 -1.2088 -0.4847 -0.7185
 8632TIP3   OH247386   5.976   1.516   4.724 -0.1165 -0.5794 -0.4706
 8632TIP3    H147387   5.980   1.538   4.817  1.6215 -0.3820 -0.5562
 8632TIP3    H247388   6.013   1.427   4.718 -0.3357 -0.6453 -0.9597
 8633TIP3   OH247389   4.255   3.948   5.909 -0.1770  0.7615  0.1734
 8633TIP3    H147390   4.326   3.912   5.855 -0.7149  1.8355 -1.3119
 8633TIP3    H247391   4.300   3.998   5.977  0.5353 -1.2326  1.2652
 8634TIP3   OH247392   2.609   2.479   0.549  0.2173  0.0953  0.2602
 8634TIP3    H147393   2.524   2.508   0.516 -0.7327 -1.4381  1.1975
 8634TIP3    H247394   2.600   2.384   0.557  1.1071  0.1478  2.7850
 8635TIP3   OH247395   0.476   3.572   5.101  0.2567 -0.0848 -0.3956
 8635TIP3    H147396   0.536   3.589   5.174  2.1503 -0.9946 -1.6458
 8635TIP3    H247397   0.526   3.515   5.042 -1.7025 -0.5077 -1.7536
 8636TIP3   OH247398   5.259   3.873   1.173  0.0686 -0.0888  0.3161
 8636TIP3    H147399   5.207   3.924   1.235 -1.1763 -0.8327 -0.0582
 8636TIP3    H247400   5.328   3.932   1.143  1.7540 -0.1834  3.6075
 8637TIP3   OH247401   0.464   1.193   0.147  0.2015  0.3780  0.3665
 8637TIP3    H147402   0.507   1.108   0.160 -0.0911  0.5406  2.7258
 8637TIP3    H247403   0.536   1.253   0.124  1.0389  0.2605  2.4759
 8638TIP3   OH247404   2.943   2.944  14.739 -0.0144  0.2854  0.3253
 8638TIP3    H147405   2.852   2.915  14.737 -0.3746  1.2220  1.8242
 8638TIP3    H247406   2.976   2.913  14.823  0.3778  1.8355  0.7721
 8639TIP3   OH247407   4.678   5.958  11.169  0.4521 -0.5671  0.1413
 8639TIP3    H147408   4.762   5.987  11.204  0.9739 -1.5102 -0.2519
 8639TIP3    H247409   4.691   5.960  11.074 -0.4825  0.6841  0.0190
 8640TIP3   OH247410   1.814   4.890   2.240  0.3521  0.1044  0.3522
 8640TIP3    H147411   1.778   4.803   2.255 -0.5754  0.2697 -0.7594
 8640TIP3    H247412   1.870   4.881   2.163  1.2579  0.2366  0.9833
 8641TIP3   OH247413   2.170   5.283   6.069 -0.2665 -0.9574 -0.2220
 8641TIP3    H147414   2.251   5.318   6.108 -0.5486 -0.7756  0.2117
 8641TIP3    H247415   2.116   5.260   6.145 -0.4936 -1.3781 -0.5110
 8642TIP3   OH247416   5.821   3.348   4.166 -0.3075  0.4494  0.0298
 8642TIP3    H147417   5.752   3.325   4.228  0.3855  0.6419  0.8852
 8642TIP3    H247418   5.896   3.371   4.220  0.2154  0.9483 -0.8776
 8643TIP3   OH247419   0.317   3.875  14.741  0.6629 -0.0943  0.5759
 8643TIP3    H147420   0.397   3.917  14.708  1.5193 -0.0625  2.5049
 8643TIP3    H247421   0.246   3.932  14.711  1.1658 -0.7972 -2.2608
 8644TIP3   OH247422   1.893   6.793   2.603 -0.1769 -0.0122 -0.0054
 8644TIP3    H147423   1.827   6.854   2.636 -1.7305 -1.9752  0.6976
 8644TIP3    H247424   1.903   6.729   2.673  2.1040 -0.0995 -0.3445
 8645TIP3   OH247425   0.095   5.304   0.852  0.6531 -0.3462  0.2310
 8645TIP3    H147426   0.027   5.338   0.794 -0.5957 -1.1438  1.1817
 8645TIP3    H247427   0.170   5.363   0.838  0.2354 -0.2354 -1.7961
 8646TIP3   OH247428   3.229   3.650   1.890 -0.3603 -0.2871 -0.2025
 8646TIP3    H147429   3.318   3.614   1.885 -0.6404 -1.1828  0.7511
 8646TIP3    H247430   3.173   3.572   1.895 -1.2978  0.2435 -1.9040
 8647TIP3   OH247431   4.565   3.289  12.588 -0.2489 -0.5276 -0.5467
 8647TIP3    H147432   4.644   3.272  12.537  0.1898 -2.8105  0.7859
 8647TIP3    H247433   4.591   3.360  12.648  0.3154 -0.2789 -1.0643
 8648TIP3   OH247434   0.547   1.496   2.181 -0.0979 -0.3824  0.1441
 8648TIP3    H147435   0.474   1.435   2.187 -0.1065 -0.3040  0.9477
 8648TIP3    H247436   0.616   1.446   2.136 -0.2333 -0.8591  0.4542
 8649TIP3   OH247437   1.908   4.040   4.759 -0.1739 -0.1388  0.2425
 8649TIP3    H147438   1.990   4.083   4.736  0.0851 -1.0778 -0.6398
 8649TIP3    H247439   1.854   4.110   4.796  1.3881  0.3103  1.8590
 8650TIP3   OH247440   6.627   0.720   3.010  0.0906 -0.4135  0.2614
 8650TIP3    H147441   6.652   0.695   2.921 -0.2183  0.7927 -0.1886
 8650TIP3    H247442   6.588   0.641   3.047  0.6185 -1.0558 -0.5186
 8651TIP3   OH247443   2.278   3.974  16.823  0.8579  0.0673 -0.4656
 8651TIP3    H147444   2.354   3.925  16.856  0.9014  1.3506  1.5080
 8651TIP3    H247445   2.290   4.062  16.857 -1.4328  0.3393 -0.2269
 8652TIP3   OH247446   2.084   6.751  13.193  0.4129  0.0636 -0.0184
 8652TIP3    H147447   2.041   6.836  13.187  2.1913  1.0540  0.5479
 8652TIP3    H247448   2.045   6.710  13.271 -0.2008  0.4977 -0.0899
 8653TIP3   OH247449   3.115   2.959   4.441  0.0007  0.0114 -0.0733
 8653TIP3    H147450   3.145   3.050   4.448 -0.6415  0.4044 -1.7843
 8653TIP3    H247451   3.145   2.917   4.521  0.8801  1.5743  0.4553
 8654TIP3   OH247452   4.097   5.546  16.871  1.0372 -0.3104 -0.1585
 8654TIP3    H147453   4.096   5.462  16.825  2.7145 -0.2089 -0.4616
 8654TIP3    H247454   4.071   5.610  16.805 -1.8139 -0.6897  0.4715
 8655TIP3   OH247455   0.512   2.466  12.158  0.1495  0.4139 -0.6218
 8655TIP3    H147456   0.438   2.406  12.156  1.3605 -1.1251 -0.9759
 8655TIP3    H247457   0.490   2.533  12.093 -0.1155 -1.0613 -2.1029
 8656TIP3   OH247458   6.579   4.961   0.037 -0.0887  0.3652  0.6297
 8656TIP3    H147459   6.667   4.991   0.061  0.0733 -0.1526  0.7044
 8656TIP3    H247460   6.582   4.956  -0.059  0.0730  0.0387  0.6474
 8657TIP3   OH247461   6.153   1.409  13.575 -0.0101 -0.5298  0.6543
 8657TIP3    H147462   6.156   1.503  13.592 -0.9717 -0.6712  1.6799
 8657TIP3    H247463   6.113   1.402  13.488  2.1559  0.0719 -0.4650
 8658TIP3   OH247464   2.485   4.036   5.322  0.1433  0.3381  0.2727
 8658TIP3    H147465   2.481   4.092   5.245 -1.4248  1.2092  0.9485
 8658TIP3    H247466   2.452   4.090   5.393  1.2840 -0.5459  1.5210
 8659TIP3   OH247467   0.099   2.763   0.774  0.2553 -0.0493 -0.8130
 8659TIP3    H147468   0.031   2.829   0.758 -0.3626 -0.3309  0.4917
 8659TIP3    H247469   0.156   2.803   0.840 -1.4183 -1.6127  1.7395
 8660TIP3   OH247470   1.098   2.300  17.019 -0.5443 -0.0377  0.2828
 8660TIP3    H147471   1.178   2.248  17.025 -1.3201 -1.1943  1.1583
 8660TIP3    H247472   1.126   2.384  16.983  0.9783 -0.5783  0.1414
 8661TIP3   OH247473   5.912   4.446  15.446 -0.3599  0.1355 -0.3327
 8661TIP3    H147474   5.894   4.357  15.477  0.8492 -0.3374 -0.9300
 8661TIP3    H247475   6.001   4.465  15.476 -0.4238  0.9555 -0.6300
 8662TIP3   OH247476   4.954   6.010  15.477 -0.3546  0.7937  0.8883
 8662TIP3    H147477   4.879   5.979  15.426 -0.1327  1.6429  0.0181
 8662TIP3    H247478   5.006   6.062  15.415  1.6776 -0.8546  1.0645
 8663TIP3   OH247479   2.056   3.220   0.640 -0.1849 -0.0162  0.1457
 8663TIP3    H147480   2.098   3.137   0.615  0.7470  0.6029 -0.3984
 8663TIP3    H247481   2.121   3.287   0.620 -1.2271  0.9334 -0.1584
 8664TIP3   OH247482   1.373   0.491   2.354  0.1836  0.2786  0.4126
 8664TIP3    H147483   1.320   0.568   2.334  3.5022  2.0046 -2.7632
 8664TIP3    H247484   1.360   0.433   2.279 -0.2436 -1.1631  1.5450
 8665TIP3   OH247485   3.660   0.331   3.751 -0.1161  0.2558 -0.0637
 8665TIP3    H147486   3.578   0.372   3.722 -0.7600 -1.0755 -0.1750
 8665TIP3    H247487   3.707   0.311   3.670 -0.7224 -1.0539 -0.1072
 8666TIP3   OH247488   5.707   0.460  16.901 -0.1700  0.1565  0.2415
 8666TIP3    H147489   5.796   0.486  16.926 -0.5450  2.6579 -0.7820
 8666TIP3    H247490   5.711   0.449  16.806 -0.2470 -3.0332  0.4911
 8667TIP3   OH247491   4.242   4.521  12.130 -0.6473 -0.3598  0.4401
 8667TIP3    H147492   4.196   4.441  12.156 -0.7682 -0.5293 -0.2689
 8667TIP3    H247493   4.290   4.496  12.051 -0.6296  0.2524  0.2538
 8668TIP3   OH247494   6.127   4.229  12.356  0.0434 -0.5635 -0.3085
 8668TIP3    H147495   6.119   4.322  12.337 -0.2170 -1.2867 -4.4937
 8668TIP3    H247496   6.217   4.219  12.387  0.7565  0.8242 -1.8171
 8669TIP3   OH247497   3.665   2.171  12.058  0.4830 -0.3008 -0.3105
 8669TIP3    H147498   3.748   2.169  12.010  0.0725  2.0905 -1.2622
 8669TIP3    H247499   3.599   2.186  11.990 -0.1395  3.0012  0.8508
 8670TIP3   OH247500   4.610   0.990   2.054  0.6727 -0.2963  0.5991
 8670TIP3    H147501   4.528   1.004   2.103  1.4167  1.8355  1.3579
 8670TIP3    H247502   4.677   1.035   2.106  2.4292 -2.2092  0.1422
 8671TIP3   OH247503   0.800   3.624   2.357 -0.1278 -0.1066 -0.0713
 8671TIP3    H147504   0.887   3.583   2.354 -0.0439  0.0993 -0.6091
 8671TIP3    H247505   0.775   3.633   2.265  0.1892  1.7481 -0.0179
 8672TIP3   OH247506   0.972   3.785  11.535  0.5279 -0.4501 -0.3438
 8672TIP3    H147507   0.940   3.750  11.453  2.8310  1.0165 -1.9943
 8672TIP3    H247508   1.058   3.745  11.547  0.8643  0.4735  0.5556
 8673TIP3   OH247509   0.881   1.966   4.586 -0.0143 -0.4555  0.4015
 8673TIP3    H147510   0.824   1.925   4.651  1.4938 -0.9805  1.4493
 8673TIP3    H247511   0.919   2.040   4.632 -1.5420  1.3032 -1.0101
 8674TIP3   OH247512   0.770   0.120  13.851 -0.2310  0.1625  0.0724
 8674TIP3    H147513   0.709   0.191  13.831  1.3905  2.4947  2.6544
 8674TIP3    H247514   0.714   0.045  13.871 -2.0313  0.8696 -1.8640
 8675TIP3   OH247515   3.769   3.794   0.279 -0.0175  0.2243  0.0496
 8675TIP3    H147516   3.859   3.796   0.310  0.0703  0.6772 -0.2305
 8675TIP3    H247517   3.776   3.787   0.184 -0.2482  2.0269 -0.1238
 8676TIP3   OH247518   5.105   1.615   2.689 -0.0973 -0.3828 -0.0033
 8676TIP3    H147519   5.126   1.655   2.604 -0.2456 -2.9376 -1.3470
 8676TIP3    H247520   5.021   1.653   2.714  0.1063  0.6500 -0.8292
 8677TIP3   OH247521   2.970   4.011   2.139  0.1319 -0.0121 -0.5785
 8677TIP3    H147522   2.911   3.938   2.160  0.6675 -0.6201 -1.1403
 8677TIP3    H247523   3.022   3.979   2.065 -0.6306  1.4873 -1.8100
 8678TIP3   OH247524   5.131   3.194   4.951  0.4504 -0.1646  0.0692
 8678TIP3    H147525   5.177   3.278   4.945  2.3206 -1.0500  1.2146
 8678TIP3    H247526   5.200   3.129   4.962 -1.0568 -1.5320  2.3451
 8679TIP3   OH247527   2.605   2.253  10.744 -0.0023 -0.5557 -0.1674
 8679TIP3    H147528   2.642   2.249  10.656 -1.1808  0.0757 -0.7164
 8679TIP3    H247529   2.576   2.343  10.754 -1.2228 -0.9772  0.3016
 8680TIP3   OH247530   2.882   1.322   0.500 -0.6364 -0.0498 -0.0610
 8680TIP3    H147531   2.978   1.322   0.510 -0.8394  0.0325  2.7742
 8680TIP3    H247532   2.863   1.400   0.448  0.7608  0.7754  0.6182
 8681TIP3   OH247533   0.137   3.936  12.048  0.3461 -0.1207 -0.1109
 8681TIP3    H147534   0.131   3.999  11.976 -0.3486  0.0740  0.1093
 8681TIP3    H247535   0.189   3.864  12.013 -1.5010 -0.8653 -1.4325
 8682TIP3   OH247536   0.918   0.368   5.477 -0.2325  0.1401  0.2977
 8682TIP3    H147537   0.906   0.430   5.548  0.8874 -0.8158  1.3805
 8682TIP3    H247538   0.830   0.352   5.442 -0.9101  0.0918  1.9506
 8683TIP3   OH247539   3.528   2.456   4.578  0.6276  0.1541  0.1342
 8683TIP3    H147540   3.548   2.429   4.488  1.0577 -0.1110  0.3032
 8683TIP3    H247541   3.613   2.485   4.613  0.4116  0.5088  0.3692
 8684TIP3   OH247542   4.706   5.150   3.076 -0.2619  0.2774  0.7746
 8684TIP3    H147543   4.802   5.154   3.083  0.0206 -1.7227 -0.8149
 8684TIP3    H247544   4.681   5.230   3.031  0.9059  0.0206 -0.3958
 8685TIP3   OH247545   2.851   5.683   5.343  0.0296  0.1176 -0.4048
 8685TIP3    H147546   2.892   5.722   5.421 -1.1808  0.1139  0.2595
 8685TIP3    H247547   2.804   5.607   5.377  1.1114 -1.0708 -1.4549
 8686TIP3   OH247548   5.581   4.394  13.265  0.0443  0.4505 -0.2487
 8686TIP3    H147549   5.488   4.420  13.264 -0.5619 -1.5355 -0.0613
 8686TIP3    H247550   5.621   4.452  13.330 -1.1434  1.0771 -0.0427
 8687TIP3   OH247551   4.182   3.184  14.665  0.0205 -0.1648 -0.2446
 8687TIP3    H147552   4.124   3.108  14.676  0.1401 -0.9340 -3.7518
 8687TIP3    H247553   4.210   3.206  14.754 -2.9395 -1.8798  1.2540
 8688TIP3   OH247554   2.433   0.261   4.775 -0.3171  0.5940 -0.6143
 8688TIP3    H147555   2.441   0.275   4.681  2.0704  1.0084 -0.4096
 8688TIP3    H247556   2.428   0.166   4.785 -2.0387  0.5842 -1.1931
 8689TIP3   OH247557   2.815   6.419  12.171  0.0823 -0.8359  0.1401
 8689TIP3    H147558   2.849   6.503  12.141  0.2454 -0.3299  1.6298
 8689TIP3    H247559   2.845   6.355  12.106  0.4907  0.1716 -0.6725
 8690TIP3   OH247560   2.966   2.562  15.849  0.4500 -0.0113 -0.1849
 8690TIP3    H147561   2.947   2.627  15.916 -3.7374 -2.1861  1.0831
 8690TIP3    H247562   2.941   2.604  15.767  3.0669  1.7180 -0.2363
 8691TIP3   OH247563   5.813   1.311   0.326 -0.4977  1.0610 -0.1874
 8691TIP3    H147564   5.737   1.367   0.315 -3.4975 -1.9507  2.8213
 8691TIP3    H247565   5.860   1.348   0.400 -2.3565 -0.0886  1.6629
 8692TIP3   OH247566   1.105   1.364  11.121  0.7614 -0.1596  0.0258
 8692TIP3    H147567   1.032   1.358  11.060  1.1910  1.1833 -0.6562
 8692TIP3    H247568   1.115   1.276  11.156 -1.0155 -0.4155 -0.0574
 8693TIP3   OH247569   0.803   5.190  15.625  0.2097 -0.1685 -0.1090
 8693TIP3    H147570   0.883   5.155  15.587  0.1726  0.3981 -0.7303
 8693TIP3    H247571   0.768   5.249  15.558  0.4997  1.3978  1.0581
 8694TIP3   OH247572   4.435   3.878  12.793 -0.6400 -0.4602 -0.1936
 8694TIP3    H147573   4.502   3.816  12.763  0.2187  0.9827 -1.3927
 8694TIP3    H247574   4.474   3.921  12.869 -0.8192 -0.6756  0.0206
 8695TIP3   OH247575   6.646   0.520   0.840  0.2090 -0.1109  0.1816
 8695TIP3    H147576   6.630   0.611   0.864 -0.9535 -0.3687  0.4473
 8695TIP3    H247577   6.723   0.494   0.891 -0.7222  0.0999  1.7535
 8696TIP3   OH247578   5.073   3.732  10.469  0.2179  0.1534 -0.4658
 8696TIP3    H147579   5.083   3.770  10.556  3.2085 -0.4823 -0.4236
 8696TIP3    H247580   5.059   3.806  10.411  4.1988  1.3736 -0.1598
 8697TIP3   OH247581   3.404   0.458  14.957  0.2247 -0.0100  0.0138
 8697TIP3    H147582   3.439   0.547  14.963  0.3831  0.0811 -1.5903
 8697TIP3    H247583   3.482   0.402  14.952  0.1601 -0.0232 -1.1440
 8698TIP3   OH247584   3.078   4.894  16.598  0.2715  0.6117 -0.0677
 8698TIP3    H147585   3.066   4.823  16.661  0.0239  0.5377 -0.1944
 8698TIP3    H247586   3.128   4.961  16.645  4.3696 -1.3507 -1.1926
 8699TIP3   OH247587   0.753   3.140  12.001 -0.4261 -0.1286 -0.4134
 8699TIP3    H147588   0.725   3.088  12.077  1.0369 -0.9946 -0.4330
 8699TIP3    H247589   0.770   3.075  11.933  0.6517  0.4369 -0.6980
 8700TIP3   OH247590   4.119   0.821   3.025 -0.7578  0.4694  0.1052
 8700TIP3    H147591   4.030   0.786   3.016  0.0124 -1.5962 -0.0502
 8700TIP3    H247592   4.132   0.829   3.119 -0.4357 -1.2013  0.2332
 8701TIP3   OH247593   2.182   2.511   6.542  0.1097 -0.1903  0.0812
 8701TIP3    H147594   2.129   2.587   6.518 -0.5242 -0.9582 -1.0131
 8701TIP3    H247595   2.267   2.548   6.567 -0.7648  1.0240  1.4286
 8702TIP3   OH247596   1.285   5.684  12.591  0.1448 -0.0467  0.2146
 8702TIP3    H147597   1.292   5.685  12.686 -2.0453  1.9594  0.4290
 8702TIP3    H247598   1.250   5.597  12.570 -1.5106  0.2731  1.4810
 8703TIP3   OH247599   4.474   0.767  12.640  0.1374  0.7569  0.4243
 8703TIP3    H147600   4.454   0.787  12.732  1.8369  2.9825  0.3764
 8703TIP3    H247601   4.421   0.829  12.590 -0.1719  0.0931 -0.0839
 8704TIP3   OH247602   2.267   5.409   3.547  0.0375  0.6336 -0.2146
 8704TIP3    H147603   2.243   5.316   3.544  0.9167  0.4127 -1.9095
 8704TIP3    H247604   2.183   5.456   3.546 -0.4213 -0.1484 -1.4643
 8705TIP3   OH247605   3.468   5.419  12.155 -0.1002 -0.0548 -0.0996
 8705TIP3    H147606   3.397   5.438  12.217 -1.2862 -0.7014 -1.2135
 8705TIP3    H247607   3.426   5.423  12.069  0.9770 -1.4322 -0.7221
 8706TIP3   OH247608   4.908   0.099  13.116  0.1830 -0.2288 -0.4047
 8706TIP3    H147609   4.921   0.188  13.081 -0.2511 -0.8668 -2.3431
 8706TIP3    H247610   4.994   0.058  13.108  0.0859 -0.3711 -0.7566
 8707TIP3   OH247611   1.592   6.774  16.196 -0.5191  0.2333 -0.0994
 8707TIP3    H147612   1.557   6.696  16.239 -0.6122 -0.0377 -0.6606
 8707TIP3    H247613   1.515   6.818  16.161 -0.6403  1.3804  1.4836
 8708TIP3   OH247614   3.970   3.328  11.107 -0.0065 -0.2267  0.6164
 8708TIP3    H147615   3.993   3.391  11.039 -0.1788  1.5510  2.1287
 8708TIP3    H247616   3.887   3.290  11.077  0.2719 -0.0073 -0.4902
 8709TIP3   OH247617   5.353   0.975  16.155 -0.8145  0.3465  0.0764
 8709TIP3    H147618   5.373   0.977  16.249  0.8848 -0.9754 -0.2170
 8709TIP3    H247619   5.439   0.976  16.113 -1.5529  0.5102 -1.4654
 8710TIP3   OH247620   2.414   0.062   0.714  0.5053 -0.5032  0.0409
 8710TIP3    H147621   2.470   0.075   0.791  1.0175 -1.5501 -0.1296
 8710TIP3    H247622   2.426   0.140   0.661  1.3055 -0.4290  0.3254
 8711TIP3   OH247623   2.290   2.923   3.998 -0.0805 -0.4892 -0.0891
 8711TIP3    H147624   2.258   2.903   3.910 -0.0587 -0.2394 -0.1550
 8711TIP3    H247625   2.366   2.867   4.010  2.8408  2.6860 -2.0349
 8712TIP3   OH247626   0.694   4.047  16.321  0.2794  0.5225  0.7149
 8712TIP3    H147627   0.717   4.103  16.396  0.0785 -0.5499  1.6087
 8712TIP3    H247628   0.705   3.958  16.354 -1.2158  0.0045 -0.0849
 8713TIP3   OH247629   0.237   0.716  11.749  0.5237 -0.5807 -0.2467
 8713TIP3    H147630   0.272   0.627  11.747  1.1137 -0.3390 -1.6655
 8713TIP3    H247631   0.144   0.705  11.767  0.1606 -1.6611 -2.5138
 8714TIP3   OH247632   6.223   6.315   5.185 -0.6174 -0.3481  0.1768
 8714TIP3    H147633   6.260   6.281   5.104  0.3814  0.0272  0.4586
 8714TIP3    H247634   6.256   6.404   5.191 -2.5743  0.4556 -0.1654
 8715TIP3   OH247635   4.476   0.420   6.254 -0.7062  0.5340 -0.2500
 8715TIP3    H147636   4.383   0.411   6.232 -0.7203 -1.0256  0.3216
 8715TIP3    H247637   4.478   0.420   6.350 -0.1558  1.0683 -0.2560
 8716TIP3   OH247638   0.215   3.555   5.170 -0.5758  0.1971 -0.0612
 8716TIP3    H147639   0.305   3.546   5.141 -0.2438  0.2552  0.9139
 8716TIP3    H247640   0.208   3.498   5.247 -1.2230  0.5895  0.1819
 8717TIP3   OH247641   3.761   0.336   1.024  0.0459  0.2313  0.3921
 8717TIP3    H147642   3.727   0.346   1.112 -1.0582 -0.1420  0.0227
 8717TIP3    H247643   3.697   0.379   0.968  0.6502  0.3234 -0.2428
 8718TIP3   OH247644   3.307   6.478   1.513 -0.0840 -0.6632 -0.4314
 8718TIP3    H147645   3.281   6.386   1.513  0.5468 -0.9157  2.0678
 8718TIP3    H247646   3.399   6.477   1.539 -0.0992  0.6675 -0.2610
 8719TIP3   OH247647   5.171   0.323  16.880  0.0865  0.3663  0.6231
 8719TIP3    H147648   5.149   0.355  16.793  0.7936  0.1018  0.3378
 8719TIP3    H247649   5.239   0.382  16.911 -0.5360  0.7748  1.2140
 8720TIP3   OH247650   2.148   2.775   4.288 -0.3347  0.5148 -0.0414
 8720TIP3    H147651   2.130   2.710   4.219  0.8999  1.2475 -1.1071
 8720TIP3    H247652   2.209   2.731   4.347 -1.5645 -0.1939  0.7352
 8721TIP3   OH247653   6.622   2.021   2.016 -0.1279 -0.2595  0.1749
 8721TIP3    H147654   6.572   1.954   1.970  1.1661  0.0565 -1.8256
 8721TIP3    H247655   6.684   1.972   2.070 -0.0979 -0.6678 -0.2251
 8722TIP3   OH247656   1.726   4.893   3.460 -0.5697 -0.3452  0.4506
 8722TIP3    H147657   1.743   4.954   3.532 -2.2306 -0.1360  0.6941
 8722TIP3    H247658   1.743   4.807   3.498 -1.7218 -0.2564  1.2146
 8723TIP3   OH247659   5.667   1.091  13.315  0.3847 -0.2682 -0.4537
 8723TIP3    H147660   5.659   0.998  13.333 -0.6295 -0.0650  0.2365
 8723TIP3    H247661   5.754   1.101  13.277  1.5229 -1.1592  1.7660
 8724TIP3   OH247662   3.960   3.012  16.085  0.0532  0.4711 -0.1748
 8724TIP3    H147663   4.011   3.009  16.165  1.4725 -1.3118 -1.0885
 8724TIP3    H247664   4.002   3.080  16.032  0.3860  0.2361 -0.2160
 8725TIP3   OH247665   3.837   0.803   3.003  0.3486 -0.2813 -0.2684
 8725TIP3    H147666   3.843   0.857   2.925 -0.5025 -0.0374 -0.1721
 8725TIP3    H247667   3.750   0.764   2.999  0.7458 -1.2444 -0.0683
 8726TIP3   OH247668   6.666   6.246   2.581  0.1816  0.3601  0.3161
 8726TIP3    H147669   6.735   6.183   2.559 -0.7147 -0.5784  0.1040
 8726TIP3    H247670   6.623   6.264   2.497 -0.1730  0.5230  0.5311
 8727TIP3   OH247671   6.758   1.446   4.910  0.3162 -0.5649 -0.2798
 8727TIP3    H147672   6.673   1.459   4.868  0.6192 -0.8601 -1.0013
 8727TIP3    H247673   6.821   1.484   4.849  0.9216 -2.5656 -0.9764
 8728TIP3   OH247674   2.074   1.706  15.242  0.6230  0.3697  0.1503
 8728TIP3    H147675   2.089   1.682  15.151 -1.7518  0.0970 -0.2345
 8728TIP3    H247676   2.070   1.801  15.243 -1.3220  0.3480 -0.4702
 8729TIP3   OH247677   5.771   6.058  13.645  0.3879  0.2574 -0.2584
 8729TIP3    H147678   5.801   6.147  13.661 -0.0068  0.3916 -0.2610
 8729TIP3    H247679   5.676   6.062  13.657  0.3440 -0.1149 -0.4773
 8730TIP3   OH247680   1.452   6.408   5.405  0.2726 -0.0063 -1.0051
 8730TIP3    H147681   1.390   6.428   5.334  2.1419  0.6263 -2.5385
 8730TIP3    H247682   1.518   6.477   5.400  0.5019  0.0255  1.3706
 8731TIP3   OH247683   4.192   3.016   0.309 -0.2450 -0.2584 -0.0630
 8731TIP3    H147684   4.227   3.058   0.388 -0.6021  1.5155 -0.8015
 8731TIP3    H247685   4.104   2.987   0.334 -0.6012  0.8692  0.0245
 8732TIP3   OH247686   6.046   4.405   5.808  0.6759 -0.5390  0.0087
 8732TIP3    H147687   6.049   4.415   5.903 -1.2898 -0.6533  0.1108
 8732TIP3    H247688   6.009   4.487   5.776 -2.2201 -1.8428 -0.2959
 8733TIP3   OH247689   6.240   4.452   4.684  0.0351 -0.1034  0.0908
 8733TIP3    H147690   6.322   4.423   4.643 -0.7356 -4.0315  0.9136
 8733TIP3    H247691   6.227   4.392   4.757 -2.6196  1.6872  1.2455
 8734TIP3   OH247692   1.039   0.836   3.497 -0.3825  0.2006 -0.1337
 8734TIP3    H147693   1.126   0.874   3.498  0.2696 -0.9975  3.2795
 8734TIP3    H247694   0.982   0.904   3.533 -0.2011 -0.1560  0.8532
 8735TIP3   OH247695   0.622   4.522   3.331 -0.3726 -0.1226  0.0168
 8735TIP3    H147696   0.683   4.585   3.293 -0.6902  0.8933  1.1130
 8735TIP3    H247697   0.673   4.442   3.340  0.3994  0.3179 -0.3226
 8736TIP3   OH247698   2.614   0.751  15.374  0.3630  0.1425 -0.0914
 8736TIP3    H147699   2.616   0.805  15.453  0.3927  0.2073 -0.1378
 8736TIP3    H247700   2.642   0.809  15.303  1.2021 -0.1512 -0.0119
 8737TIP3   OH247701   3.159   6.296   4.181 -0.4573 -0.4143 -0.3768
 8737TIP3    H147702   3.226   6.312   4.114  2.0452 -0.0732  2.0332
 8737TIP3    H247703   3.151   6.380   4.227 -1.8949 -0.7275 -0.0261
 8738TIP3   OH247704   0.372   6.047  13.382 -0.2567 -0.5511  0.3944
 8738TIP3    H147705   0.391   6.006  13.467  0.3217 -0.0678  0.5079
 8738TIP3    H247706   0.382   5.977  13.318 -2.6855 -1.4597  0.8756
 8739TIP3   OH247707   0.354   3.890   0.388  0.7852 -0.0549  0.4039
 8739TIP3    H147708   0.316   3.961   0.335  0.6328  0.0092  0.6000
 8739TIP3    H247709   0.281   3.831   0.405  1.2138 -1.0331 -1.0053
 8740TIP3   OH247710   0.103   0.110   2.121  0.4394  0.1433 -0.1987
 8740TIP3    H147711   0.089   0.068   2.037 -0.1973 -0.1007  0.0259
 8740TIP3    H247712   0.018   0.147   2.144  0.9257  1.3451 -0.2743
 8741TIP3   OH247713   5.598   2.455  16.048  0.4529 -0.1991 -0.0898
 8741TIP3    H147714   5.693   2.463  16.051  0.5236 -1.0060  2.0652
 8741TIP3    H247715   5.581   2.378  15.995  0.9229  0.4494 -1.2204
 8742TIP3   OH247716   3.043   0.662  13.702 -0.3287 -0.3400  0.1894
 8742TIP3    H147717   2.977   0.724  13.732 -0.1708 -0.7454  1.4695
 8742TIP3    H247718   3.082   0.702  13.625  0.9835  2.0317  1.9411
 8743TIP3   OH247719   5.463   4.129  13.915 -0.5005  0.2239  0.0399
 8743TIP3    H147720   5.465   4.048  13.864 -1.5954  1.0237 -1.3826
 8743TIP3    H247721   5.385   4.121  13.970 -0.7617  0.3959 -0.2965
 8744TIP3   OH247722   1.248   1.374   2.728  0.2680  0.1370 -0.9674
 8744TIP3    H147723   1.185   1.395   2.659  0.2535 -0.5924 -1.1799
 8744TIP3    H247724   1.244   1.279   2.737 -0.0595  0.2586  0.3596
 8745TIP3   OH247725   3.172   5.167   2.619  0.2472 -0.7667 -0.1805
 8745TIP3    H147726   3.239   5.231   2.596 -0.4806 -0.1977 -0.7827
 8745TIP3    H247727   3.158   5.180   2.713 -0.6597  0.7417 -0.4876
 8746TIP3   OH247728   5.775   5.596   3.539  0.0625 -0.0656  0.2012
 8746TIP3    H147729   5.851   5.636   3.582  0.4308  0.6033 -1.0249
 8746TIP3    H247730   5.737   5.539   3.606  0.6494  0.8862  1.3879
 8747TIP3   OH247731   5.859   5.040   1.436 -0.0848 -0.1433  0.0168
 8747TIP3    H147732   5.931   5.052   1.498  0.4719  1.2914 -0.8393
 8747TIP3    H247733   5.796   5.108   1.460 -0.8580 -0.9728  0.3480
 8748TIP3   OH247734   0.419   2.943   1.761 -0.5276 -0.5053 -0.4746
 8748TIP3    H147735   0.443   2.850   1.754 -2.0597 -0.9372 -0.3404
 8748TIP3    H247736   0.327   2.946   1.734 -1.1437  0.6222  1.5513
 8749TIP3   OH247737   5.777   1.152   5.353  0.3233  0.8453  0.1952
 8749TIP3    H147738   5.808   1.221   5.296 -1.0092 -0.2345 -1.9467
 8749TIP3    H247739   5.686   1.176   5.373 -0.1116 -0.1809 -0.4694
 8750TIP3   OH247740   4.550   5.499  13.250  0.0774  0.0368  0.0964
 8750TIP3    H147741   4.571   5.456  13.333  1.7997  2.0538  0.7912
 8750TIP3    H247742   4.469   5.547  13.267  0.0274 -0.1486  0.3762
 8751TIP3   OH247743   4.330   2.724   2.343 -0.0233 -0.1529 -0.1030
 8751TIP3    H147744   4.313   2.650   2.401  1.9188  0.5200  1.4502
 8751TIP3    H247745   4.298   2.695   2.257 -0.0368 -2.4684  0.6111
 8752TIP3   OH247746   5.771   4.950   3.905  0.3564 -0.5256 -0.2842
 8752TIP3    H147747   5.747   4.879   3.845  0.0331 -1.9227  1.4084
 8752TIP3    H247748   5.772   5.028   3.850  4.7770 -2.2636 -3.2860
 8753TIP3   OH247749   6.585   1.030  16.587 -0.0434  0.8186  0.2918
 8753TIP3    H147750   6.572   1.047  16.494  1.0266 -2.2414 -0.5124
 8753TIP3    H247751   6.674   0.997  16.594 -0.9930 -1.6456  1.9285
 8754TIP3   OH247752   1.908   2.667   5.895  0.8003  0.6184 -0.2035
 8754TIP3    H147753   1.905   2.644   5.802  1.3424 -2.1800  0.3808
 8754TIP3    H247754   1.978   2.732   5.901 -1.9186  4.1315 -2.2187
 8755TIP3   OH247755   6.613   0.660   3.417 -0.0629 -0.2709  0.4222
 8755TIP3    H147756   6.653   0.626   3.497  0.0511  0.7368  0.8062
 8755TIP3    H247757   6.569   0.741   3.444  0.6623  0.5193 -0.6848
 8756TIP3   OH247758   1.490   0.349   1.330  0.2997  0.4934  0.1428
 8756TIP3    H147759   1.418   0.292   1.358  1.3786 -0.3846  1.2485
 8756TIP3    H247760   1.558   0.336   1.396  1.4731  1.3168 -0.8569
 8757TIP3   OH247761   6.352   3.380   5.019  0.1620  0.0923  0.1549
 8757TIP3    H147762   6.358   3.458   5.074  2.3197 -1.0301  1.6691
 8757TIP3    H247763   6.260   3.356   5.021 -0.0693  0.9283  2.1321
 8758TIP3   OH247764   5.933   5.996   2.369 -0.3039 -0.0827  0.2369
 8758TIP3    H147765   5.864   5.943   2.328 -0.8870  1.4558 -0.8681
 8758TIP3    H247766   6.014   5.963   2.331 -0.7724  0.7719 -1.6274
 8759TIP3   OH247767   0.225   2.369   3.060 -0.1975  0.0290  0.0107
 8759TIP3    H147768   0.281   2.400   2.988  0.0525 -0.4676 -0.0119
 8759TIP3    H247769   0.265   2.287   3.087  0.2569  0.6627  1.3484
 8760TIP3   OH247770   4.462   4.984   1.198 -0.5861 -0.2349  0.7285
 8760TIP3    H147771   4.420   4.928   1.133  0.0721 -1.7239  1.5326
 8760TIP3    H247772   4.458   5.072   1.161 -0.1478 -1.0483 -1.3812
 8761TIP3   OH247773   2.694   4.845   5.723  0.5332  0.1395  0.0482
 8761TIP3    H147774   2.696   4.845   5.818 -1.1315  0.5731  0.1135
 8761TIP3    H247775   2.731   4.929   5.698 -0.8783  0.9040  0.4152
 8762TIP3   OH247776   2.318   3.076  14.943 -0.0656  0.5644  0.0685
 8762TIP3    H147777   2.327   3.147  14.880 -2.8901  0.8839 -0.0982
 8762TIP3    H247778   2.272   3.007  14.896 -1.7522  0.5937  1.5349
 8763TIP3   OH247779   3.071   3.282   2.474 -0.3033 -0.7510 -0.0268
 8763TIP3    H147780   3.134   3.314   2.538 -1.2908  0.0223  0.5797
 8763TIP3    H247781   3.116   3.292   2.390  0.9094 -1.5391  0.4960
 8764TIP3   OH247782   2.486   5.309  11.484  0.1702 -0.3927  0.7282
 8764TIP3    H147783   2.573   5.314  11.523  0.6650 -1.5451 -0.1658
 8764TIP3    H247784   2.492   5.238  11.420 -1.0488  0.4125 -0.3272
 8765TIP3   OH247785   1.283   2.611   2.618  0.2387  0.5790 -0.3500
 8765TIP3    H147786   1.363   2.574   2.581 -0.8171 -0.1552 -2.0613
 8765TIP3    H247787   1.213   2.577   2.562 -1.1875  1.9566  0.5009
 8766TIP3   OH247788   4.455   0.649  10.428 -0.0699  0.5022 -0.0628
 8766TIP3    H147789   4.468   0.744  10.419 -1.7689  0.7355 -0.3490
 8766TIP3    H247790   4.536   0.618  10.469  0.5178  2.0733  0.0515
 8767TIP3   OH247791   0.985   3.402   4.035 -0.0601  0.6011  0.0980
 8767TIP3    H147792   1.035   3.352   4.100 -0.8407 -0.3100  0.0178
 8767TIP3    H247793   1.052   3.442   3.980  0.5993  0.1470  0.5430
 8768TIP3   OH247794   1.816   6.834  16.055 -0.2119 -0.3560 -0.1940
 8768TIP3    H147795   1.750   6.798  16.114 -1.8099  0.3703 -1.4601
 8768TIP3    H247796   1.853   6.759  16.009  0.2396 -0.8142  0.8898
 8769TIP3   OH247797   2.754   6.554   1.558  0.3612  0.1498 -0.1176
 8769TIP3    H147798   2.810   6.518   1.628  1.8942  1.0332 -0.8386
 8769TIP3    H247799   2.772   6.648   1.559 -1.7621  0.6106  0.1357
 8770TIP3   OH247800   1.324   2.563   2.272  0.8288  0.0595 -0.0209
 8770TIP3    H147801   1.316   2.479   2.315 -2.4170 -0.0654 -0.6173
 8770TIP3    H247802   1.242   2.608   2.291  1.9652  2.6220 -0.7070
 8771TIP3   OH247803   0.525   3.489  15.964  0.5097  0.4844 -0.1224
 8771TIP3    H147804   0.598   3.472  15.905  1.8890  4.2294  0.1803
 8771TIP3    H247805   0.448   3.485  15.908  1.1886 -1.0701 -1.0121
 8772TIP3   OH247806   1.512   0.218   2.168 -0.4415  0.3994 -0.3384
 8772TIP3    H147807   1.552   0.285   2.112  2.2494 -0.3989  0.4398
 8772TIP3    H247808   1.537   0.244   2.257  0.8728 -1.6533 -0.0328
 8773TIP3   OH247809   1.681   6.243  15.204 -0.5196  0.3336 -0.1152
 8773TIP3    H147810   1.759   6.258  15.152  0.4977 -1.1593  0.8891
 8773TIP3    H247811   1.643   6.330  15.217  1.2226  1.1422 -0.2389
 8774TIP3   OH247812   5.758   4.376   0.509 -0.5950 -0.8692  0.3702
 8774TIP3    H147813   5.841   4.419   0.526 -1.1943  0.3991  0.2477
 8774TIP3    H247814   5.693   4.430   0.554 -1.5442 -0.7545 -1.0479
 8775TIP3   OH247815   5.327   4.820  11.236 -0.3218 -0.1756 -0.4718
 8775TIP3    H147816   5.331   4.914  11.223 -0.0890 -0.1806 -0.4528
 8775TIP3    H247817   5.259   4.789  11.177 -1.8594  0.2535  1.0048
 8776TIP3   OH247818   3.815   1.979   3.095 -0.2296 -0.4563 -0.1082
 8776TIP3    H147819   3.894   1.926   3.085  0.2255  0.2085 -0.1198
 8776TIP3    H247820   3.803   1.986   3.189 -0.6789 -1.1327 -0.1071
 8777TIP3   OH247821   1.873   1.675  12.381 -0.2334  0.1394  0.6172
 8777TIP3    H147822   1.856   1.686  12.288 -0.7792 -0.6723  0.6074
 8777TIP3    H247823   1.964   1.647  12.387 -0.7783 -1.9349  0.1347
 8778TIP3   OH247824   4.494   3.939   4.695  0.3264  0.2061  0.1605
 8778TIP3    H147825   4.451   3.947   4.780  1.5612  0.0587  0.8200
 8778TIP3    H247826   4.536   3.853   4.697  0.1802  0.1062 -0.6942
 8779TIP3   OH247827   4.108   4.820  15.988  0.0228 -0.6651  0.7027
 8779TIP3    H147828   4.034   4.801  15.931  0.3930 -0.9812  0.3177
 8779TIP3    H247829   4.104   4.915  16.003 -1.0792 -0.8354  1.5704
 8780TIP3   OH247830   5.553   4.263   2.986 -0.4881  0.3806  0.7476
 8780TIP3    H147831   5.619   4.316   3.031 -0.4267  0.0832  1.0116
 8780TIP3    H247832   5.588   4.252   2.897  0.9776 -1.6979  1.4891
 8781TIP3   OH247833   5.527   4.509   1.308  0.1761 -0.4777 -0.2058
 8781TIP3    H147834   5.462   4.572   1.278  0.3356 -1.7691 -3.7575
 8781TIP3    H247835   5.481   4.457   1.375 -1.4555  0.4858 -0.5150
 8782TIP3   OH247836   4.327   4.317   3.717  0.2576  0.0605 -0.2135
 8782TIP3    H147837   4.420   4.338   3.732  0.2108 -0.7390  1.4410
 8782TIP3    H247838   4.329   4.240   3.661  0.4995  1.6017 -2.4479
 8783TIP3   OH247839   2.444   6.520   3.149 -0.0799  0.7071  0.3523
 8783TIP3    H147840   2.506   6.553   3.214  1.2682 -1.0234  0.0260
 8783TIP3    H247841   2.405   6.443   3.190 -1.3543  1.2394  0.1795
 8784TIP3   OH247842   2.433   0.845   0.260 -0.1540 -0.4319  0.3959
 8784TIP3    H147843   2.357   0.846   0.202  1.2518  2.8166 -1.6437
 8784TIP3    H247844   2.492   0.779   0.221  0.5427  1.3252 -1.7345
 8785TIP3   OH247845   5.678   3.015   1.365  0.3155 -0.4522 -0.9031
 8785TIP3    H147846   5.593   3.037   1.402  0.0129 -0.9414 -1.2991
 8785TIP3    H247847   5.665   2.930   1.323  0.8074 -0.2032 -1.5900
 8786TIP3   OH247848   4.320   0.285  14.972 -0.2730  0.4440 -0.1848
 8786TIP3    H147849   4.254   0.353  14.990 -0.7745 -0.2292  0.5742
 8786TIP3    H247850   4.288   0.243  14.892  0.2497  1.3453 -0.8856
 8787TIP3   OH247851   2.372   5.609  16.457  0.4983  0.2101 -0.2950
 8787TIP3    H147852   2.461   5.606  16.420  0.2809 -0.1358 -0.8050
 8787TIP3    H247853   2.334   5.524  16.434 -0.3211  0.7381 -0.9803
 8788TIP3   OH247854   6.129   4.780   4.674 -0.3073  0.0929 -0.0385
 8788TIP3    H147855   6.100   4.775   4.765 -1.0267 -0.4806 -0.2867
 8788TIP3    H247856   6.089   4.860   4.640 -1.9681 -0.8684 -0.4751
 8789TIP3   OH247857   2.190   6.419   4.653  0.0301  0.2781 -0.5352
 8789TIP3    H147858   2.117   6.424   4.714 -0.4461 -2.3621 -0.7839
 8789TIP3    H247859   2.267   6.441   4.705 -0.4715 -1.0035  0.8074
 8790TIP3   OH247860   3.943   3.805   4.958 -0.0993 -0.2359 -0.3065
 8790TIP3    H147861   3.873   3.787   5.021 -0.4526  0.2405 -0.5548
 8790TIP3    H247862   3.906   3.783   4.873  0.1889 -0.3503 -0.4046
 8791TIP3   OH247863   5.265   1.660  12.206 -0.3095  0.5780  0.1103
 8791TIP3    H147864   5.309   1.628  12.284 -1.7998  1.0922  1.2155
 8791TIP3    H247865   5.198   1.720  12.239 -2.6199 -1.0135 -1.3237
 8792TIP3   OH247866   3.100   6.403   0.124  0.2475 -0.5846  0.5882
 8792TIP3    H147867   3.081   6.486   0.167 -0.5385  1.2585 -2.9120
 8792TIP3    H247868   3.019   6.353   0.129 -0.4244  0.3818 -0.2217
 8793TIP3   OH247869   6.474   4.491  15.550  0.4878 -0.4046 -0.6043
 8793TIP3    H147870   6.476   4.396  15.540  0.0983 -0.3532 -1.2310
 8793TIP3    H247871   6.425   4.506  15.631 -3.6918 -0.6448 -2.8203
 8794TIP3   OH247872   1.995   6.319  16.064  0.4997 -0.7293 -0.0520
 8794TIP3    H147873   1.948   6.263  16.126  0.1631 -0.8510 -0.4133
 8794TIP3    H247874   1.948   6.308  15.981  0.6820 -0.2240 -0.2238
 8795TIP3   OH247875   1.858   2.486  14.945  0.0349  0.2637  0.4532
 8795TIP3    H147876   1.916   2.563  14.947 -2.0857  1.9859 -0.0181
 8795TIP3    H247877   1.835   2.476  14.852 -0.8074 -0.0462  0.6840
 8796TIP3   OH247878   1.611   0.885   0.852 -0.2720  0.0675 -1.0677
 8796TIP3    H147879   1.655   0.841   0.779  2.9455  1.0780  0.1159
 8796TIP3    H247880   1.588   0.971   0.818 -0.3974 -0.0845 -1.3773
 8797TIP3   OH247881   2.248   2.654  15.966 -0.4939 -0.4672 -0.1283
 8797TIP3    H147882   2.240   2.745  15.994  0.6482 -1.0569  2.4419
 8797TIP3    H247883   2.200   2.649  15.883 -1.2154  2.2773  0.0524
 8798TIP3   OH247884   3.745   3.632  10.515 -0.2152  0.3774  0.2072
 8798TIP3    H147885   3.829   3.676  10.529 -0.7513  0.8359  2.4348
 8798TIP3    H247886   3.679   3.696  10.544 -1.1807 -0.7370  0.5532
 8799TIP3   OH247887   0.156   2.660  15.917  0.2085  0.3318  0.1635
 8799TIP3    H147888   0.225   2.620  15.970  0.3793  1.5446  0.9027
 8799TIP3    H247889   0.164   2.618  15.831  1.3834 -0.0676  0.4516
 8800TIP3   OH247890   4.210   1.111  12.380  0.1335 -0.2544 -0.0904
 8800TIP3    H147891   4.221   1.206  12.387 -0.8684 -0.1646  0.5075
 8800TIP3    H247892   4.287   1.075  12.424 -1.0980  0.3155  2.7491
 8801TIP3   OH247893   0.295   2.779   0.167  0.1262  0.1987 -0.3221
 8801TIP3    H147894   0.253   2.755   0.250  1.2376  0.3969  0.3164
 8801TIP3    H247895   0.388   2.787   0.189  0.3114  1.1655 -1.3863
 8802TIP3   OH247896   6.653   6.360   1.753 -0.2924 -0.1296  0.1124
 8802TIP3    H147897   6.565   6.395   1.758 -0.7875 -1.3587  0.3459
 8802TIP3    H247898   6.710   6.437   1.761 -1.1917  0.3561  4.7814
 8803TIP3   OH247899   2.939   4.878   1.398  0.4309  0.6076 -0.5656
 8803TIP3    H147900   2.923   4.859   1.305 -2.1561 -2.5046  0.3144
 8803TIP3    H247901   2.913   4.969   1.408  0.4049  0.9199 -2.8124
 8804TIP3   OH247902   3.668   2.243   4.377  0.3878  0.6298  0.2359
 8804TIP3    H147903   3.718   2.162   4.389 -0.1534  0.3053  0.3281
 8804TIP3    H247904   3.625   2.231   4.292 -1.0496  0.0756  1.0085
 8805TIP3   OH247905   3.934   1.424  14.176 -0.2711 -0.1335 -0.1047
 8805TIP3    H147906   3.973   1.473  14.249 -2.1482  0.1062  0.7941
 8805TIP3    H247907   3.933   1.333  14.205 -0.3866 -0.1362 -0.1153
 8806TIP3   OH247908   6.007   1.948  15.632 -0.3016  0.0021 -0.1711
 8806TIP3    H147909   6.093   1.985  15.613 -0.2853 -0.1024 -0.3006
 8806TIP3    H247910   5.992   1.884  15.562 -1.6647  1.9323 -1.7454
 8807TIP3   OH247911   1.368   3.525   3.618 -0.0335 -0.1149  0.3743
 8807TIP3    H147912   1.462   3.528   3.636  0.4652  0.1489 -1.9139
 8807TIP3    H247913   1.345   3.432   3.627  0.8223 -0.4420 -0.5616
 8808TIP3   OH247914   1.804   5.298   3.260 -0.2133 -0.6433 -0.2286
 8808TIP3    H147915   1.782   5.250   3.180 -1.1317 -0.8802  0.1494
 8808TIP3    H247916   1.836   5.231   3.320  1.4733 -0.3194 -0.7237
 8809TIP3   OH247917   1.134   6.137  16.833  0.2205  0.3195 -0.4462
 8809TIP3    H147918   1.098   6.138  16.745  0.8036  2.2127 -0.6979
 8809TIP3    H247919   1.212   6.082  16.827 -1.3140 -2.0218 -0.3802
 8810TIP3   OH247920   1.398   0.359   2.846  0.0536 -0.8840 -0.0970
 8810TIP3    H147921   1.456   0.402   2.783 -1.0811  1.4563  0.3254
 8810TIP3    H247922   1.336   0.309   2.792 -0.1119  0.0457 -0.7922
 8811TIP3   OH247923   3.704   2.925  10.826  0.5500  0.6873  0.2826
 8811TIP3    H147924   3.773   2.983  10.793 -0.3828  1.2275 -0.8004
 8811TIP3    H247925   3.648   2.910  10.750  0.8390 -1.7744  0.4891
 8812TIP3   OH247926   0.773   6.571   3.108 -0.0806  0.0274  0.0507
 8812TIP3    H147927   0.812   6.652   3.142  3.6377 -1.0118 -1.2938
 8812TIP3    H247928   0.775   6.510   3.182  0.1612  0.2192  0.2030
 8813TIP3   OH247929   3.488   3.536  13.203 -0.3068  0.1835 -0.2355
 8813TIP3    H147930   3.473   3.470  13.271  0.6082  1.3440  1.1471
 8813TIP3    H247931   3.513   3.486  13.126 -0.4963 -1.1280  0.5206
 8814TIP3   OH247932   4.440   3.048  13.235  0.3256  0.4708 -0.2774
 8814TIP3    H147933   4.426   3.061  13.328 -1.1149  1.5488 -0.6124
 8814TIP3    H247934   4.529   3.012  13.228  0.8292  1.3286  1.4166
 8815TIP3   OH247935   0.961   3.052   6.202 -0.7173 -0.1503 -0.1793
 8815TIP3    H147936   1.030   3.105   6.241 -0.9052  0.9371 -1.2648
 8815TIP3    H247937   0.959   2.972   6.255  1.0321  0.0013  0.1710
 8816TIP3   OH247938   6.160   4.815   3.079 -0.1985  0.0512  0.4412
 8816TIP3    H147939   6.169   4.760   3.157  0.4512 -1.2194 -0.4964
 8816TIP3    H247940   6.236   4.793   3.025 -1.6745 -0.6249 -1.4662
 8817TIP3   OH247941   0.972   3.989  11.130  0.0329 -0.3360  0.0202
 8817TIP3    H147942   0.963   3.895  11.110 -0.8850  0.0791 -1.7491
 8817TIP3    H247943   0.884   4.018  11.150  0.4691 -0.0340  1.5915
 8818TIP3   OH247944   2.984   1.515  11.737 -0.6895  0.0619 -0.4486
 8818TIP3    H147945   2.993   1.539  11.829 -1.0712 -2.8091  0.4532
 8818TIP3    H247946   3.053   1.565  11.692 -0.1435  1.1221  1.4567
 8819TIP3   OH247947   4.718   5.007   5.321  0.3586  0.3118 -0.0677
 8819TIP3    H147948   4.733   4.917   5.348  0.3418  0.7094  1.3958
 8819TIP3    H247949   4.805   5.043   5.307  0.3680  0.0996 -0.5804
 8820TIP3   OH247950   2.065   5.861   4.864  0.2319  0.3382 -0.1761
 8820TIP3    H147951   2.016   5.892   4.788  0.8271 -0.3108 -0.8399
 8820TIP3    H247952   2.020   5.781   4.890  1.0244 -0.3624 -0.9034
 8821TIP3   OH247953   3.852   2.165  14.483 -0.4251  0.7388 -0.0919
 8821TIP3    H147954   3.797   2.218  14.425 -1.3814  1.0471  1.0480
 8821TIP3    H247955   3.799   2.087  14.500  0.4259  0.0164 -0.7134
 8822TIP3   OH247956   2.233   5.792   0.292 -0.1140 -0.5569  0.1245
 8822TIP3    H147957   2.163   5.794   0.357  0.0539 -1.7212  0.3473
 8822TIP3    H247958   2.270   5.880   0.295 -1.3359 -0.0174  0.2376
 8823TIP3   OH247959   2.679   3.846  14.984  0.2578  0.8152 -0.2910
 8823TIP3    H147960   2.684   3.934  15.021 -1.0912  1.2669 -1.1101
 8823TIP3    H247961   2.633   3.794  15.051 -0.3504  1.1330 -0.4506
 8824TIP3   OH247962   0.250   1.922  14.526  0.2289  0.1330  0.5381
 8824TIP3    H147963   0.235   2.000  14.472  2.2584  0.0202 -0.2796
 8824TIP3    H247964   0.231   1.950  14.615  0.4976  1.4405  0.2011
 8825TIP3   OH247965   5.608   2.407  14.145  0.0397 -0.6970 -0.1111
 8825TIP3    H147966   5.555   2.333  14.174  0.2415 -0.9464 -0.3818
 8825TIP3    H247967   5.553   2.484  14.162 -0.2509 -0.9227 -0.0257
 8826TIP3   OH247968   5.436   0.059  11.008  0.5208 -0.0217  0.2474
 8826TIP3    H147969   5.520   0.092  11.042  0.2026  1.0064  0.0709
 8826TIP3    H247970   5.457   0.028  10.920  0.4126  1.7966 -0.4559
 8827TIP3   OH247971   3.745   1.679   1.976  0.2301 -0.3508 -0.3748
 8827TIP3    H147972   3.694   1.758   1.994  1.9181  0.5306  0.9616
 8827TIP3    H247973   3.682   1.607   1.981 -1.0031  0.7437  0.3852
 8828TIP3   OH247974   6.011   6.746  11.136  0.3933 -0.0150 -0.3908
 8828TIP3    H147975   6.096   6.772  11.100  0.5706  1.9775  1.2622
 8828TIP3    H247976   5.995   6.808  11.208 -1.5667 -1.5515  0.6149
 8829TIP3   OH247977   6.291   2.508  12.273 -0.0006 -0.0744  0.0210
 8829TIP3    H147978   6.356   2.565  12.313  3.3677 -1.7405 -2.5333
 8829TIP3    H247979   6.276   2.439  12.337  1.9239 -0.3944  0.1879
 8830TIP3   OH247980   0.761   2.715  12.549 -0.0071  0.0210  0.1320
 8830TIP3    H147981   0.722   2.757  12.626  1.3376 -0.8257  1.3233
 8830TIP3    H247982   0.796   2.633  12.582  3.0463  0.8605 -0.7578
 8831TIP3   OH247983   0.442   2.903   2.281  0.0611  0.0187  0.3168
 8831TIP3    H147984   0.454   2.955   2.201 -0.5270 -0.3344 -0.0080
 8831TIP3    H247985   0.419   2.967   2.348  1.6689  0.4722  0.4998
 8832TIP3   OH247986   0.662   4.740   5.423 -0.1836 -0.2549 -0.2776
 8832TIP3    H147987   0.709   4.764   5.343  1.2103 -1.2426  0.1939
 8832TIP3    H247988   0.654   4.822   5.472 -2.6359  0.7466 -2.1257
 8833TIP3   OH247989   2.248   1.268  11.697  0.0879 -0.0329  0.4994
 8833TIP3    H147990   2.191   1.257  11.773  0.3274  1.9460  1.0382
 8833TIP3    H247991   2.188   1.268  11.622 -0.0641 -2.8913  0.5099
 8834TIP3   OH247992   4.423   3.463  16.753  0.1016 -0.0351 -0.3287
 8834TIP3    H147993   4.472   3.392  16.795 -2.1539  0.1286  2.9988
 8834TIP3    H247994   4.464   3.543  16.786  0.0774  0.1650 -0.7754
 8835TIP3   OH247995   0.517   2.522   2.530  0.2074 -0.2149 -0.6182
 8835TIP3    H147996   0.504   2.570   2.448  0.0877  0.4379 -0.2258
 8835TIP3    H247997   0.446   2.458   2.532 -0.0635  0.0746 -0.8035
 8836TIP3   OH247998   6.060   6.683  16.592 -0.8677  0.1114 -0.5648
 8836TIP3    H147999   6.129   6.665  16.655  0.1107  1.5312 -1.1679
 8836TIP3    H248000   6.037   6.597  16.557  1.1312 -0.3569 -0.8782
 8837TIP3   OH248001   6.586   3.478   0.664  0.9834 -0.1374  0.2377
 8837TIP3    H148002   6.649   3.420   0.621  0.7653 -0.0243 -0.2488
 8837TIP3    H248003   6.512   3.421   0.687  0.8959 -0.1116  0.0262
 8838TIP3   OH248004   3.057   1.725  16.739 -0.2109  0.2967  0.5677
 8838TIP3    H148005   3.015   1.639  16.735 -1.4652  0.9092 -2.0425
 8838TIP3    H248006   3.132   1.713  16.797 -0.1749 -2.6237  0.0780
 8839TIP3   OH248007   1.787   6.355  11.535 -0.4889 -0.2055  0.0428
 8839TIP3    H148008   1.714   6.322  11.587 -1.1320 -0.4406 -0.9906
 8839TIP3    H248009   1.801   6.445  11.566 -1.7490  0.1213 -0.2990
 8840TIP3   OH248010   0.222   0.951   5.190 -0.3323  0.3582  0.5729
 8840TIP3    H148011   0.158   1.003   5.239 -0.6058 -0.3345  0.9722
 8840TIP3    H248012   0.205   0.972   5.098 -0.7189  0.6510  0.7096
 8841TIP3   OH248013   6.357   3.008  13.302 -0.3533  0.6749  0.5992
 8841TIP3    H148014   6.285   3.065  13.275 -1.1639  0.9935  3.1817
 8841TIP3    H248015   6.397   3.053  13.376  1.4392 -0.3210  0.2886
 8842TIP3   OH248016   4.843   3.233   2.988  0.0504  0.3952 -0.1904
 8842TIP3    H148017   4.888   3.272   2.913  0.9858 -1.8603 -0.9167
 8842TIP3    H248018   4.913   3.218   3.052 -0.0888 -0.8680 -0.3099
 8843TIP3   OH248019   5.116   2.285   6.160  0.0318 -0.1882  0.0756
 8843TIP3    H148020   5.039   2.259   6.211  0.7323 -0.7791  0.8412
 8843TIP3    H248021   5.178   2.320   6.224  0.8002 -0.6494 -0.3968
 8844TIP3   OH248022   4.805   6.435  12.238 -0.2234 -0.4464 -0.2044
 8844TIP3    H148023   4.772   6.375  12.305  1.4652  0.0516  1.1396
 8844TIP3    H248024   4.900   6.429  12.244 -0.0021  1.6015 -0.6771
 8845TIP3   OH248025   5.695   3.381   5.209  0.2828  0.3285 -0.6434
 8845TIP3    H148026   5.640   3.341   5.277 -1.2798  1.2855 -1.2925
 8845TIP3    H248027   5.752   3.310   5.179 -1.0860 -0.9011 -0.4298
 8846TIP3   OH248028   2.195   1.766  15.681 -0.0851  0.1443 -0.0522
 8846TIP3    H148029   2.219   1.858  15.672  0.3474  0.2422  1.7062
 8846TIP3    H248030   2.144   1.762  15.762  1.6087 -1.4321  1.0218
 8847TIP3   OH248031   3.677   2.985  12.139  0.9340  0.5754  0.3399
 8847TIP3    H148032   3.732   3.039  12.082  0.8814  0.9961  0.6889
 8847TIP3    H248033   3.691   3.020  12.227 -0.5202  1.2288  0.3345
 8848TIP3   OH248034   4.551   4.537  13.447 -0.0510  0.3557  0.1836
 8848TIP3    H148035   4.514   4.484  13.517  1.1506 -1.4184 -0.4490
 8848TIP3    H248036   4.635   4.569  13.482  0.8911 -1.1160 -0.6163
 8849TIP3   OH248037   6.302   2.285  16.135 -0.3429 -0.1221 -0.1137
 8849TIP3    H148038   6.270   2.219  16.073  1.9320 -1.1484 -0.2603
 8849TIP3    H248039   6.357   2.342  16.082 -0.1052  0.2829  0.5651
 8850TIP3   OH248040   1.668   5.118   0.817 -0.0089  0.3062 -0.3153
 8850TIP3    H148041   1.645   5.067   0.894 -0.5060  0.4367 -0.3759
 8850TIP3    H248042   1.627   5.072   0.744  1.5628 -0.5814 -0.6950
 8851TIP3   OH248043   3.020   4.508  14.902  0.2912 -0.0706 -0.2232
 8851TIP3    H148044   2.952   4.457  14.946 -0.3293  0.6273 -0.3443
 8851TIP3    H248045   3.014   4.595  14.942  2.1202 -0.3796  0.8272
 8852TIP3   OH248046   3.698   1.163  15.775  0.5928 -0.2742 -0.4473
 8852TIP3    H148047   3.756   1.166  15.699  0.7954  1.6239 -0.2810
 8852TIP3    H248048   3.621   1.213  15.748  0.7407  0.5763  0.6136
 8853TIP3   OH248049   3.090   4.018   3.196  0.0681 -0.1413  0.3071
 8853TIP3    H148050   3.083   4.082   3.267  2.1803  0.2878  0.1870
 8853TIP3    H248051   3.005   3.974   3.196 -0.2280  0.2632  2.6912
 8854TIP3   OH248052   3.834   5.986   3.932  0.2843 -0.3269  0.4339
 8854TIP3    H148053   3.859   6.055   3.870 -2.2674  0.1261 -0.2150
 8854TIP3    H248054   3.892   5.913   3.912  1.5643  0.8738 -0.3900
 8855TIP3   OH248055   5.113   6.333  14.650  0.0953  0.1821 -0.3949
 8855TIP3    H148056   5.161   6.406  14.611  1.1633 -1.0268 -1.4555
 8855TIP3    H248057   5.179   6.285  14.701 -0.5561 -0.0988  0.1980
 8856TIP3   OH248058   6.239   4.139   4.621  0.0682  0.0770 -0.4612
 8856TIP3    H148059   6.294   4.062   4.635 -0.0979  0.0347 -0.0491
 8856TIP3    H248060   6.300   4.210   4.603  0.3641  0.3859  1.5422
 8857TIP3   OH248061   3.603   3.351   0.440  0.0397  0.2067  0.1049
 8857TIP3    H148062   3.687   3.324   0.402  1.2483  1.2428  1.8681
 8857TIP3    H248063   3.597   3.444   0.418 -0.2439  0.3256  0.6829
 8858TIP3   OH248064   4.126   3.335   0.374 -0.1845  0.0206 -0.2183
 8858TIP3    H148065   4.201   3.284   0.405  0.3358  0.4758 -0.7161
 8858TIP3    H248066   4.075   3.353   0.454  0.1046 -0.4862  0.0871
 8859TIP3   OH248067   4.148   6.118   1.402  0.4991  0.2807 -0.2648
 8859TIP3    H148068   4.132   6.086   1.491  0.5226 -1.5963 -0.8939
 8859TIP3    H248069   4.101   6.057   1.345  1.5876  0.6315 -1.6128
 8860TIP3   OH248070   3.696   0.889  15.833  0.3132  0.7493  0.2941
 8860TIP3    H148071   3.698   0.984  15.828  0.3295  0.6978 -0.8663
 8860TIP3    H248072   3.686   0.860  15.743  0.7208 -0.3651  0.5875
 8861TIP3   OH248073   6.091   6.131   4.089  0.3630 -0.8296 -0.2310
 8861TIP3    H148074   6.172   6.135   4.140  0.6149 -0.9734 -0.6109
 8861TIP3    H248075   6.031   6.080   4.142  0.7114 -1.2071 -0.1935
 8862TIP3   OH248076   0.215   1.258  12.861 -0.5102  0.0290  0.4328
 8862TIP3    H148077   0.239   1.328  12.921 -1.7273  0.6023  0.2668
 8862TIP3    H248078   0.210   1.180  12.915  0.9985  0.0054  0.5950
 8863TIP3   OH248079   0.979   5.025   3.299  0.4818 -0.0887  0.3543
 8863TIP3    H148080   1.043   5.007   3.368 -0.4761 -0.8965  1.0787
 8863TIP3    H248081   0.963   5.119   3.305  1.8797  0.1991 -0.1088
 8864TIP3   OH248082   3.225   3.187   3.844 -0.0121  0.0359 -0.2032
 8864TIP3    H148083   3.189   3.222   3.762  2.1306 -0.0055 -1.2292
 8864TIP3    H248084   3.217   3.092   3.834 -0.1246  0.0421 -0.1772
 8865TIP3   OH248085   4.531   2.783  10.627 -0.1972  0.8322 -0.5690
 8865TIP3    H148086   4.438   2.804  10.615  0.2284  1.9216 -2.3105
 8865TIP3    H248087   4.534   2.687  10.631 -1.4216  0.7960 -0.0050
 8866TIP3   OH248088   4.951   3.219   4.504  0.3005 -0.4009  0.0465
 8866TIP3    H148089   4.926   3.129   4.488  1.4111 -0.3901 -2.2360
 8866TIP3    H248090   5.011   3.215   4.579 -0.6156 -1.3624  0.7469
 8867TIP3   OH248091   0.411   5.574   0.616  0.1854  0.1500 -0.0271
 8867TIP3    H148092   0.399   5.493   0.665 -2.9206  1.4922  1.7542
 8867TIP3    H248093   0.454   5.634   0.678 -1.6750  1.1593  0.3677
 8868TIP3   OH248094   2.537   1.112  11.902  0.3218 -0.5806 -0.5476
 8868TIP3    H148095   2.563   1.163  11.979  0.2984 -1.8462  0.3334
 8868TIP3    H248096   2.443   1.101  11.911  0.2228 -0.1845 -1.1054
 8869TIP3   OH248097   5.216   2.396  11.911 -0.8326  0.1838  0.4283
 8869TIP3    H148098   5.261   2.478  11.931 -3.0150  0.9282  2.8781
 8869TIP3    H248099   5.249   2.334  11.976  0.1166 -0.6921 -0.8273
 8870TIP3   OH248100   6.270   6.590   5.014 -0.3586  0.0234 -0.6996
 8870TIP3    H148101   6.332   6.646   4.967 -0.4649 -0.9508 -2.0799
 8870TIP3    H248102   6.215   6.552   4.945 -1.4139 -0.4282  0.3500
 8871TIP3   OH248103   1.533   5.631   0.879 -0.8445 -0.2309 -0.2585
 8871TIP3    H148104   1.441   5.641   0.903 -0.9378 -1.2676 -0.1249
 8871TIP3    H248105   1.539   5.668   0.791 -0.9232  1.7489  0.5166
 8872TIP3   OH248106   4.788   4.700  16.063  0.1704 -0.3405 -0.0673
 8872TIP3    H148107   4.731   4.761  16.110  1.3487 -0.0234  0.9916
 8872TIP3    H248108   4.867   4.751  16.045  0.4500 -1.0160 -0.7941
 8873TIP3   OH248109   5.666   0.142  11.068 -0.9626 -0.0678 -0.6024
 8873TIP3    H148110   5.727   0.166  10.998 -1.1247 -0.6273 -0.9341
 8873TIP3    H248111   5.688   0.052  11.090 -3.0133 -1.0512 -2.1772
 8874TIP3   OH248112   0.083   5.005   4.345  0.3491  0.1052  0.1727
 8874TIP3    H148113   0.010   4.968   4.296 -0.2458  0.7829  0.5361
 8874TIP3    H248114   0.074   4.969   4.433  1.4809 -1.1964 -0.2093
 8875TIP3   OH248115   2.635   1.422   4.164 -0.6451 -0.0175  0.2668
 8875TIP3    H148116   2.567   1.387   4.221 -1.5853 -0.7483 -1.2378
 8875TIP3    H248117   2.711   1.436   4.222 -1.7904  0.0423  1.8204
 8876TIP3   OH248118   0.212   4.032   2.421  0.1799  0.0571  0.0673
 8876TIP3    H148119   0.122   4.026   2.388  0.1385 -2.5404  0.4946
 8876TIP3    H248120   0.261   4.070   2.347 -1.4556  3.1843  0.4132
 8877TIP3   OH248121   6.435   5.098   0.571  0.5742 -0.2041 -0.1758
 8877TIP3    H148122   6.466   5.158   0.639  0.3491 -1.7066  1.3091
 8877TIP3    H248123   6.378   5.153   0.516 -0.5336  0.7434  1.7776
 8878TIP3   OH248124   1.213   6.522  15.393  0.4928  0.2169  0.1916
 8878TIP3    H148125   1.208   6.426  15.390 -0.7782  0.2700 -0.2459
 8878TIP3    H248126   1.272   6.545  15.322  2.7951 -0.3097  1.8146
 8879TIP3   OH248127   6.623   5.287  14.110  0.1952  0.6093  0.5804
 8879TIP3    H148128   6.638   5.309  14.018  0.2696  1.1835  0.7280
 8879TIP3    H248129   6.531   5.260  14.114 -0.5715  3.0593  0.7920
 8880TIP3   OH248130   5.354   6.502   5.602  0.5960  0.0972 -0.1574
 8880TIP3    H148131   5.361   6.410   5.576 -1.9676 -0.0660 -0.4979
 8880TIP3    H248132   5.294   6.502   5.676  0.2518  1.5314 -0.4086
 8881TIP3   OH248133   1.774   4.277   3.910 -0.4428 -0.0638 -0.0701
 8881TIP3    H148134   1.862   4.294   3.874 -0.4996  2.5677  0.8217
 8881TIP3    H248135   1.788   4.267   4.004 -1.0794  0.1772  0.0519
 8882TIP3   OH248136   1.434   0.699  11.894 -0.0662 -0.4238 -0.3539
 8882TIP3    H148137   1.504   0.747  11.938 -1.1272  1.0872 -0.2543
 8882TIP3    H248138   1.458   0.703  11.801  0.3659 -0.6037 -0.2558
 8883TIP3   OH248139   0.994   4.430   5.273 -0.1098 -0.1350  1.4081
 8883TIP3    H148140   0.915   4.389   5.308  1.6185 -4.5294  0.8916
 8883TIP3    H248141   0.979   4.435   5.179  0.3871 -1.7471  1.2013
 8884TIP3   OH248142   1.440   3.092  14.173  0.1978 -0.1510 -0.3763
 8884TIP3    H148143   1.421   3.045  14.092 -0.5462 -0.4232 -0.0582
 8884TIP3    H248144   1.463   3.180  14.145 -1.3660  0.1456 -0.8365
 8885TIP3   OH248145   3.034   3.273  10.285 -0.0650 -0.1025  0.1484
 8885TIP3    H148146   3.090   3.202  10.318  1.0871  0.7489  0.1018
 8885TIP3    H248147   3.068   3.351  10.327 -0.9016  0.5176 -0.3038
 8886TIP3   OH248148   6.757   4.515  13.603 -0.1334 -0.6084  0.0106
 8886TIP3    H148149   6.813   4.586  13.634 -1.0932  0.7768 -1.2745
 8886TIP3    H248150   6.674   4.557  13.582 -0.8261 -2.1649 -0.5259
 8887TIP3   OH248151   6.324   2.324  11.958 -0.3816 -0.0621  0.9767
 8887TIP3    H148152   6.372   2.274  11.892 -0.1222 -0.7872  1.7033
 8887TIP3    H248153   6.391   2.380  11.998 -0.9436  2.2141 -0.9771
 8888TIP3   OH248154   5.630   0.246  11.732  0.2549 -0.0531 -0.5194
 8888TIP3    H148155   5.709   0.301  11.732 -0.2480  0.7202 -2.1293
 8888TIP3    H248156   5.565   0.297  11.684 -1.1491 -0.8257  0.4857
 8889TIP3   OH248157   4.386   1.522  10.389  0.0925 -0.1289  0.2430
 8889TIP3    H148158   4.377   1.427  10.385  0.1974 -0.1740  1.0250
 8889TIP3    H248159   4.443   1.544  10.315 -2.2691 -0.3529 -1.7563
 8890TIP3   OH248160   2.107   5.292  11.235 -0.0503 -0.0875 -0.0462
 8890TIP3    H148161   2.162   5.361  11.270  2.5943 -0.7437 -2.5234
 8890TIP3    H248162   2.123   5.216  11.291 -0.4183  0.4031  0.7326
 8891TIP3   OH248163   6.531   2.564   0.202 -0.5094  0.1881 -0.0966
 8891TIP3    H148164   6.601   2.625   0.227  0.5906 -1.5124  1.2796
 8891TIP3    H248165   6.459   2.586   0.261  0.4195 -0.7413  1.4736
 8892TIP3   OH248166   3.596   6.591   4.117 -0.3263  0.0072 -0.2174
 8892TIP3    H148167   3.503   6.604   4.136 -0.2101  0.8401 -0.1572
 8892TIP3    H248168   3.638   6.586   4.203 -0.5151 -2.1753 -0.2041
 8893TIP3   OH248169   3.520   6.742   0.660 -0.2797  0.3655 -0.2696
 8893TIP3    H148170   3.540   6.829   0.693  0.7255 -0.3028  1.0000
 8893TIP3    H248171   3.605   6.698   0.656 -0.8843 -0.8922  0.1549
 8894TIP3   OH248172   3.305   0.556  15.425 -0.3301  0.1634 -0.0320
 8894TIP3    H148173   3.223   0.555  15.375 -0.2250  3.7549 -0.5255
 8894TIP3    H248174   3.283   0.603  15.505  0.4655 -2.0632  1.5594
 8895TIP3   OH248175   1.019   2.002   0.136 -0.5872  0.4782  0.2364
 8895TIP3    H148176   0.980   2.052   0.063 -0.2272 -1.0596 -1.0575
 8895TIP3    H248177   0.973   1.918   0.134  0.4728 -0.1262  0.8466
 8896TIP3   OH248178   1.917   0.268   5.475 -0.1951 -0.1012  0.5907
 8896TIP3    H148179   1.889   0.357   5.451 -0.3049  0.4902  2.7439
 8896TIP3    H248180   1.839   0.227   5.510 -0.5840 -1.7064 -1.8989
 8897TIP3   OH248181   1.844   6.193   0.281 -0.5900  0.0448 -0.7266
 8897TIP3    H148182   1.844   6.216   0.188 -0.1633 -0.7972 -0.9435
 8897TIP3    H248183   1.787   6.259   0.322 -1.3907 -0.0283 -1.6860
 8898TIP3   OH248184   6.618   6.052   1.367  0.0737  0.0967 -0.2561
 8898TIP3    H148185   6.604   6.143   1.396 -1.3956 -0.2860  0.3459
 8898TIP3    H248186   6.661   6.010   1.441 -0.6334 -0.0628  0.0685
 8899TIP3   OH248187   6.665   2.636  10.087  0.2635 -0.1346  0.3698
 8899TIP3    H148188   6.723   2.561  10.075  0.9961  0.4374  0.2335
 8899TIP3    H248189   6.587   2.600  10.130  1.3010 -0.6867  1.8932
 8900TIP3   OH248190   4.643   5.803   1.262  0.1729 -0.2097 -0.4570
 8900TIP3    H148191   4.556   5.842   1.269  1.1575  1.9042  1.1283
 8900TIP3    H248192   4.648   5.744   1.338  0.9477  1.5766  0.9478
 8901TIP3   OH248193   3.403   1.408  14.117 -0.6558  0.4764  0.0193
 8901TIP3    H148194   3.411   1.409  14.022  1.2239 -0.7353  0.0950
 8901TIP3    H248195   3.455   1.484  14.146 -2.2181  1.5719  0.0884
 8902TIP3   OH248196   5.634   6.084   3.966  0.2864 -0.6346 -0.2470
 8902TIP3    H148197   5.652   6.113   3.876  1.9834 -1.7758 -0.3118
 8902TIP3    H248198   5.577   6.008   3.955 -0.4794 -0.0700 -0.2797
 8903TIP3   OH248199   5.241   0.105  12.651 -0.1596  0.2275 -0.1229
 8903TIP3    H148200   5.193   0.172  12.700 -1.8228  0.4919 -2.0160
 8903TIP3    H248201   5.239   0.135  12.561 -0.7030 -2.2231 -1.0055
 8904TIP3   OH248202   4.782   0.333  12.850  0.2298  0.0069 -0.2283
 8904TIP3    H148203   4.787   0.362  12.759 -1.1809  1.8469  0.2317
 8904TIP3    H248204   4.827   0.401  12.900  1.5751 -1.3044  0.4637
 8905TIP3   OH248205   1.935   1.247   2.058  0.2348 -0.4958  0.5816
 8905TIP3    H148206   1.948   1.290   2.142 -0.3469 -0.7699  0.8153
 8905TIP3    H248207   1.840   1.240   2.049  0.2560  0.3087 -0.4950
 8906TIP3   OH248208   3.339   5.140   6.191  0.8181  0.1069  0.2875
 8906TIP3    H148209   3.385   5.094   6.121  1.1575  1.8701 -0.7197
 8906TIP3    H248210   3.409   5.184   6.240  0.3525  2.5487 -1.0586
 8907TIP3   OH248211   0.639   0.401   5.392  0.5929 -0.0366  0.1765
 8907TIP3    H148212   0.546   0.382   5.376  1.0657 -1.1641 -1.5027
 8907TIP3    H248213   0.644   0.496   5.397 -0.4784  0.1032 -0.9820
 8908TIP3   OH248214   5.009   5.255   2.096 -0.3538  0.5582 -0.3789
 8908TIP3    H148215   5.004   5.163   2.068 -0.9162  0.2438  0.7232
 8908TIP3    H248216   4.927   5.293   2.065 -0.6689  0.3785  0.2194
 8909TIP3   OH248217   6.352   5.666  15.920 -0.0408 -0.7604  0.4100
 8909TIP3    H148218   6.376   5.758  15.923  2.0862 -1.2211 -0.5952
 8909TIP3    H248219   6.269   5.661  15.966  0.5520  1.4168  1.8470
 8910TIP3   OH248220   0.577   1.921   3.023 -0.0821  0.0927 -0.2231
 8910TIP3    H148221   0.502   1.980   3.024 -0.9686 -0.9515 -1.7555
 8910TIP3    H248222   0.647   1.973   2.984 -0.3962  0.6102 -0.1149
 8911TIP3   OH248223   0.028   0.476  12.937  0.7508  0.1074 -0.3160
 8911TIP3    H148224   0.001   0.561  12.973  0.1783  1.0753 -2.8478
 8911TIP3    H248225   0.124   0.478  12.940  0.8197  1.7258 -2.1180
 8912TIP3   OH248226   6.236   3.785  14.849 -0.0029  0.4140 -0.5846
 8912TIP3    H148227   6.214   3.713  14.907 -0.5135  1.6946  0.8692
 8912TIP3    H248228   6.153   3.830  14.833  0.5483  1.6875 -0.0364
 8913TIP3   OH248229   0.513   3.088   5.738 -0.2986  0.0434  0.6562
 8913TIP3    H148230   0.492   3.133   5.820  1.4192  0.5858  0.8435
 8913TIP3    H248231   0.507   2.995   5.759  2.9070  0.0723  2.3013
 8914TIP3   OH248232   4.595   0.222   0.309  0.4477 -0.8426  0.2513
 8914TIP3    H148233   4.637   0.230   0.223  1.3789 -1.7663  0.6005
 8914TIP3    H248234   4.544   0.302   0.318  0.5936 -0.5859 -1.0313
 8915TIP3   OH248235   5.554   4.276   3.371 -0.1668 -0.5980 -0.2326
 8915TIP3    H148236   5.551   4.243   3.460  0.9270  0.8153  0.3627
 8915TIP3    H248237   5.595   4.206   3.320  0.7301 -0.7658  0.7021
 8916TIP3   OH248238   1.973   5.160  12.285  0.3340  0.6329 -0.3265
 8916TIP3    H148239   2.000   5.140  12.375  0.3390  2.2904  0.0712
 8916TIP3    H248240   2.020   5.096  12.231  1.6364  0.6534  0.7272
 8917TIP3   OH248241   1.649   4.655   2.259  0.0124  0.2689 -0.1161
 8917TIP3    H148242   1.589   4.693   2.323  1.5856  2.4169  0.1956
 8917TIP3    H248243   1.686   4.579   2.303 -1.9633 -0.7312 -0.0913
 8918TIP3   OH248244   6.199   1.033   2.749  0.0893 -0.0773  0.7539
 8918TIP3    H148245   6.122   0.995   2.790 -0.0197  0.0828  0.6986
 8918TIP3    H248246   6.165   1.104   2.695  0.2514 -0.1537  0.5487
 8919TIP3   OH248247   3.514   1.919  14.339  0.0427 -0.0265 -0.8231
 8919TIP3    H148248   3.555   1.987  14.285  0.5034  1.1831  0.9628
 8919TIP3    H248249   3.585   1.886  14.394 -0.9844  0.9613  1.1940
 8920TIP3   OH248250   0.543   0.551  11.739  0.1434  0.0717 -0.0852
 8920TIP3    H148251   0.550   0.646  11.733 -0.1535  0.0976 -0.0675
 8920TIP3    H248252   0.513   0.523  11.653  0.3323 -0.0169 -0.1224
 8921TIP3   OH248253   3.556   5.042   3.608 -0.7389  0.0278  0.2948
 8921TIP3    H148254   3.547   5.060   3.514 -1.8635  1.1527  0.5843
 8921TIP3    H248255   3.467   5.052   3.642 -0.1651  0.6807  1.6548
 8922TIP3   OH248256   1.959   1.573   4.280  0.1172  0.5068  0.0932
 8922TIP3    H148257   2.049   1.602   4.296  0.1643  0.0846  0.6371
 8922TIP3    H248258   1.963   1.526   4.196  0.8992 -1.4981  1.1782
 8923TIP3   OH248259   2.614   4.373   1.611 -0.3144  0.0646 -0.0435
 8923TIP3    H148260   2.694   4.353   1.659 -0.0967  0.7960 -0.0892
 8923TIP3    H248261   2.558   4.419   1.674 -0.7674 -0.5826  0.0350
 8924TIP3   OH248262   4.871   4.658   1.512 -0.1909  0.0236 -0.4744
 8924TIP3    H148263   4.824   4.732   1.552  0.6908  0.8033 -0.8488
 8924TIP3    H248264   4.805   4.616   1.457 -1.5036 -1.2216  1.8950
 8925TIP3   OH248265   1.745   6.512  14.837 -0.1385 -0.4645 -0.3961
 8925TIP3    H148266   1.676   6.545  14.779  1.3620  0.1017 -1.9326
 8925TIP3    H248267   1.750   6.419  14.817  0.3235 -0.2856 -1.1543
 8926TIP3   OH248268   6.298   0.827  13.454  0.1199  0.0645  0.1267
 8926TIP3    H148269   6.305   0.736  13.427  1.6145 -0.0869  0.9217
 8926TIP3    H248270   6.223   0.829  13.513 -0.6395 -0.3914 -0.7831
 8927TIP3   OH248271   4.129   3.094  11.036  0.2246  0.2857 -0.2968
 8927TIP3    H148272   4.050   3.040  11.034  0.9677 -0.8306  0.1087
 8927TIP3    H248273   4.103   3.172  11.085 -0.4588 -0.3347  0.3373
 8928TIP3   OH248274   0.024   0.768  12.069 -0.3671 -0.3074  0.1810
 8928TIP3    H148275   0.075   0.764  12.150  0.2408  0.3534 -0.1580
 8928TIP3    H248276   0.018   0.862  12.049  0.4733 -0.5131 -1.1401
 8929TIP3   OH248277   0.509   6.386  11.271 -0.2657  0.1971  0.2403
 8929TIP3    H148278   0.523   6.407  11.179  0.3313 -1.7741 -0.1623
 8929TIP3    H248279   0.438   6.322  11.271 -0.7564  0.7157  1.2326
 8930TIP3   OH248280   5.724   1.052   2.587 -0.0144  0.0367 -0.0704
 8930TIP3    H148281   5.709   1.011   2.672 -1.1223 -1.0931 -0.7935
 8930TIP3    H248282   5.680   1.137   2.594  1.3062  0.6819  1.0247
 8931TIP3   OH248283   4.588   3.211   3.117  0.2151  0.4005  0.6949
 8931TIP3    H148284   4.670   3.183   3.076 -0.5429 -1.4210  0.3593
 8931TIP3    H248285   4.546   3.266   3.050  0.2352 -0.3387  0.0634
 8932TIP3   OH248286   2.876   2.132  13.170 -0.0387  0.4106  0.1647
 8932TIP3    H148287   2.962   2.103  13.139 -0.5199 -0.3779 -0.4647
 8932TIP3    H248288   2.821   2.054  13.165 -0.6271  0.7393  1.2204
 8933TIP3   OH248289   5.965   4.693   1.462 -0.6817  0.8051 -0.4067
 8933TIP3    H148290   5.871   4.703   1.445 -0.3713  0.6333 -2.3754
 8933TIP3    H248291   5.981   4.599   1.455 -0.5734  0.6542  1.3482
 8934TIP3   OH248292   4.277   0.811   2.388  0.0015 -0.2399  0.4264
 8934TIP3    H148293   4.258   0.718   2.376 -0.2107 -0.5295  2.5455
 8934TIP3    H248294   4.198   0.856   2.357 -0.4021 -0.8503  0.5444
 8935TIP3   OH248295   5.678   2.004   1.590 -0.4415  0.1848 -0.5780
 8935TIP3    H148296   5.615   2.017   1.520 -2.1216 -3.5125  0.0280
 8935TIP3    H248297   5.653   2.067   1.657 -1.0386  1.3431 -1.8424
 8936TIP3   OH248298   1.482   4.689   2.494 -0.5743  0.2912  0.0280
 8936TIP3    H148299   1.472   4.721   2.583  0.2458 -1.0812  0.6425
 8936TIP3    H248300   1.415   4.622   2.484 -0.8010  0.5837 -0.4653
 8937TIP3   OH248301   6.175   4.652  11.980  0.2158  0.3168  0.1462
 8937TIP3    H148302   6.127   4.725  11.941 -2.5149 -0.1832  2.2294
 8937TIP3    H248303   6.128   4.574  11.950 -0.5390 -0.1911  2.4532
 8938TIP3   OH248304   3.077   3.627  13.290  0.3476 -0.3708 -0.1454
 8938TIP3    H148305   3.094   3.721  13.301 -2.9011  0.4279 -0.8506
 8938TIP3    H248306   3.104   3.588  13.373  3.5688  0.7741 -0.5018
 8939TIP3   OH248307   1.134   5.964   1.894 -0.0977 -0.2411  0.7803
 8939TIP3    H148308   1.136   5.907   1.971  2.4817 -1.8695 -0.3692
 8939TIP3    H248309   1.061   5.931   1.841  0.0825 -1.1264  1.0799
 8940TIP3   OH248310   3.189   0.994  12.122 -0.9561  0.2735 -0.8056
 8940TIP3    H148311   3.282   1.004  12.104 -0.6693 -1.3287 -0.4053
 8940TIP3    H248312   3.145   1.041  12.051  0.1532 -0.3006 -1.9144
 8941TIP3   OH248313   4.785   6.006  14.723 -0.6250 -0.2049 -0.1113
 8941TIP3    H148314   4.849   5.962  14.666 -0.3131  1.9129 -1.4959
 8941TIP3    H248315   4.822   5.999  14.811  1.0118  0.0853 -0.7419
 8942TIP3   OH248316   1.787   4.573   1.318 -0.2468  0.4160  0.0462
 8942TIP3    H148317   1.720   4.521   1.363 -0.1148  0.9324  0.8583
 8942TIP3    H248318   1.862   4.514   1.310 -0.1904  0.3786  0.7261
 8943TIP3   OH248319   6.431   4.253  12.812  0.1097 -0.2544  0.4645
 8943TIP3    H148320   6.345   4.218  12.790  0.5781 -0.3745 -1.3982
 8943TIP3    H248321   6.465   4.286  12.729  2.8393 -2.4091  0.5727
 8944TIP3   OH248322   0.496   3.061   3.424 -0.1865 -0.4211 -0.4662
 8944TIP3    H148323   0.546   3.066   3.506  1.4768 -0.0174 -1.4564
 8944TIP3    H248324   0.446   2.980   3.432  1.8693 -1.7384 -0.0441
 8945TIP3   OH248325   5.070   6.765   1.485 -0.5497 -0.0278  0.1494
 8945TIP3    H148326   5.030   6.781   1.400 -1.3666  0.2685  0.5787
 8945TIP3    H248327   5.163   6.785   1.473 -0.2315 -1.9761 -1.2175
 8946TIP3   OH248328   0.478   5.827   4.306 -1.0712 -0.1748 -0.0495
 8946TIP3    H148329   0.504   5.799   4.394  1.4276  0.5496 -0.4796
 8946TIP3    H248330   0.450   5.918   4.316  1.2600  0.6402 -0.2247
 8947TIP3   OH248331   5.815   6.190  11.290 -0.3042 -0.2866 -0.2386
 8947TIP3    H148332   5.822   6.140  11.371  0.3789 -1.7914 -1.1841
 8947TIP3    H248333   5.896   6.240  11.285 -0.9066  0.8443  0.6111
 8948TIP3   OH248334   6.495   0.427   2.558 -0.3055 -0.1122 -0.3933
 8948TIP3    H148335   6.422   0.483   2.582 -0.1430  1.4287 -3.1078
 8948TIP3    H248336   6.478   0.403   2.466  1.9762 -0.6997 -0.7195
 8949TIP3   OH248337   4.693   1.200  10.475 -0.0917  0.1178 -0.4865
 8949TIP3    H148338   4.761   1.268  10.476  1.1810 -1.0863  0.2875
 8949TIP3    H248339   4.742   1.119  10.487 -1.4617 -1.0578 -2.3687
 8950TIP3   OH248340   4.335   2.168  12.300 -0.2892 -0.3403  0.2946
 8950TIP3    H148341   4.346   2.151  12.393 -0.3525  0.5894  0.4766
 8950TIP3    H248342   4.316   2.261  12.294 -0.0421 -0.3397 -0.6671
 8951TIP3   OH248343   0.197   5.231  12.327 -0.1726  0.5400 -0.2523
 8951TIP3    H148344   0.132   5.173  12.365 -1.3706  2.0287  0.0881
 8951TIP3    H248345   0.248   5.263  12.401  0.8430 -0.4602 -0.4954
 8952TIP3   OH248346   5.289   5.094   3.678 -0.4176  0.1728 -0.8001
 8952TIP3    H148347   5.263   5.052   3.760  0.9586  0.6948 -0.0611
 8952TIP3    H248348   5.271   5.028   3.610 -0.2766 -0.8082  0.0837
 8953TIP3   OH248349   6.108   0.079  16.900  0.8513  0.1962  0.1083
 8953TIP3    H148350   6.159   0.037  16.969 -0.3062 -0.6914  0.4703
 8953TIP3    H248351   6.104   0.171  16.926  1.7519  0.1688  0.3803
 8954TIP3   OH248352   1.389   1.496   1.969  0.1003 -0.3375  0.3857
 8954TIP3    H148353   1.451   1.513   1.897  0.5752 -0.8488  0.6623
 8954TIP3    H248354   1.363   1.405   1.956 -1.3164  0.1368 -0.2596
 8955TIP3   OH248355   1.349   4.817  17.029  0.2046 -0.1516  0.9505
 8955TIP3    H148356   1.398   4.899  17.039  0.3173 -0.1085  0.0783
 8955TIP3    H248357   1.259   4.840  17.052 -0.2721  0.8334 -1.5708
 8956TIP3   OH248358   4.996   6.126  16.032 -0.1664  0.6447  0.2736
 8956TIP3    H148359   4.980   6.032  16.024 -0.5558  0.8049 -1.1198
 8956TIP3    H248360   5.023   6.153  15.944 -1.4418  2.0889  0.2930
 8957TIP3   OH248361   5.165   3.905  14.924 -0.4543  0.5415  0.0849
 8957TIP3    H148362   5.124   3.858  14.851 -0.6735  0.1100  0.4817
 8957TIP3    H248363   5.231   3.844  14.958 -0.6587  0.5638  0.5276
 8958TIP3   OH248364   6.612   4.878  13.545 -0.6541  0.6009  0.2229
 8958TIP3    H148365   6.549   4.806  13.542 -0.7257  0.6219  1.0404
 8958TIP3    H248366   6.654   4.869  13.630 -0.7120  1.5696  0.3644
 8959TIP3   OH248367   4.839   1.577  13.154 -0.5418  0.1891  0.1783
 8959TIP3    H148368   4.790   1.496  13.134 -1.8477  0.1591  2.9522
 8959TIP3    H248369   4.853   1.618  13.069 -2.1898 -1.6701 -1.0974
 8960TIP3   OH248370   0.596   3.744   0.240 -0.3861 -0.1780  0.0510
 8960TIP3    H148371   0.523   3.804   0.227 -0.9006 -0.5640  0.9983
 8960TIP3    H248372   0.633   3.770   0.325 -0.2419 -0.8158  0.1877
 8961TIP3   OH248373   2.305   3.376   3.220  0.1121  0.1394  0.6838
 8961TIP3    H148374   2.242   3.364   3.149 -0.2453 -0.8665  1.1511
 8961TIP3    H248375   2.312   3.290   3.261  0.9881  0.4947  1.3102
 8962TIP3   OH248376   4.720   5.223  16.289 -0.3858 -0.3505 -0.4093
 8962TIP3    H148377   4.720   5.184  16.377  0.0287 -0.1805 -0.3322
 8962TIP3    H248378   4.628   5.228  16.265 -0.6338  1.2824  0.7521
 8963TIP3   OH248379   5.610   3.846   1.417  0.2737  0.2744  0.2314
 8963TIP3    H148380   5.559   3.785   1.363  1.0710 -0.3750  0.1794
 8963TIP3    H248381   5.645   3.791   1.487 -0.8933  1.1480  1.5381
 8964TIP3   OH248382   4.987   6.749   5.925 -0.0167  0.7185  0.0267
 8964TIP3    H148383   4.936   6.682   5.971  1.6267 -0.7502 -0.1672
 8964TIP3    H248384   5.052   6.777   5.989  0.0353  1.2996 -0.2721
 8965TIP3   OH248385   5.668   5.740   3.105 -0.4218 -0.0187  0.0658
 8965TIP3    H148386   5.675   5.697   3.191 -1.1675  1.1595  0.7460
 8965TIP3    H248387   5.689   5.832   3.123  1.8549 -0.1494 -1.4763
 8966TIP3   OH248388   3.225   6.760  16.842  0.1614 -0.9010  0.0415
 8966TIP3    H148389   3.173   6.765  16.763  1.0230  0.6679 -0.4749
 8966TIP3    H248390   3.308   6.802  16.819 -0.0729  0.8858  2.1465
 8967TIP3   OH248391   5.029   1.305  11.599 -0.1315  0.1478 -0.0221
 8967TIP3    H148392   5.064   1.391  11.620  2.1568 -0.9970  1.2687
 8967TIP3    H248393   5.057   1.289  11.509  2.2353 -0.4500  0.7522
 8968TIP3   OH248394   0.420   6.357   0.523  0.3040  0.6342  0.3306
 8968TIP3    H148395   0.447   6.402   0.443 -1.7714 -0.6306 -1.1651
 8968TIP3    H248396   0.366   6.421   0.569  2.4460  1.7863  1.4123
 8969TIP3   OH248397   4.659   0.032  11.767 -0.5120 -0.3440  0.0594
 8969TIP3    H148398   4.575   0.046  11.724 -0.3908 -2.5866 -1.0749
 8969TIP3    H248399   4.638  -0.026  11.841 -0.0278 -0.5890  0.0085
 8970TIP3   OH248400   0.391   5.619   4.699 -0.8819 -0.3273 -0.2827
 8970TIP3    H148401   0.421   5.543   4.749  0.3639  0.0733 -0.3814
 8970TIP3    H248402   0.364   5.682   4.766  1.6732  0.5739  0.0189
 8971TIP3   OH248403   5.270   3.732   0.208 -0.2237 -0.3814 -0.5384
 8971TIP3    H148404   5.221   3.686   0.140  0.4994 -1.1524 -0.5434
 8971TIP3    H248405   5.332   3.668   0.241 -1.4720 -0.4768  1.8257
 8972TIP3   OH248406   4.155   2.878   2.789  0.0652  0.1843  0.1522
 8972TIP3    H148407   4.116   2.823   2.720 -1.2348  1.1264  0.1215
 8972TIP3    H248408   4.244   2.843   2.799  0.1560 -0.2358 -1.7320
 8973TIP3   OH248409   4.556   1.522   6.039 -0.1660 -0.2553  0.2119
 8973TIP3    H148410   4.643   1.502   6.073 -0.2994 -0.5541  0.3731
 8973TIP3    H248411   4.496   1.494   6.107 -0.3728  0.3472  0.2838
 8974TIP3   OH248412   0.091   4.457  15.037  0.2804  0.4148  0.4184
 8974TIP3    H148413   0.072   4.436  14.945 -0.2234 -0.4814  0.7142
 8974TIP3    H248414   0.161   4.396  15.061  0.1970  0.4421  0.7216
 8975TIP3   OH248415   4.515   0.773  16.418  0.6248 -0.0135 -0.2689
 8975TIP3    H148416   4.527   0.830  16.494 -0.6308 -1.1868  0.8545
 8975TIP3    H248417   4.492   0.688  16.455  2.3206 -1.2686 -1.9153
 8976TIP3   OH248418   3.477   6.647   3.872 -0.2387  0.6604  0.3339
 8976TIP3    H148419   3.506   6.598   3.949 -1.3104 -1.6243 -0.6200
 8976TIP3    H248420   3.383   6.628   3.865 -0.0219  0.1260 -1.9457
 8977TIP3   OH248421   2.982   1.016  15.494  0.2832  0.5085  0.1219
 8977TIP3    H148422   3.009   1.016  15.586 -0.8352  0.5491  0.4671
 8977TIP3    H248423   2.936   0.933  15.483 -0.4596  0.9453 -0.1295
 8978TIP3   OH248424   1.382   2.716  14.313  0.5575  0.2195  0.1267
 8978TIP3    H148425   1.420   2.735  14.228 -0.3515 -2.6049 -1.0425
 8978TIP3    H248426   1.303   2.769  14.317  0.0653 -0.3617 -1.2977
 8979TIP3   OH248427   6.207   6.034   4.603  0.0166  0.3467 -0.5114
 8979TIP3    H148428   6.230   6.121   4.635 -0.2019 -0.4501  2.0160
 8979TIP3    H248429   6.121   6.017   4.641  0.1873 -1.0932 -0.7249
 8980TIP3   OH248430   2.183   2.721   2.054  0.2790  0.6525 -0.3862
 8980TIP3    H148431   2.222   2.667   1.985  0.3009 -0.4189  0.4546
 8980TIP3    H248432   2.197   2.672   2.135 -1.6666  0.8309  0.1201
 8981TIP3   OH248433   4.372   2.746  11.762 -0.1232  0.0703 -0.0227
 8981TIP3    H148434   4.465   2.721  11.758  0.3776  1.7350  0.3408
 8981TIP3    H248435   4.332   2.701  11.688  0.8445 -1.1252  0.1399
 8982TIP3   OH248436   1.050   0.593   4.272  0.1923  0.1238  0.2524
 8982TIP3    H148437   0.983   0.653   4.303 -1.2869 -0.7419 -1.1575
 8982TIP3    H248438   1.123   0.607   4.332 -1.0184  1.4942  1.4955
 8983TIP3   OH248439   0.948   2.317   3.176 -0.0472 -0.1766 -0.7655
 8983TIP3    H148440   0.965   2.408   3.155  0.1523  0.1048  0.5284
 8983TIP3    H248441   1.010   2.267   3.123  2.3998  0.6453  1.1518
 8984TIP3   OH248442   3.502   2.287  11.311  0.1513  0.1087  0.5919
 8984TIP3    H148443   3.433   2.225  11.286  1.2109 -1.0000  0.3594
 8984TIP3    H248444   3.519   2.338  11.232  0.8917 -0.8871  0.0837
 8985TIP3   OH248445   0.889   0.725  13.986  0.1609  0.0030 -0.6182
 8985TIP3    H148446   0.910   0.785  13.915 -0.8641  0.7471 -0.3275
 8985TIP3    H248447   0.794   0.734  13.997  0.4736  1.2083  1.9119
 8986TIP3   OH248448   6.429   0.943   2.649 -0.1791 -0.3880 -0.4419
 8986TIP3    H148449   6.423   0.913   2.558 -1.5049  1.1485 -0.9136
 8986TIP3    H248450   6.340   0.969   2.671  0.3878  0.5642  0.8363
 8987TIP3   OH248451   0.064   2.536   0.631 -0.4627 -0.2331 -0.0458
 8987TIP3    H148452  -0.030   2.551   0.633 -0.7349 -1.5436  3.5113
 8987TIP3    H248453   0.101   2.612   0.676  0.0561 -0.4879 -0.0393
 8988TIP3   OH248454   2.979   3.674   3.096 -0.8744 -0.0048 -0.0891
 8988TIP3    H148455   2.926   3.638   3.024  0.7499  2.5773 -2.7977
 8988TIP3    H248456   2.969   3.769   3.089  0.2868  0.3888  2.4114
 8989TIP3   OH248457   5.481   4.676   4.987 -0.2352  0.0643 -0.2130
 8989TIP3    H148458   5.445   4.593   4.957  0.2018  0.5045 -2.1171
 8989TIP3    H248459   5.511   4.719   4.907  1.3085  1.2287  0.9344
 8990TIP3   OH248460   3.234   4.741   0.606 -0.0165  0.5011 -0.7081
 8990TIP3    H148461   3.220   4.711   0.696 -1.5966 -2.2524 -1.7614
 8990TIP3    H248462   3.312   4.696   0.576 -0.9088 -0.6045 -1.4640
 8991TIP3   OH248463   1.132   2.736  11.765  0.0938 -0.5840 -0.0108
 8991TIP3    H148464   1.143   2.685  11.845 -0.4373  1.4200  1.4296
 8991TIP3    H248465   1.221   2.759  11.738  0.2333  0.1501  1.0180
 8992TIP3   OH248466   3.977   3.147  13.802 -0.6260  0.7817 -0.4390
 8992TIP3    H148467   3.962   3.228  13.851 -0.2012  0.7354 -0.2342
 8992TIP3    H248468   4.070   3.149  13.779 -0.7292  0.6037 -0.8900
 8993TIP3   OH248469   0.467   6.368  11.693 -0.7599  0.2944  0.4659
 8993TIP3    H148470   0.516   6.446  11.667 -0.9563  0.5696  0.9137
 8993TIP3    H248471   0.496   6.351  11.782 -1.1502  0.1923  0.5724
 8994TIP3   OH248472   3.601   2.828   3.788  0.0882 -0.5845  0.2419
 8994TIP3    H148473   3.561   2.902   3.742 -2.4679 -1.5259  0.7916
 8994TIP3    H248474   3.644   2.778   3.719  1.1954  0.9542 -0.2438
 8995TIP3   OH248475   4.362   0.834  12.891 -0.0081 -0.0169 -0.2569
 8995TIP3    H148476   4.293   0.900  12.897  0.5700  0.9910 -3.2510
 8995TIP3    H248477   4.331   0.762  12.946 -2.1779  1.4164  0.5399
 8996TIP3   OH248478   3.858   2.978   3.646 -0.1514 -0.5030  0.1620
 8996TIP3    H148479   3.798   2.914   3.606 -0.5575  0.3810 -0.6689
 8996TIP3    H248480   3.807   3.059   3.651  0.1714 -0.3650  1.7293
 8997TIP3   OH248481   2.994   4.410   5.270 -0.4832  0.0864  0.3206
 8997TIP3    H148482   2.916   4.368   5.233 -0.5398 -0.9266  1.5127
 8997TIP3    H248483   2.962   4.494   5.302 -0.6404  0.5430 -1.0007
 8998TIP3   OH248484   3.600   4.571   1.803 -0.2710 -0.2055 -0.6299
 8998TIP3    H148485   3.557   4.607   1.880 -0.9034  1.2063 -1.6015
 8998TIP3    H248486   3.606   4.644   1.742 -0.3257 -1.4086 -2.1587
 8999TIP3   OH248487   4.317   6.308   5.184 -0.4279 -0.2620  0.3938
 8999TIP3    H148488   4.268   6.382   5.150  0.6198  1.4814  2.4491
 8999TIP3    H248489   4.261   6.270   5.251  0.2397  0.6189  1.4832
 9000TIP3   OH248490   6.333   3.788   2.569 -0.5336  0.2480 -0.5400
 9000TIP3    H148491   6.345   3.699   2.536 -0.6862  0.5638 -1.4906
 9000TIP3    H248492   6.327   3.842   2.490 -1.8684  0.9146 -0.0175
 9001TIP3   OH248493   2.190   4.977   5.175  0.0787  0.2721 -0.2885
 9001TIP3    H148494   2.202   4.909   5.241 -0.0622 -1.8460 -2.3089
 9001TIP3    H248495   2.095   4.989   5.169  0.1123  0.8969  0.2538
 9002TIP3   OH248496   0.774   2.071  11.027  0.1644 -0.0306 -0.5286
 9002TIP3    H148497   0.702   2.134  11.036  0.5206  0.6411 -2.0021
 9002TIP3    H248498   0.836   2.114  10.968  0.5148 -1.6997 -1.4295
 9003TIP3   OH248499   4.376   4.058  14.456 -0.3324  0.4379 -0.1185
 9003TIP3    H148500   4.307   4.013  14.504  0.7141 -1.3791 -0.2629
 9003TIP3    H248501   4.364   4.029  14.365  2.5295 -2.5886  0.3018
 9004TIP3   OH248502   5.751   3.278   2.548 -0.3510  0.6120  0.3676
 9004TIP3    H148503   5.705   3.194   2.546 -0.4069  0.6617 -0.8520
 9004TIP3    H248504   5.821   3.266   2.612 -0.2009 -0.4475  0.0199
 9005TIP3   OH248505   4.333   6.659   0.204  0.5194 -0.0672  0.3414
 9005TIP3    H148506   4.401   6.708   0.159  2.1611 -2.2415  0.2805
 9005TIP3    H248507   4.287   6.612   0.134  0.0732  0.0617  0.5425
 9006TIP3   OH248508   1.208   6.400  14.552  0.3009  0.1846  0.0203
 9006TIP3    H148509   1.136   6.460  14.569  0.8593  1.0883 -0.7089
 9006TIP3    H248510   1.230   6.364  14.638 -1.1139 -0.2296  0.2236
 9007TIP3   OH248511   0.237   5.247  11.780 -0.2352  0.2404  0.3019
 9007TIP3    H148512   0.143   5.228  11.773  0.2762 -1.8077 -2.0936
 9007TIP3    H248513   0.272   5.177  11.834 -0.0130  0.9015  1.0426
 9008TIP3   OH248514   3.660   5.303   3.218 -0.5370 -0.6669  0.1222
 9008TIP3    H148515   3.740   5.307   3.269 -0.6924 -2.0466  0.5122
 9008TIP3    H248516   3.641   5.394   3.196  0.6793 -0.2487  0.7172
 9009TIP3   OH248517   6.360   2.619   1.320  0.4165 -0.0048 -0.1439
 9009TIP3    H148518   6.411   2.695   1.292  1.2292  0.2355  1.8595
 9009TIP3    H248519   6.425   2.551   1.336 -0.0990 -0.3965  0.2999
 9010TIP3   OH248520   4.523   4.971  17.006 -0.3463 -0.0038 -0.3103
 9010TIP3    H148521   4.608   5.001  17.040 -0.0503 -0.9069 -0.2283
 9010TIP3    H248522   4.543   4.931  16.922 -0.6185 -0.6503 -0.0716
 9011TIP3   OH248523   5.643   5.807   0.214  0.2047  0.6070  0.3828
 9011TIP3    H148524   5.706   5.876   0.195  0.0162  0.5953 -0.3022
 9011TIP3    H248525   5.684   5.727   0.182 -0.7152  0.7834 -1.3552
 9012TIP3   OH248526   3.987   2.704  17.106 -0.7059 -0.3472  0.4192
 9012TIP3    H148527   4.030   2.687  17.190 -1.5239  0.0694  0.9314
 9012TIP3    H248528   4.059   2.709  17.043  0.0530  0.8027  1.3279
 9013TIP3   OH248529   6.125   2.393  14.866  0.4612 -0.2512 -0.1186
 9013TIP3    H148530   6.193   2.341  14.824  0.8761  0.8485 -0.8498
 9013TIP3    H248531   6.074   2.330  14.917  0.7891 -1.4101 -1.1845
 9014TIP3   OH248532   3.261   6.175   1.480  0.0010  0.4856  0.2701
 9014TIP3    H148533   3.284   6.103   1.540 -0.8415 -0.4382 -0.4759
 9014TIP3    H248534   3.183   6.214   1.518  0.8153  1.4387  1.0096
 9015TIP3   OH248535   5.088   0.895  15.251 -0.5283  0.1194 -0.4057
 9015TIP3    H148536   5.095   0.807  15.289  0.3745  0.4929  0.3291
 9015TIP3    H248537   5.012   0.933  15.293 -0.6778 -0.1655 -0.4164
 9016TIP3   OH248538   1.387   1.052   1.535 -0.7443 -0.6032  0.4414
 9016TIP3    H148539   1.380   0.961   1.564 -1.6079 -0.3767  0.9608
 9016TIP3    H248540   1.309   1.066   1.481  0.3438 -0.7255 -1.2147
 9017TIP3   OH248541   6.380   3.947   5.517 -0.3179  0.3224  0.7848
 9017TIP3    H148542   6.325   3.986   5.450  1.1706 -0.7484 -1.1510
 9017TIP3    H248543   6.388   4.015   5.584  0.1147  2.4144 -1.2592
 9018TIP3   OH248544   4.478   0.248   3.712 -0.4385 -0.1263 -0.0740
 9018TIP3    H148545   4.546   0.189   3.679  0.4022  1.5044 -1.4220
 9018TIP3    H248546   4.398   0.197   3.707  0.3712 -1.4165 -0.4037
 9019TIP3   OH248547   3.393   3.238  11.724  0.1536 -0.3469  0.7812
 9019TIP3    H148548   3.324   3.172  11.721 -0.0044 -0.1918  1.0195
 9019TIP3    H248549   3.356   3.310  11.775 -1.2185  1.6445 -2.6068
 9020TIP3   OH248550   0.928   3.668   4.294  0.2049  0.2467  0.6565
 9020TIP3    H148551   0.970   3.600   4.347  1.5381  0.4302 -0.1106
 9020TIP3    H248552   0.950   3.750   4.338  2.7835  0.5595 -0.9835
 9021TIP3   OH248553   6.175   3.986   5.244  0.1376 -0.4583  0.0316
 9021TIP3    H148554   6.124   4.012   5.167  0.9913  0.2154 -0.3242
 9021TIP3    H248555   6.114   3.993   5.317 -0.1896  0.6419 -0.3386
 9022TIP3   OH248556   5.096   2.410  16.502  0.2776 -0.0038 -0.5529
 9022TIP3    H148557   5.133   2.355  16.433  2.6906  0.1653  0.5264
 9022TIP3    H248558   5.080   2.350  16.574 -1.9997 -0.1299 -1.0827
 9023TIP3   OH248559   5.638   0.342  14.534 -0.2476 -0.4168 -0.2063
 9023TIP3    H148560   5.697   0.313  14.465  0.4840 -0.4269  0.4082
 9023TIP3    H248561   5.649   0.437  14.538 -0.2292 -0.4251 -0.0461
 9024TIP3   OH248562   0.768   5.866  14.121  0.3485 -0.5730  0.0371
 9024TIP3    H148563   0.779   5.837  14.212  0.8944  1.6359  0.7591
 9024TIP3    H248564   0.852   5.848  14.080  0.5790 -0.3121  0.3852
 9025TIP3   OH248565   2.623   1.961   4.930 -0.2400 -0.0288 -0.1694
 9025TIP3    H148566   2.549   1.901   4.918  0.4692 -0.5601 -2.2806
 9025TIP3    H248567   2.700   1.908   4.914  0.7337  0.3195  2.8304
 9026TIP3   OH248568   0.123   1.827   2.208  0.1250  0.2469 -0.5971
 9026TIP3    H148569   0.042   1.845   2.160 -0.1866 -0.3777 -0.3104
 9026TIP3    H248570   0.191   1.872   2.158 -0.7079  2.9440  0.5250
 9027TIP3   OH248571   3.151   1.479  12.995 -0.5137  0.3926  0.3161
 9027TIP3    H148572   3.202   1.504  12.918 -0.6988 -0.3423 -0.0516
 9027TIP3    H248573   3.068   1.446  12.959  0.0222 -1.5002  0.7137
 9028TIP3   OH248574   0.123   5.267   0.183 -0.0456 -0.1503  0.1461
 9028TIP3    H148575   0.093   5.280   0.093  0.6947 -0.7326 -0.1909
 9028TIP3    H248576   0.084   5.184   0.210 -0.8287  0.3519  0.6186
 9029TIP3   OH248577   0.109   4.235  11.159  0.4321  0.5993  0.0209
 9029TIP3    H148578   0.143   4.152  11.192  0.3077  0.3655 -0.4417
 9029TIP3    H248579   0.114   4.227  11.064 -3.0027 -0.3413 -0.1898
 9030TIP3   OH248580   4.217   1.863  11.912 -0.4946  0.3828  0.8314
 9030TIP3    H148581   4.172   1.939  11.874 -0.3951  0.5787  1.1016
 9030TIP3    H248582   4.309   1.876  11.890 -0.7225 -0.8187 -1.0984
 9031TIP3   OH248583   5.786   6.068   6.040  0.2896 -0.6736 -0.4453
 9031TIP3    H148584   5.720   6.079   5.971 -0.8205  0.2765  0.7199
 9031TIP3    H248585   5.806   6.157   6.069  2.9081 -0.8502 -1.4558
 9032TIP3   OH248586   3.976   1.473   5.162  0.2670  0.4062  0.5059
 9032TIP3    H148587   4.051   1.417   5.143  0.0261  0.0511  0.6139
 9032TIP3    H248588   3.964   1.524   5.082 -0.0269 -0.2739  0.1085
 9033TIP3   OH248589   3.808   3.272  13.270 -0.2599 -0.1478  0.0787
 9033TIP3    H148590   3.822   3.367  13.278 -1.1991 -0.0735  1.0517
 9033TIP3    H248591   3.868   3.234  13.335 -1.8097 -0.0334  1.6547
 9034TIP3   OH248592   1.710   2.835  13.723  0.3020 -0.3002 -0.7139
 9034TIP3    H148593   1.690   2.926  13.699 -0.7538  0.1010  1.4782
 9034TIP3    H248594   1.630   2.787  13.700  0.4900 -0.5106 -0.9340
 9035TIP3   OH248595   6.679   4.552  15.372  0.5607  0.2844 -0.3231
 9035TIP3    H148596   6.615   4.512  15.431 -0.0476 -1.1387 -1.8547
 9035TIP3    H248597   6.632   4.625  15.331  1.2580  1.8540  1.4946
 9036TIP3   OH248598   6.780   0.526   2.497 -0.7611 -0.2602  0.8640
 9036TIP3    H148599   6.838   0.484   2.560 -0.2578 -0.2103  0.4353
 9036TIP3    H248600   6.703   0.469   2.494 -0.4510 -0.6885  0.9360
 9037TIP3   OH248601   4.346   5.529   1.118  0.0298 -0.2389 -0.2661
 9037TIP3    H148602   4.383   5.514   1.031  1.3191  0.2863  0.1521
 9037TIP3    H248603   4.421   5.517   1.177 -0.9618 -1.2352  0.8304
 9038TIP3   OH248604   6.371   5.860   2.006  0.3806 -0.0373  0.2533
 9038TIP3    H148605   6.387   5.934   1.946  0.1831 -0.0855  0.1383
 9038TIP3    H248606   6.450   5.854   2.059  0.5090  0.0837  0.0760
 9039TIP3   OH248607   3.919   0.635   5.705 -0.0273 -0.2656 -1.1708
 9039TIP3    H148608   3.864   0.712   5.688  0.3688  0.6876  1.4165
 9039TIP3    H248609   3.867   0.581   5.764  0.7734 -0.6238 -0.7799
 9040TIP3   OH248610   4.971   2.644   2.774 -0.1481 -0.0016  0.3814
 9040TIP3    H148611   4.951   2.732   2.743 -0.7833 -0.4381 -0.5188
 9040TIP3    H248612   5.067   2.639   2.773 -0.1179  0.5143 -0.0541
 9041TIP3   OH248613   4.643   3.111  15.141  0.1883  0.8632  0.6169
 9041TIP3    H148614   4.671   3.036  15.192  0.0514 -0.4084 -1.0728
 9041TIP3    H248615   4.549   3.120  15.158  0.2636  0.8259  1.0417
 9042TIP3   OH248616   5.281   0.949  13.779 -0.2880 -0.4858 -0.0261
 9042TIP3    H148617   5.266   0.858  13.805 -0.6069 -0.1533  1.0275
 9042TIP3    H248618   5.340   0.983  13.846 -0.4816  0.1843 -0.1929
 9043TIP3   OH248619   0.818   0.767   3.739  0.3176  0.2224 -0.4735
 9043TIP3    H148620   0.726   0.739   3.742  0.6087 -0.7222  0.0081
 9043TIP3    H248621   0.820   0.835   3.671 -0.8841  0.8384  0.0656
 9044TIP3   OH248622   4.070   0.442   1.758 -0.3222  0.7361 -0.1188
 9044TIP3    H148623   3.976   0.438   1.777 -0.5361  1.2397 -1.0380
 9044TIP3    H248624   4.103   0.357   1.785 -0.8825  0.8631  1.0311
 9045TIP3   OH248625   1.196   2.767   4.165  0.0891  0.0026 -0.4508
 9045TIP3    H148626   1.158   2.782   4.078 -1.8864 -1.0143  0.1717
 9045TIP3    H248627   1.128   2.718   4.212  2.0468 -1.5463  0.9085
 9046TIP3   OH248628   0.231   3.318   5.806  0.6031  1.1010 -0.5152
 9046TIP3    H148629   0.264   3.280   5.887  0.6697  1.6545 -0.2732
 9046TIP3    H248630   0.225   3.245   5.745 -0.6663  0.4287  0.3603
 9047TIP3   OH248631   6.324   4.959  11.390 -0.3723  0.0982 -0.2506
 9047TIP3    H148632   6.386   4.905  11.439  0.4395  0.0897 -1.2498
 9047TIP3    H248633   6.372   4.986  11.312 -0.8082  2.1231  0.1128
 9048TIP3   OH248634   6.289   3.645   2.233 -0.4435 -0.0831  0.5090
 9048TIP3    H148635   6.379   3.651   2.265 -0.0823  1.0555 -0.6386
 9048TIP3    H248636   6.294   3.585   2.159 -0.4491  0.6481 -0.0951
 9049TIP3   OH248637   0.691   3.864  14.414 -0.6648  0.0185 -0.6616
 9049TIP3    H148638   0.779   3.900  14.415 -0.7619  0.3709 -2.0054
 9049TIP3    H248639   0.685   3.811  14.493  0.1135  1.4734  0.4156
 9050TIP3   OH248640   0.882   1.544  14.366  0.3869 -0.0418  0.3699
 9050TIP3    H148641   0.949   1.512  14.426 -0.1973  0.8905  1.5650
 9050TIP3    H248642   0.925   1.616  14.318  0.3521  0.3423  0.9061
 9051TIP3   OH248643   0.890   1.143   1.257  0.3093  0.9413 -0.1426
 9051TIP3    H148644   0.971   1.156   1.206  0.5149 -1.0738 -0.3978
 9051TIP3    H248645   0.874   1.049   1.253 -1.1167  1.0806  1.3690
 9052TIP3   OH248646   0.489   5.708   0.838  0.7617 -0.3292  0.2059
 9052TIP3    H148647   0.555   5.758   0.789 -0.8093  2.3178  0.5634
 9052TIP3    H248648   0.523   5.706   0.928  0.7262  0.3733  0.2421
 9053TIP3   OH248649   1.877   4.058   1.419  1.0501 -0.1577  0.4776
 9053TIP3    H148650   1.907   4.145   1.390  0.5948 -0.7074 -1.8091
 9053TIP3    H248651   1.831   4.076   1.501  2.6893  1.4618  1.1351
 9054TIP3   OH248652   0.837   3.920  15.462  0.0034  0.2375  0.0194
 9054TIP3    H148653   0.772   3.885  15.523  1.2296 -0.9055  0.7106
 9054TIP3    H248654   0.917   3.930  15.515  0.4777  1.3869 -0.8642
 9055TIP3   OH248655   4.067   5.176   5.138  0.2813  0.4921  0.5409
 9055TIP3    H148656   4.141   5.196   5.196  0.4783 -0.9901  0.8481
 9055TIP3    H248657   4.012   5.254   5.142  1.7246  1.5599  0.4629
 9056TIP3   OH248658   3.449   1.451  14.519  0.0372 -0.1687  0.0375
 9056TIP3    H148659   3.529   1.495  14.548  0.1935 -0.2636 -0.2535
 9056TIP3    H248660   3.462   1.435  14.426  0.1959 -1.2926  0.2375
 9057TIP3   OH248661   6.011   5.356   3.448  0.4708  0.1564  0.3441
 9057TIP3    H148662   5.943   5.373   3.382  0.0416 -1.3525  0.3584
 9057TIP3    H248663   6.080   5.420   3.429 -0.3230  0.7637 -0.5840
 9058TIP3   OH248664   1.013   3.164   4.463  0.2757 -0.0045 -0.0456
 9058TIP3    H148665   0.982   3.076   4.446  0.9101 -0.6675  1.9584
 9058TIP3    H248666   1.098   3.152   4.508 -0.7193  1.4706  2.4687
 9059TIP3   OH248667   2.573   1.192  10.779  0.0043  0.2385  0.0368
 9059TIP3    H148668   2.663   1.223  10.775 -0.0615  0.3212 -1.2118
 9059TIP3    H248669   2.540   1.202  10.690 -0.8060 -1.0763  0.1529
 9060TIP3   OH248670   2.210   4.808  12.445 -0.2427  0.0293  0.0104
 9060TIP3    H148671   2.265   4.749  12.392 -0.1543 -0.7677  0.9560
 9060TIP3    H248672   2.190   4.757  12.524 -0.8045  1.0007  0.5090
 9061TIP3   OH248673   1.561   2.559   4.409 -0.3002 -0.3956 -0.7021
 9061TIP3    H148674   1.626   2.542   4.477 -0.4446 -0.1207 -0.4894
 9061TIP3    H248675   1.572   2.488   4.346 -0.5884 -1.0111 -0.0753
 9062TIP3   OH248676   4.319   1.776   4.623  0.1549 -0.5574 -0.3165
 9062TIP3    H148677   4.346   1.816   4.706  1.6073 -1.5355 -0.2868
 9062TIP3    H248678   4.400   1.741   4.586 -0.8313 -2.1667 -1.0446
 9063TIP3   OH248679   3.058   6.429   5.596  0.1072  0.3853 -0.3408
 9063TIP3    H148680   3.087   6.441   5.505  0.6225  1.3461 -0.0636
 9063TIP3    H248681   3.075   6.514   5.638 -3.4494  1.1806 -0.2257
 9064TIP3   OH248682   1.811   5.998  11.704 -0.2210 -0.7710  0.1600
 9064TIP3    H148683   1.836   6.015  11.795  1.5111  0.8015 -0.5484
 9064TIP3    H248684   1.742   6.063  11.686 -0.3894 -0.9169  0.2816
 9065TIP3   OH248685   5.067   2.496  10.357  0.3304  0.1034  0.0394
 9065TIP3    H148686   5.105   2.457  10.279 -1.2278  0.4776 -0.9603
 9065TIP3    H248687   5.037   2.583  10.328 -2.1086 -0.5277  0.4409
 9066TIP3   OH248688   1.341   2.740   5.757 -0.4391  0.5784 -0.5727
 9066TIP3    H148689   1.261   2.736   5.810 -0.3989  2.0053 -0.3763
 9066TIP3    H248690   1.403   2.789   5.810  1.4221 -2.4636  0.2931
 9067TIP3   OH248691   5.990   6.559   3.978  0.2958  0.2242 -0.0969
 9067TIP3    H148692   5.944   6.476   3.984 -1.3834  1.1973  4.1007
 9067TIP3    H248693   6.065   6.549   4.037  0.7458  1.2935 -0.4600
 9068TIP3   OH248694   2.626   5.662   5.011  0.0465 -0.3802 -0.2076
 9068TIP3    H148695   2.615   5.619   4.926 -1.7657  0.1806 -0.3033
 9068TIP3    H248696   2.720   5.663   5.025  0.5578  0.9552 -2.9714
 9069TIP3   OH248697   2.903   2.216  12.127  0.2756 -0.2970  0.4856
 9069TIP3    H148698   2.865   2.288  12.177 -0.3083 -0.7793  0.7510
 9069TIP3    H248699   2.872   2.137  12.172 -0.9923 -0.7767 -1.1547
 9070TIP3   OH248700   6.796   4.095   0.862  0.4281  0.1582  0.8101
 9070TIP3    H148701   6.851   4.151   0.917 -0.0861  0.2238  1.2760
 9070TIP3    H248702   6.833   4.103   0.775  1.4606 -0.1964  1.1959
 9071TIP3   OH248703   5.397   1.584  16.966  0.2694 -0.4256 -0.2741
 9071TIP3    H148704   5.361   1.560  17.051 -1.2509 -0.0446 -0.7838
 9071TIP3    H248705   5.363   1.518  16.906 -2.0261  1.5290 -1.2764
 9072TIP3   OH248706   3.284   6.023  11.894  0.0063 -0.5191 -0.1090
 9072TIP3    H148707   3.328   6.101  11.927  1.8751 -1.8575  0.7644
 9072TIP3    H248708   3.203   6.016  11.946  0.7977 -0.2246  1.2075
 9073TIP3   OH248709   1.431   2.275  15.876  0.3076 -0.3013 -0.1089
 9073TIP3    H148710   1.429   2.321  15.793 -0.5337 -0.6295 -0.2851
 9073TIP3    H248711   1.524   2.265  15.896  0.5419  2.2006  0.3632
 9074TIP3   OH248712   3.481   4.595   5.143  0.3578  0.7519  0.4263
 9074TIP3    H148713   3.460   4.688   5.153 -0.9847  0.3236  2.2043
 9074TIP3    H248714   3.543   4.591   5.071  1.2824  3.1445  1.0229
 9075TIP3   OH248715   4.501   2.111   3.478 -0.3697 -0.3243 -0.1895
 9075TIP3    H148716   4.540   2.196   3.455 -0.0777 -0.7908 -1.5419
 9075TIP3    H248717   4.408   2.129   3.485 -0.5844 -0.2345 -2.5163
 9076TIP3   OH248718   6.104   0.542  12.487  1.2422 -0.2889  0.7718
 9076TIP3    H148719   6.035   0.568  12.426  0.8539  0.1774  1.3894
 9076TIP3    H248720   6.114   0.618  12.545  0.5460 -1.2576  2.2202
 9077TIP3   OH248721   1.421   5.337  12.450  0.0559 -0.2169 -0.2741
 9077TIP3    H148722   1.512   5.339  12.480 -0.5585 -2.1216  2.0688
 9077TIP3    H248723   1.427   5.325  12.356  2.1648  2.9759 -0.7095
 9078TIP3   OH248724   1.952   3.371  11.099  0.6078  0.7082 -0.2162
 9078TIP3    H148725   1.935   3.277  11.095  1.5137  0.4935  0.4401
 9078TIP3    H248726   2.026   3.385  11.039  1.3925  0.7437  0.7205
 9079TIP3   OH248727   4.389   5.001  11.225 -0.6490  0.1719 -0.1263
 9079TIP3    H148728   4.465   4.967  11.179  0.3299 -0.2218  1.6864
 9079TIP3    H248729   4.327   5.024  11.155  0.4229 -1.1127 -1.5843
 9080TIP3   OH248730   5.847   4.164  14.774 -0.2346  0.1350  0.6311
 9080TIP3    H148731   5.796   4.090  14.740  0.4352 -1.2831  2.5454
 9080TIP3    H248732   5.782   4.232  14.791 -1.6682 -1.7221  3.2992
 9081TIP3   OH248733   6.012   1.234   6.223 -0.3819  0.6153  0.4125
 9081TIP3    H148734   5.934   1.210   6.273 -0.4793  0.6269  0.2670
 9081TIP3    H248735   6.022   1.328   6.237 -2.0777  1.2373 -1.8720
 9082TIP3   OH248736   5.893   2.194   1.647 -0.5239 -0.4507 -0.0793
 9082TIP3    H148737   5.815   2.161   1.602 -1.1961  0.4864  0.3842
 9082TIP3    H248738   5.958   2.125   1.634 -1.4968 -1.3636 -0.2655
 9083TIP3   OH248739   3.163   1.197   3.602  0.5612 -0.5440  0.6219
 9083TIP3    H148740   3.202   1.142   3.534  0.5654  0.2911 -0.0632
 9083TIP3    H248741   3.075   1.215   3.571  1.0098  0.9734  0.1339
 9084TIP3   OH248742   6.071   1.510  14.468 -0.3745  0.6475 -0.0429
 9084TIP3    H148743   6.099   1.540  14.555 -0.1553  0.4781 -0.0526
 9084TIP3    H248744   5.996   1.453  14.486 -1.1189  1.6060 -0.0654
 9085TIP3   OH248745   6.433   5.493   1.791 -0.6257  0.2085 -0.4452
 9085TIP3    H148746   6.450   5.426   1.857 -0.9410 -0.7065 -1.2803
 9085TIP3    H248747   6.407   5.445   1.713 -1.1775  1.3190 -0.9743
 9086TIP3   OH248748   1.068   2.495   0.079  0.2443  0.4839 -0.6414
 9086TIP3    H148749   0.989   2.499   0.132 -0.0437  0.6349 -1.0829
 9086TIP3    H248750   1.072   2.404   0.050 -0.6908  0.8473 -2.0076
 9087TIP3   OH248751   6.355   0.589  16.289 -0.0271  0.5334 -0.3585
 9087TIP3    H148752   6.283   0.643  16.320 -0.5912  0.1736 -1.0086
 9087TIP3    H248753   6.374   0.530  16.362 -0.6136  0.4119 -0.2992
 9088TIP3   OH248754   2.557   4.192   2.752  0.2686 -0.0360  0.3428
 9088TIP3    H148755   2.641   4.192   2.708  0.6760 -0.5784  1.0997
 9088TIP3    H248756   2.526   4.102   2.747  0.3897 -0.1396  1.2775
 9089TIP3   OH248757   3.032   4.367   2.351  0.2386 -0.1031 -0.6196
 9089TIP3    H148758   3.018   4.449   2.304  2.8095  0.4826 -0.4720
 9089TIP3    H248759   2.992   4.382   2.437 -3.6458 -0.8496 -2.0660
 9090TIP3   OH248760   3.926   2.538   1.883 -0.0015 -0.2393 -0.5288
 9090TIP3    H148761   3.895   2.547   1.973  1.1433 -1.1839 -0.0044
 9090TIP3    H248762   3.962   2.449   1.879  2.1557  0.6053 -1.2134
 9091TIP3   OH248763   5.890   6.090  12.980 -0.2724  0.1998  0.1915
 9091TIP3    H148764   5.794   6.087  12.987 -0.2475 -1.5103  0.2464
 9091TIP3    H248765   5.910   6.031  12.907  0.7523  0.4325  0.2769
 9092TIP3   OH248766   0.263   6.539   1.651 -0.2346  0.1265  0.0320
 9092TIP3    H148767   0.335   6.495   1.696 -1.3807 -0.6249  1.2191
 9092TIP3    H248768   0.252   6.490   1.569 -1.0062 -1.3960  0.9963
 9093TIP3   OH248769   5.377   3.637  17.051  0.1598  0.1408  0.2877
 9093TIP3    H148770   5.290   3.630  17.090 -0.3810 -2.5922 -1.1160
 9093TIP3    H248771   5.433   3.668  17.122 -1.3186 -1.7023  2.3960
 9094TIP3   OH248772   4.581   6.819   4.511  0.2070 -0.6655  0.5427
 9094TIP3    H148773   4.519   6.876   4.464 -3.2562 -2.8390  2.0740
 9094TIP3    H248774   4.581   6.853   4.600  0.5905 -1.1884  0.7458
 9095TIP3   OH248775   3.608   0.645   5.577  0.0504 -0.4574  0.2415
 9095TIP3    H148776   3.652   0.669   5.495 -1.0766  0.4055 -0.1380
 9095TIP3    H248777   3.575   0.556   5.561 -0.8672  0.0066 -0.5686
 9096TIP3   OH248778   6.123   5.455   5.926  0.2979 -0.3254  0.0521
 9096TIP3    H148779   6.121   5.378   5.869 -1.3587  0.3422 -0.8318
 9096TIP3    H248780   6.087   5.424   6.009  1.9926 -1.1027  0.5393
 9097TIP3   OH248781   4.354   3.342   6.607  0.1512 -0.2319  0.2677
 9097TIP3    H148782   4.400   3.335   6.524  0.8915 -1.3459  0.7458
 9097TIP3    H248783   4.300   3.263   6.611  0.6965 -0.5698  1.1718
 9098TIP3   OH248784   3.502   3.305   2.455 -0.4856  0.4267  0.2506
 9098TIP3    H148785   3.418   3.262   2.463 -0.3786 -0.0486 -0.9278
 9098TIP3    H248786   3.564   3.246   2.498 -0.4499 -0.2763 -0.7251
 9099TIP3   OH248787   3.694   3.797   3.314 -0.1879 -0.3066 -0.3885
 9099TIP3    H148788   3.670   3.826   3.402 -1.5838 -0.0054 -0.8343
 9099TIP3    H248789   3.713   3.878   3.266  0.4362 -0.4593 -0.4085
 9100TIP3   OH248790   0.783   3.629   3.025 -0.1414 -0.1714  0.8845
 9100TIP3    H148791   0.797   3.546   2.979 -2.0417 -0.5568  0.9059
 9100TIP3    H248792   0.720   3.676   2.970  1.5135  1.6485  0.4606
 9101TIP3   OH248793   0.878   1.420   4.455 -0.3043 -0.5048 -0.1771
 9101TIP3    H148794   0.933   1.345   4.476  1.5344  0.8529  0.1656
 9101TIP3    H248795   0.887   1.478   4.531 -0.6594  0.5955 -0.9487
 9102TIP3   OH248796   3.058   5.066  11.190  0.2842 -0.8680  0.2438
 9102TIP3    H148797   3.058   5.041  11.282  0.4724 -0.1290  0.4577
 9102TIP3    H248798   3.116   5.142  11.187 -0.9337  0.0701 -0.2136
 9103TIP3   OH248799   0.476   2.851  12.926 -0.2376 -0.1209 -0.2386
 9103TIP3    H148800   0.490   2.757  12.917 -2.3373 -0.8043  2.2827
 9103TIP3    H248801   0.408   2.858  12.993 -0.6771  3.1922 -0.8859
 9104TIP3   OH248802   1.956   2.397   4.583 -0.3830  0.0765 -0.1172
 9104TIP3    H148803   1.897   2.341   4.532  1.3873 -2.1268  0.1087
 9104TIP3    H248804   1.901   2.470   4.611 -2.3966 -0.6886 -1.8363
 9105TIP3   OH248805   0.325   0.192   0.635  0.1709 -0.4026  0.1616
 9105TIP3    H148806   0.392   0.137   0.595  0.1121  1.0050 -1.9645
 9105TIP3    H248807   0.266   0.215   0.564  0.3227  2.6149  0.8872
 9106TIP3   OH248808   6.724   2.206  13.787 -0.9873  0.4221  0.0520
 9106TIP3    H148809   6.726   2.119  13.828 -0.9508 -0.3493 -1.5214
 9106TIP3    H248810   6.681   2.192  13.703 -0.2247  1.7676 -0.5931
 9107TIP3   OH248811   6.280   2.329   2.909  0.5587  0.6484 -0.1495
 9107TIP3    H148812   6.224   2.295   2.839  0.6575  0.1385  0.0159
 9107TIP3    H248813   6.282   2.259   2.974  2.5174  0.0494 -0.7835
 9108TIP3   OH248814   6.619   1.554  14.403  0.0628 -0.1866 -0.1626
 9108TIP3    H148815   6.662   1.572  14.319 -0.6775 -1.4733 -0.8407
 9108TIP3    H248816   6.651   1.623  14.461 -0.2775  1.4253 -1.7981
 9109TIP3   OH248817   4.737   1.596   0.844  0.1186 -0.5741  0.1515
 9109TIP3    H148818   4.697   1.509   0.842  0.1555 -0.5884 -0.0307
 9109TIP3    H248819   4.703   1.637   0.924  0.3145 -0.8574  0.3810
 9110TIP3   OH248820   4.706   1.514   3.499  0.3025 -0.4278  0.0553
 9110TIP3    H148821   4.800   1.517   3.483  0.6372 -3.1799  1.0176
 9110TIP3    H248822   4.694   1.442   3.561 -2.2518  1.0981  1.5614
 9111TIP3   OH248823   4.860   3.679   4.436  0.3253  0.2696 -0.4643
 9111TIP3    H148824   4.832   3.589   4.448 -0.9595  0.7550  0.3678
 9111TIP3    H248825   4.874   3.687   4.342  2.1255 -1.2429 -0.3763
 9112TIP3   OH248826   2.532   3.488   2.067 -0.5128  0.0160  0.2249
 9112TIP3    H148827   2.529   3.475   2.162 -3.4317  2.3717  0.6053
 9112TIP3    H248828   2.589   3.563   2.055 -1.3019  0.6419  0.3054
 9113TIP3   OH248829   0.352   3.725   5.418  0.0170  0.1790 -0.1728
 9113TIP3    H148830   0.282   3.770   5.371 -1.7100  1.2574  3.0744
 9113TIP3    H248831   0.314   3.705   5.504  3.0646 -1.1010  1.0244
 9114TIP3   OH248832   3.741   0.956  16.449  0.0106  0.2207  0.6089
 9114TIP3    H148833   3.679   1.027  16.468 -0.3056 -0.1907  1.1565
 9114TIP3    H248834   3.816   1.000  16.409 -0.4779  0.7719  0.2882
 9115TIP3   OH248835   5.633   1.926  14.308  0.2031  0.4888  0.2316
 9115TIP3    H148836   5.671   1.861  14.368 -1.5206 -0.2713  0.5741
 9115TIP3    H248837   5.560   1.880  14.267 -1.3672  2.3281  0.8132
 9116TIP3   OH248838   2.805   1.044  11.286 -0.1278  0.0902 -0.6068
 9116TIP3    H148839   2.872   1.007  11.344 -1.7994  0.4806  1.7093
 9116TIP3    H248840   2.723   1.003  11.313 -1.4037  2.3048 -0.8131
 9117TIP3   OH248841   4.299   0.536  14.389  0.0461 -0.0048  0.0520
 9117TIP3    H148842   4.384   0.558  14.426  0.6809 -2.3118  0.1294
 9117TIP3    H248843   4.312   0.542  14.294  1.0874 -2.5753 -0.0641
 9118TIP3   OH248844   4.947   4.732  11.505  0.1813  0.9856 -0.1362
 9118TIP3    H148845   4.946   4.677  11.582  1.2541 -0.4420 -1.0908
 9118TIP3    H248846   5.040   4.750  11.490  0.0748  0.4264 -1.6265
 9119TIP3   OH248847   5.365   3.840  14.259 -0.1915 -0.3446 -0.1226
 9119TIP3    H148848   5.344   3.754  14.223  0.8817 -0.5949 -0.1841
 9119TIP3    H248849   5.413   3.821  14.340  1.1087  0.1562 -0.7381
 9120TIP3   OH248850   5.592   5.944   2.865  0.5606 -0.4110 -0.5645
 9120TIP3    H148851   5.561   5.855   2.883  0.5809 -0.3483 -0.2246
 9120TIP3    H248852   5.572   5.994   2.944  0.5396 -0.1088 -0.7588
 9121TIP3   OH248853   3.010   3.016  16.819  0.1369  0.6201  0.1252
 9121TIP3    H148854   2.936   3.019  16.759  1.0969  0.1924 -1.1314
 9121TIP3    H248855   3.076   3.072  16.778  2.3140 -2.7309 -1.3639
 9122TIP3   OH248856   3.334   0.937   3.743  0.3182  0.1992 -0.2306
 9122TIP3    H148857   3.288   0.946   3.660  0.0829 -1.2241 -0.2781
 9122TIP3    H248858   3.277   0.881   3.796  2.0950 -1.9027 -0.4013
 9123TIP3   OH248859   1.365   1.777  11.226  0.1956 -0.3710  0.0337
 9123TIP3    H148860   1.383   1.720  11.301  1.8105 -1.8012 -1.3523
 9123TIP3    H248861   1.294   1.733  11.179  2.4521 -2.3030 -1.8876
 9124TIP3   OH248862   2.581   5.186   3.140 -0.1936  0.2626  0.2955
 9124TIP3    H148863   2.509   5.187   3.203 -0.1666 -0.0873  0.3361
 9124TIP3    H248864   2.538   5.186   3.054 -0.2787 -1.1727  0.3175
 9125TIP3   OH248865   6.393   4.635   2.518  0.4488  0.3607  0.3382
 9125TIP3    H148866   6.322   4.671   2.466  0.5995  0.2734  0.0669
 9125TIP3    H248867   6.410   4.701   2.585  1.2547  1.1819 -0.6348
 9126TIP3   OH248868   5.621   6.201   1.754  0.0291 -0.1024 -0.3723
 9126TIP3    H148869   5.624   6.259   1.830 -0.1512 -0.5669 -0.0014
 9126TIP3    H248870   5.632   6.259   1.678  1.6056  0.2029  0.0672
 9127TIP3   OH248871   0.606   0.916  14.435 -0.8732  0.5132  0.5474
 9127TIP3    H148872   0.638   0.877  14.354 -1.7693 -0.5787  0.6909
 9127TIP3    H248873   0.593   1.009  14.413 -0.4568  0.3716 -0.3469
 9128TIP3   OH248874   3.592   6.186   4.969  0.1161 -0.0659  0.4293
 9128TIP3    H148875   3.596   6.265   5.023  0.7473  1.9907 -2.3957
 9128TIP3    H248876   3.680   6.149   4.975  0.5330  0.8031 -0.0438
 9129TIP3   OH248877   0.124   1.947  10.259  0.2992 -0.6292  0.5818
 9129TIP3    H148878   0.130   1.878  10.326 -1.1066  0.1312  1.5567
 9129TIP3    H248879   0.101   1.900  10.179 -0.2251 -1.3501  1.1379
 9130TIP3   OH248880   0.927   5.932  11.327  0.0840  0.3499  0.0089
 9130TIP3    H148881   0.833   5.931  11.345 -0.2117 -0.0087 -1.4806
 9130TIP3    H248882   0.941   5.861  11.265  0.7898  2.4185 -2.3534
 9131TIP3   OH248883   3.322   6.177   0.838  0.5166 -0.0684 -0.5160
 9131TIP3    H148884   3.356   6.154   0.925  1.1358  1.6710 -0.2626
 9131TIP3    H248885   3.237   6.217   0.856  0.2451 -0.5128 -0.7996
 9132TIP3   OH248886   6.364   1.446  10.353 -0.5358  0.2285 -0.2527
 9132TIP3    H148887   6.297   1.379  10.369  0.6472 -1.0584 -0.5456
 9132TIP3    H248888   6.403   1.422  10.270  1.7508 -0.3273  0.9086
 9133TIP3   OH248889   1.880   0.923  15.332 -0.4327  0.8767  0.0183
 9133TIP3    H148890   1.818   0.994  15.315 -0.2456  1.2700  0.9548
 9133TIP3    H248891   1.962   0.967  15.353 -0.1550  0.3731  0.0121
 9134TIP3   OH248892   3.010   2.805   5.547  0.3501  0.0629  0.1242
 9134TIP3    H148893   3.098   2.819   5.511  0.4705  1.1155  0.7518
 9134TIP3    H248894   2.962   2.885   5.524 -0.8936 -1.0547 -1.3884
 9135TIP3   OH248895   1.944   3.489   0.291 -0.1316 -0.0776 -0.0115
 9135TIP3    H148896   1.987   3.516   0.372  0.2434 -0.4544 -0.0801
 9135TIP3    H248897   1.855   3.522   0.299 -0.0532  0.0194  0.4884
 9136TIP3   OH248898   5.636   1.078  16.985 -0.2633 -0.2264  0.3790
 9136TIP3    H148899   5.616   1.171  16.972 -0.7169 -0.2585  0.8182
 9136TIP3    H248900   5.679   1.052  16.904  2.0318  0.9532  1.1271
 9137TIP3   OH248901   4.196   0.523   0.372 -0.3855 -0.0560  0.6535
 9137TIP3    H148902   4.139   0.520   0.295  0.9558 -0.9192 -0.3409
 9137TIP3    H248903   4.158   0.459   0.432 -0.7695 -0.2349  0.2270
 9138TIP3   OH248904   0.655   3.672   4.848 -0.1095 -0.3387  0.4838
 9138TIP3    H148905   0.681   3.584   4.820  0.3793 -0.1612  0.3744
 9138TIP3    H248906   0.723   3.698   4.910 -0.6363 -0.3171  1.0640
 9139TIP3   OH248907   6.288   4.064   2.990 -0.4993  0.2370 -0.3594
 9139TIP3    H148908   6.306   4.148   2.949  1.0351 -0.8942 -2.1234
 9139TIP3    H248909   6.284   4.002   2.918 -0.1131 -1.4654  1.0171
 9140TIP3   OH248910   0.268   5.610  13.134  0.1979 -0.6469  0.0426
 9140TIP3    H148911   0.190   5.646  13.175  0.4292 -2.7725  2.6148
 9140TIP3    H248912   0.236   5.567  13.055 -1.6425 -3.0379  1.9569
 9141TIP3   OH248913   6.667   2.218   2.566  0.1847  0.5352  0.4494
 9141TIP3    H148914   6.648   2.228   2.659 -0.6762 -1.8966  0.6039
 9141TIP3    H248915   6.582   2.197   2.526  0.9880 -1.4579 -0.3532
 9142TIP3   OH248916   4.938   1.081   3.018 -0.2280  0.5840  0.2068
 9142TIP3    H148917   4.871   1.067   2.951 -0.1197  1.3264 -0.0624
 9142TIP3    H248918   4.894   1.132   3.086  0.4629  2.4850 -0.7003
 9143TIP3   OH248919   0.362   2.370  15.049 -0.0095  0.0412 -0.4756
 9143TIP3    H148920   0.313   2.452  15.053  1.0925  0.6808  0.5061
 9143TIP3    H248921   0.304   2.305  15.089 -0.7218  0.4289 -0.8769
 9144TIP3   OH248922   1.731   2.632  14.079 -0.2882 -0.1713  0.1959
 9144TIP3    H148923   1.786   2.631  14.001 -0.4884  1.5349 -0.0110
 9144TIP3    H248924   1.666   2.565  14.064  0.8805 -1.2610 -0.1897
 9145TIP3   OH248925   4.697   3.600  15.757  0.3755 -0.0690 -1.3479
 9145TIP3    H148926   4.624   3.636  15.706  0.5599  0.7497 -1.0489
 9145TIP3    H248927   4.721   3.670  15.817 -1.0723 -1.6558  1.2291
 9146TIP3   OH248928   6.747   3.902  13.154  0.7192  0.3845  0.0474
 9146TIP3    H148929   6.828   3.868  13.115  0.6424  0.1247  0.1164
 9146TIP3    H248930   6.701   3.942  13.080  0.7020  0.1355 -0.0791
 9147TIP3   OH248931   2.455   4.793  13.949 -0.0510 -0.2181 -0.1226
 9147TIP3    H148932   2.436   4.703  13.922 -2.6446  0.4723 -0.8650
 9147TIP3    H248933   2.505   4.784  14.030  1.7371 -2.3059 -1.3524
 9148TIP3   OH248934   0.654   4.388   0.678 -0.0357 -0.5069  0.5449
 9148TIP3    H148935   0.702   4.461   0.640 -0.8267  0.0346  0.5533
 9148TIP3    H248936   0.597   4.358   0.608 -0.2333 -0.6453  0.7654
 9149TIP3   OH248937   4.021   2.633  11.561  0.2239  0.3308  0.3554
 9149TIP3    H148938   3.990   2.624  11.651 -0.5738  2.3813  0.3614
 9149TIP3    H248939   4.113   2.608  11.563 -0.4690 -2.4210  1.1144
 9150TIP3   OH248940   2.708   1.857   3.656  0.0594  0.4509 -0.3809
 9150TIP3    H148941   2.697   1.899   3.571  0.4457  0.6317 -0.3450
 9150TIP3    H248942   2.766   1.916   3.705 -0.2466  0.4059  0.0476
 9151TIP3   OH248943   5.934   2.082  16.586  0.0075 -0.4997  0.3850
 9151TIP3    H148944   5.895   2.023  16.521  2.0316  0.4676 -1.8561
 9151TIP3    H248945   6.028   2.077  16.570  0.4588  1.0699  2.1700
 9152TIP3   OH248946   0.239   0.802   4.048  0.0140  0.1124 -0.2104
 9152TIP3    H148947   0.181   0.760   3.985  1.4689 -1.1132 -0.7759
 9152TIP3    H248948   0.190   0.800   4.131 -1.7106  1.2951 -1.1228
 9153TIP3   OH248949   2.847   6.233  16.714 -0.6907 -0.0154  0.3332
 9153TIP3    H148950   2.824   6.192  16.632 -1.0493 -0.6011  0.7240
 9153TIP3    H248951   2.809   6.321  16.709  1.5587  0.9634 -1.2381
 9154TIP3   OH248952   1.052   1.696   1.468 -0.1868  0.2176 -0.2696
 9154TIP3    H148953   1.082   1.645   1.393 -0.0413 -1.0071  0.5888
 9154TIP3    H248954   1.098   1.657   1.543 -1.8542  0.0553  0.7224
 9155TIP3   OH248955   0.272   6.108  15.490 -0.2568 -0.1038  0.7731
 9155TIP3    H148956   0.212   6.102  15.564 -0.7212  0.2561  0.4296
 9155TIP3    H248957   0.260   6.197  15.457  1.7377  0.6016  1.7716
 9156TIP3   OH248958   5.240   6.131   5.833 -0.1457  0.3478  0.1059
 9156TIP3    H148959   5.201   6.122   5.920 -0.5287 -1.6638 -0.2311
 9156TIP3    H248960   5.334   6.124   5.848 -0.2454 -0.8416  0.3152
 9157TIP3   OH248961   0.687   2.067  14.360 -0.3658 -0.3508 -0.0901
 9157TIP3    H148962   0.613   2.110  14.316 -0.0415  0.1228 -0.1749
 9157TIP3    H248963   0.646   2.013  14.427 -0.8718 -1.0734 -0.9509
 9158TIP3   OH248964   2.206   1.698   0.048  0.0952  0.1595  0.6120
 9158TIP3    H148965   2.185   1.615   0.005  0.7369  0.9258 -1.3298
 9158TIP3    H248966   2.122   1.743   0.057  0.1880  1.5650 -3.4877
 9159TIP3   OH248967   2.605   3.385   6.814 -0.2536  0.2563  0.8043
 9159TIP3    H148968   2.515   3.353   6.826 -1.2257  2.8822  1.2253
 9159TIP3    H248969   2.629   3.355   6.727 -1.6869 -0.2035  0.5300
 9160TIP3   OH248970   3.774   4.430  11.612  0.1214 -0.2649 -0.2118
 9160TIP3    H148971   3.818   4.471  11.537 -1.6020  2.1687  0.0017
 9160TIP3    H248972   3.681   4.441  11.594 -0.3979  2.1457  3.0718
 9161TIP3   OH248973   1.276   3.514  16.963  0.0790  0.3971 -0.1582
 9161TIP3    H148974   1.190   3.554  16.972  0.8724  1.9180  1.2130
 9161TIP3    H248975   1.334   3.587  16.939  0.6324 -1.0037 -3.6589
 9162TIP3   OH248976   3.964   2.616  14.406 -0.4908 -0.5024  0.2076
 9162TIP3    H148977   3.962   2.568  14.323 -0.2508  0.6194 -0.4820
 9162TIP3    H248978   3.889   2.676  14.401  1.2288  1.7298 -0.6085
 9163TIP3   OH248979   0.816   3.543   1.766  0.5402 -0.3000 -0.1930
 9163TIP3    H148980   0.754   3.561   1.837  0.1788 -1.9879 -0.0401
 9163TIP3    H248981   0.763   3.500   1.698  1.2794 -0.5414 -0.6302
 9164TIP3   OH248982   4.229   0.666  11.660  0.1622 -0.6488  0.1091
 9164TIP3    H148983   4.209   0.573  11.666  2.3330 -1.1570  0.1885
 9164TIP3    H248984   4.303   0.672  11.599 -0.0761  1.0488 -0.0750
 9165TIP3   OH248985   3.488   4.926  12.694  0.1619 -0.5048 -0.0542
 9165TIP3    H148986   3.457   4.852  12.641 -1.6494 -0.2971  0.6246
 9165TIP3    H248987   3.481   4.894  12.784 -0.4867  0.4194  0.2330
 9166TIP3   OH248988   2.291   2.095   4.980 -0.2565  0.0485  0.7602
 9166TIP3    H148989   2.349   2.164   5.009 -1.0601  1.4436 -0.7914
 9166TIP3    H248990   2.203   2.134   4.983 -0.7607 -0.9774  0.0973
 9167TIP3   OH248991   3.457   2.288   3.638  0.7878 -0.6744  0.0695
 9167TIP3    H148992   3.478   2.197   3.659  0.1361 -0.4348  1.9079
 9167TIP3    H248993   3.362   2.289   3.627  0.8552 -0.3074 -0.5391
 9168TIP3   OH248994   0.633   5.069   1.437 -0.1784  0.6215  0.2498
 9168TIP3    H148995   0.602   5.009   1.369  0.4724 -0.2911  0.7314
 9168TIP3    H248996   0.652   5.012   1.511  0.4618  1.4340  0.7210
 9169TIP3   OH248997   5.369   5.640   1.986  0.1709  0.6186  0.1156
 9169TIP3    H148998   5.405   5.559   2.022  2.3233  1.6729  0.4933
 9169TIP3    H248999   5.292   5.658   2.040  1.8037  0.7638  2.5727
 9170TIP3   OH249000   1.599   4.466  15.470 -0.1321 -0.8624  0.5163
 9170TIP3    H149001   1.521   4.443  15.520 -0.3757  0.4732  0.7943
 9170TIP3    H249002   1.565   4.511  15.392  0.3621  0.1165  0.8511
 9171TIP3   OH249003   2.564   5.441   0.413 -0.6781 -0.0415 -0.2573
 9171TIP3    H149004   2.538   5.523   0.370  1.7809 -0.0201 -1.9107
 9171TIP3    H249005   2.486   5.386   0.406 -1.6493  1.3532 -1.2247
 9172TIP3   OH249006   0.264   6.035  13.863 -0.0676  0.2143 -0.8086
 9172TIP3    H149007   0.185   5.981  13.867  0.4186 -0.4529  0.3918
 9172TIP3    H249008   0.299   6.033  13.952  1.1013  0.8018 -1.2296
 9173TIP3   OH249009   3.012   4.477  14.633  0.0336 -0.3034 -0.2053
 9173TIP3    H149010   3.018   4.484  14.728  0.9814  0.0173 -0.2774
 9173TIP3    H249011   2.928   4.433  14.617  0.5832 -1.7877  0.8275
 9174TIP3   OH249012   2.495   0.733  16.339  0.1753  0.4917 -0.0970
 9174TIP3    H149013   2.588   0.727  16.360  0.2761 -0.8044 -0.7954
 9174TIP3    H249014   2.454   0.764  16.420  1.1466  0.5293  0.3947
 9175TIP3   OH249015   4.246   1.661   1.459  0.2134 -0.0695 -0.8965
 9175TIP3    H149016   4.159   1.698   1.473  0.5166 -0.3069  2.3458
 9175TIP3    H249017   4.300   1.699   1.528  1.9542 -2.1522 -1.0019
 9176TIP3   OH249018   2.358   5.848  15.074  0.1493 -0.4452 -0.2370
 9176TIP3    H149019   2.410   5.769  15.086  0.8307 -0.0549 -0.5554
 9176TIP3    H249020   2.284   5.838  15.134  0.5231 -1.0652  0.1261
 9177TIP3   OH249021   0.839   4.152  16.808  0.1576 -0.4204  0.5680
 9177TIP3    H149022   0.847   4.080  16.870  0.7308 -0.7404  0.1349
 9177TIP3    H249023   0.871   4.228  16.855  0.0672 -0.5515  0.8456
 9178TIP3   OH249024   0.057   1.465   5.385 -0.1691 -0.5920 -0.1763
 9178TIP3    H149025   0.041   1.407   5.459 -2.6577 -1.4933 -1.2892
 9178TIP3    H249026   0.075   1.406   5.311  1.8977  0.2692 -0.4234
 9179TIP3   OH249027   3.432   2.411  13.899  0.2279  0.1361 -0.2489
 9179TIP3    H149028   3.343   2.437  13.922  0.0768 -0.5335 -0.0493
 9179TIP3    H249029   3.429   2.398  13.804  0.2451  0.6077 -0.3156
 9180TIP3   OH249030   4.105   5.542   4.180  0.0577 -0.0793 -0.6710
 9180TIP3    H149031   4.141   5.627   4.205 -1.4786  0.2522  0.5426
 9180TIP3    H249032   4.124   5.534   4.087 -0.2441  1.8346 -0.9210
 9181TIP3   OH249033   1.692   0.061   4.836 -0.0493 -0.0629 -0.0743
 9181TIP3    H149034   1.788   0.062   4.835 -0.0292 -0.4938 -2.0130
 9181TIP3    H249035   1.669   0.007   4.911  1.2247 -0.0870  0.3238
 9182TIP3   OH249036   2.503   5.790  10.753 -0.2328 -0.4952  0.0379
 9182TIP3    H149037   2.491   5.879  10.718 -0.2241 -0.4813  0.0703
 9182TIP3    H249038   2.595   5.772  10.739 -0.5794 -1.1932 -1.6091
 9183TIP3   OH249039   1.997   2.199   1.786 -0.0833  0.5303 -0.2321
 9183TIP3    H149040   1.950   2.282   1.790  0.0037  0.5461  0.5713
 9183TIP3    H249041   2.064   2.206   1.854  0.3656  0.0718 -0.6214
 9184TIP3   OH249042   1.428   4.939  11.510  0.6032 -0.2632 -0.2912
 9184TIP3    H149043   1.409   5.032  11.517  2.4482  0.1288  0.2194
 9184TIP3    H249044   1.414   4.904  11.598  0.8243 -0.2728 -0.2594
 9185TIP3   OH249045   0.823   6.626   3.993 -0.5946  0.0425  0.0231
 9185TIP3    H149046   0.729   6.639   3.981 -0.5516  0.0720 -0.2851
 9185TIP3    H249047   0.836   6.633   4.088 -1.0009 -0.6315  0.1358
 9186TIP3   OH249048   3.967   5.785   0.777  0.4347 -0.0263 -0.1905
 9186TIP3    H149049   3.982   5.864   0.829 -0.7435 -0.9519  1.6509
 9186TIP3    H249050   4.032   5.723   0.810  2.9701  0.7404 -3.2299
 9187TIP3   OH249051   1.976   3.611   5.625  0.1019  0.4500  0.8102
 9187TIP3    H149052   1.906   3.585   5.565  0.6897 -0.1014  0.3434
 9187TIP3    H249053   1.942   3.592   5.712  0.3512 -1.5790  0.5078
 9188TIP3   OH249054   0.008   3.307  12.062 -0.2433 -0.0322  0.0953
 9188TIP3    H149055  -0.024   3.228  12.106 -1.3724  0.7275  0.6773
 9188TIP3    H249056   0.103   3.295  12.057 -0.3859 -1.3384  0.3370
 9189TIP3   OH249057   0.300   1.253   2.944 -0.2175 -0.0553 -0.0658
 9189TIP3    H149058   0.389   1.270   2.915 -0.7861  0.3314 -1.7013
 9189TIP3    H249059   0.299   1.159   2.965  0.1577 -0.4695 -1.7520
 9190TIP3   OH249060   2.035   1.043   2.577 -0.1703  0.1628  0.5096
 9190TIP3    H149061   2.115   1.031   2.526  1.1227 -1.4651  2.7262
 9190TIP3    H249062   1.967   1.060   2.512  1.6627 -0.1093 -1.5829
 9191TIP3   OH249063   1.504   4.524   4.605  0.3215  0.1363 -0.5080
 9191TIP3    H149064   1.573   4.578   4.644 -0.5397  0.2083  1.0099
 9191TIP3    H249065   1.521   4.436   4.640 -0.6830  0.2745  0.3506
 9192TIP3   OH249066   2.095   0.505   3.960 -0.2505  0.1603  0.0894
 9192TIP3    H149067   2.161   0.543   3.902  0.6255  1.4682  1.8260
 9192TIP3    H249068   2.016   0.557   3.944  0.3881  1.4846  1.0270
 9193TIP3   OH249069   5.319   2.444   2.371  0.4342  0.4211  0.3518
 9193TIP3    H149070   5.350   2.507   2.306 -0.6516 -0.0341 -0.6656
 9193TIP3    H249071   5.398   2.407   2.410  1.1155  0.7949 -0.6421
 9194TIP3   OH249072   4.962   3.888   6.409  0.0757  0.0184  0.2631
 9194TIP3    H149073   4.976   3.923   6.321 -1.5010 -0.5938 -0.2713
 9194TIP3    H249074   5.033   3.824   6.420 -0.0622 -0.3607 -0.8391
 9195TIP3   OH249075   4.815   2.386   3.745  0.3864  0.1261  0.2633
 9195TIP3    H149076   4.863   2.389   3.663 -0.1494  2.2950 -0.0149
 9195TIP3    H249077   4.730   2.426   3.726  0.0715  0.2562  1.7522
 9196TIP3   OH249078   5.805   4.400   3.044 -0.0861  0.2165 -0.4101
 9196TIP3    H149079   5.874   4.349   3.087 -1.8803 -0.2065  2.2170
 9196TIP3    H249080   5.852   4.460   2.986  2.3539 -1.2846 -0.1212
 9197TIP3   OH249081   1.840   6.487   3.713  0.7392  0.2084  0.4134
 9197TIP3    H149082   1.864   6.543   3.787  1.5955 -1.1213  1.1853
 9197TIP3    H249083   1.878   6.401   3.734 -0.9992 -0.8424 -0.4387
 9198TIP3   OH249084   3.754   3.675  10.841  0.7084  0.8473  0.2119
 9198TIP3    H149085   3.743   3.676  10.746  2.2322 -1.4881 -0.0560
 9198TIP3    H249086   3.754   3.768  10.866  1.1965  1.5537 -2.1757
 9199TIP3   OH249087   4.230   1.282  10.957 -0.1501  0.3504  0.0690
 9199TIP3    H149088   4.266   1.359  10.998  0.2154 -0.1206  0.6393
 9199TIP3    H249089   4.282   1.209  10.990 -0.9931 -0.2329  0.1656
 9200TIP3   OH249090   0.184   0.863   0.091 -0.1571 -0.4089 -0.4374
 9200TIP3    H149091   0.114   0.876   0.155  0.8527  0.7363  0.4844
 9200TIP3    H249092   0.165   0.925   0.021 -0.5886 -0.7955 -0.6682
 9201TIP3   OH249093   6.665   4.259   1.965 -0.4696 -0.0288  0.6011
 9201TIP3    H149094   6.651   4.176   1.919 -0.5936 -0.2936  1.1109
 9201TIP3    H249095   6.634   4.326   1.903  1.8876 -0.1360 -0.8406
 9202TIP3   OH249096   2.318   2.665   4.474  0.7077 -0.5006 -0.3768
 9202TIP3    H149097   2.257   2.697   4.540 -1.4607 -0.2873 -2.3394
 9202TIP3    H249098   2.402   2.705   4.497  0.2196 -0.9539  2.5411
 9203TIP3   OH249099   2.222   6.450  12.515 -0.1279  0.4574  0.0289
 9203TIP3    H149100   2.247   6.372  12.465 -1.4652 -0.2203  0.3583
 9203TIP3    H249101   2.254   6.433  12.604 -1.1588 -0.1343  0.3060
 9204TIP3   OH249102   0.739   3.587   5.273  0.2423 -0.2417 -0.1067
 9204TIP3    H149103   0.788   3.506   5.290 -0.4764 -0.4302  1.1080
 9204TIP3    H249104   0.720   3.623   5.359  0.6389  1.2998 -0.6321
 9205TIP3   OH249105   4.798   1.777  14.841  0.0347  0.9589 -0.7469
 9205TIP3    H149106   4.785   1.869  14.864  1.1349  0.7393  0.9888
 9205TIP3    H249107   4.773   1.729  14.919  3.1089  0.0765 -0.1546
 9206TIP3   OH249108   3.051   6.760  11.586 -0.0324  0.6101 -0.5442
 9206TIP3    H149109   3.053   6.677  11.538  1.1531  1.0345 -1.2657
 9206TIP3    H249110   2.959   6.786  11.585 -0.5790 -1.0908  0.4263
 9207TIP3   OH249111   0.819   6.800  11.404  0.0510 -0.5287  0.0379
 9207TIP3    H149112   0.857   6.735  11.463  0.1180  0.2278  0.8608
 9207TIP3    H249113   0.754   6.752  11.353  1.6470 -1.7273 -0.9811
 9208TIP3   OH249114   0.621   1.721   4.120 -0.5059 -0.4516 -0.2776
 9208TIP3    H149115   0.627   1.796   4.062 -1.4897 -0.6276 -0.6182
 9208TIP3    H249116   0.707   1.680   4.115 -0.3738 -0.0893 -1.1010
 9209TIP3   OH249117   4.383   0.970  11.787 -0.2806 -0.4000  0.7722
 9209TIP3    H149118   4.458   0.973  11.728  0.4994 -2.0554  1.6138
 9209TIP3    H249119   4.318   1.026  11.745  0.2683 -1.4173 -1.6080
 9210TIP3   OH249120   1.421   1.687  14.907 -0.2643 -0.3605  0.1606
 9210TIP3    H149121   1.365   1.612  14.887 -0.0583 -0.5365  0.2354
 9210TIP3    H249122   1.363   1.763  14.901 -0.3663 -0.4814 -0.3936
 9211TIP3   OH249123   2.598   2.715  11.159  0.7528 -0.2181 -0.1958
 9211TIP3    H149124   2.640   2.689  11.241  3.6544  2.8005 -0.5041
 9211TIP3    H249125   2.612   2.642  11.100  0.4952 -1.5734  1.3460
 9212TIP3   OH249126   3.795   4.673  14.686  0.2389 -0.6361 -0.2536
 9212TIP3    H149127   3.887   4.698  14.675  0.0372  0.1900 -0.0733
 9212TIP3    H249128   3.771   4.634  14.602  0.1395  1.1417 -1.0999
 9213TIP3   OH249129   5.004   4.600  11.754 -0.4503  0.3078  0.1095
 9213TIP3    H149130   4.977   4.656  11.827  1.5192  0.0210  1.0991
 9213TIP3    H249131   4.996   4.511  11.788 -2.1113 -0.0160 -0.9691
 9214TIP3   OH249132   4.499   1.344  16.340 -0.2347  0.5980  0.0451
 9214TIP3    H149133   4.518   1.313  16.428  0.9074 -0.2003 -0.4551
 9214TIP3    H249134   4.546   1.428  16.334 -1.8323  1.5914  0.7851
 9215TIP3   OH249135   4.829   1.648  10.714 -0.4541 -0.3760  0.1801
 9215TIP3    H149136   4.918   1.633  10.683 -0.8466  2.1078 -2.4938
 9215TIP3    H249137   4.785   1.563  10.703  1.0983 -1.1738 -0.0848
 9216TIP3   OH249138   4.975   3.477  12.197 -0.0211 -0.0074  0.2595
 9216TIP3    H149139   5.037   3.461  12.126 -0.2179 -0.7669  0.2522
 9216TIP3    H249140   4.902   3.418  12.180 -0.5321  0.5295  0.5382
 9217TIP3   OH249141   3.567   2.068  16.770  0.0280  0.7796 -0.3066
 9217TIP3    H149142   3.500   2.015  16.813  1.1336 -0.3464  0.1183
 9217TIP3    H249143   3.523   2.149  16.747 -1.6182 -0.1276 -0.5416
 9218TIP3   OH249144   5.145   3.194  16.033 -0.2227  0.0509  0.0268
 9218TIP3    H149145   5.099   3.276  16.054 -0.3972 -0.3482  1.2624
 9218TIP3    H249146   5.096   3.127  16.079  1.0831 -0.5026  0.6649
 9219TIP3   OH249147   3.702   1.848  16.433  0.0380  0.5176 -0.2808
 9219TIP3    H149148   3.728   1.801  16.353  0.1194  1.1537 -0.6378
 9219TIP3    H249149   3.718   1.786  16.504  0.4049  0.1060 -0.7162
 9220TIP3   OH249150   1.979   3.367   6.044 -0.0801  0.4339  0.4581
 9220TIP3    H149151   1.968   3.444   5.987 -2.0936 -0.2325 -0.1446
 9220TIP3    H249152   2.064   3.380   6.085  0.7300  1.7607 -1.4831
 9221TIP3   OH249153   3.434   1.569   2.317 -0.3427  0.3663 -0.0833
 9221TIP3    H149154   3.446   1.607   2.404  1.7131 -0.0045 -0.1497
 9221TIP3    H249155   3.399   1.641   2.264 -1.0720  0.7539  0.8947
 9222TIP3   OH249156   4.882   0.951   2.256  0.0052 -0.4785  0.0623
 9222TIP3    H149157   4.870   1.024   2.195  3.3485  0.7703  0.6664
 9222TIP3    H249158   4.879   0.992   2.343  0.9046 -1.2125  0.4581
 9223TIP3   OH249159   2.799   5.285  10.599  0.2855 -0.0127  0.5326
 9223TIP3    H149160   2.729   5.221  10.591  0.1092  0.1897  0.4637
 9223TIP3    H249161   2.876   5.240  10.564  0.1553 -0.1709  0.4468
 9224TIP3   OH249162   5.904   2.090   5.955 -0.4998  0.1428  0.0310
 9224TIP3    H149163   6.000   2.095   5.949 -0.3181 -0.4569  1.7553
 9224TIP3    H249164   5.879   2.169   6.003 -0.7389 -0.2043  0.4922
 9225TIP3   OH249165   4.398   1.369   5.801 -0.0613  0.8428  0.9335
 9225TIP3    H149166   4.483   1.390   5.841  0.8731  1.8320 -1.4140
 9225TIP3    H249167   4.347   1.449   5.809  0.7947  1.6907 -1.3426
 9226TIP3   OH249168   1.274   0.692  13.166 -0.4629  0.1236 -0.1000
 9226TIP3    H149169   1.277   0.756  13.095  0.7141 -2.4051 -2.5275
 9226TIP3    H249170   1.364   0.688  13.198 -1.0397  1.4475  1.8498
 9227TIP3   OH249171   3.004   6.002   0.759 -0.0825 -0.0819 -0.4093
 9227TIP3    H149172   3.075   5.956   0.803 -1.7482 -1.7446  0.6787
 9227TIP3    H249173   2.989   5.952   0.679 -0.4088 -0.1031 -0.3375
 9228TIP3   OH249174   5.023   5.604   5.276  0.1765 -0.3707  0.0464
 9228TIP3    H149175   5.089   5.557   5.326 -0.0964  0.3606  1.1251
 9228TIP3    H249176   5.040   5.579   5.185  2.2785  0.2065  0.2157
 9229TIP3   OH249177   1.870   4.775   5.582  0.3162  0.3691  0.1854
 9229TIP3    H149178   1.797   4.813   5.632 -1.2947 -1.4545 -0.6323
 9229TIP3    H249179   1.849   4.682   5.577  0.9523  0.2933 -2.9425
 9230TIP3   OH249180   2.540   5.248   1.819 -0.1243  0.0269 -0.5139
 9230TIP3    H149181   2.469   5.277   1.875 -0.1441 -1.6556  0.4035
 9230TIP3    H249182   2.522   5.156   1.803  2.1114 -0.6248  0.2464
 9231TIP3   OH249183   0.164   0.788  14.973  0.0378 -0.1954  0.1832
 9231TIP3    H149184   0.088   0.775  15.029  0.0597 -1.0480  0.0406
 9231TIP3    H249185   0.238   0.758  15.025  0.0676 -0.9194 -0.2467
 9232TIP3   OH249186   2.691   3.779  14.464 -0.0491 -0.2404  0.4273
 9232TIP3    H149187   2.704   3.817  14.551 -0.8971 -0.7641  0.7893
 9232TIP3    H249188   2.705   3.852  14.404  1.1187  0.0029  0.9547
 9233TIP3   OH249189   1.894   3.423   5.122  0.4043  0.2847 -0.1908
 9233TIP3    H149190   1.890   3.333   5.154  2.6800  0.0595 -0.3543
 9233TIP3    H249191   1.984   3.452   5.141 -0.8501  3.3586  1.9487
 9234TIP3   OH249192   1.438   5.350   6.088 -0.4701 -0.1234  0.0083
 9234TIP3    H149193   1.425   5.346   5.993 -1.0085  0.5332  0.0462
 9234TIP3    H249194   1.371   5.411   6.118  0.1893  0.2542  0.7244
 9235TIP3   OH249195   5.042   0.883  13.928  0.3111  0.1787 -0.8592
 9235TIP3    H149196   5.088   0.894  14.012 -0.4800 -0.4709 -0.3342
 9235TIP3    H249197   5.049   0.790  13.908  0.5623  0.3417 -1.5678
 9236TIP3   OH249198   1.059   3.418  16.660  0.1920  0.3531 -0.2108
 9236TIP3    H149199   1.036   3.454  16.575  1.2640  0.9279 -0.2721
 9236TIP3    H249200   0.987   3.444  16.718 -0.8879 -0.6180 -1.0592
 9237TIP3   OH249201   3.824   3.915  10.986  0.0754  0.2338 -0.3910
 9237TIP3    H149202   3.766   3.990  10.990 -1.4514 -0.8612 -0.9572
 9237TIP3    H249203   3.900   3.946  10.937  0.7312  2.1308  1.6663
 9238TIP3   OH249204   4.743   4.423   1.338 -0.0541 -0.2512  0.4437
 9238TIP3    H149205   4.770   4.376   1.417 -0.1044 -1.6777 -0.3508
 9238TIP3    H249206   4.816   4.412   1.277 -0.0041  0.8580  0.2821
 9239TIP3   OH249207   1.552   2.116   5.920  0.0983  0.7990  0.2383
 9239TIP3    H149208   1.459   2.115   5.896 -0.1262  1.8005  1.0300
 9239TIP3    H249209   1.568   2.029   5.957 -0.1266  0.0609 -1.2752
 9240TIP3   OH249210   2.788   5.425   5.704 -0.3501  0.4908 -0.1108
 9240TIP3    H149211   2.758   5.436   5.795 -1.5574 -1.4810 -0.2143
 9240TIP3    H249212   2.867   5.479   5.699 -0.3778  0.8484  2.0496
 9241TIP3   OH249213   2.302   5.968   4.948  0.5789  0.2254 -0.3188
 9241TIP3    H149214   2.309   5.878   4.980  1.0100  0.0090 -0.9974
 9241TIP3    H249215   2.218   5.970   4.902  0.4158  0.2646 -0.0219
 9242TIP3   OH249216   2.324   1.078  10.842  0.0137 -0.2992 -0.5597
 9242TIP3    H149217   2.319   1.064  10.748  0.3265  1.4223 -0.8723
 9242TIP3    H249218   2.416   1.102  10.858 -0.3038  0.6433 -0.0372
 9243TIP3   OH249219   1.472   0.490   0.220  0.2746 -0.7484 -0.2505
 9243TIP3    H149220   1.391   0.450   0.185  1.1416 -1.1034 -1.9774
 9243TIP3    H249221   1.479   0.573   0.174  0.2302 -0.1097  0.8723
 9244TIP3   OH249222   5.774   1.050   4.493  0.3181  0.5114  0.2610
 9244TIP3    H149223   5.694   1.007   4.523  1.2235 -0.8364  0.8194
 9244TIP3    H249224   5.777   1.032   4.399  1.4041 -1.9287  0.7152
 9245TIP3   OH249225   6.018   1.801   4.935 -0.6552  0.4174 -0.3019
 9245TIP3    H149226   5.949   1.805   4.869 -1.6815 -0.8550  0.6317
 9245TIP3    H249227   5.996   1.723   4.987  0.7327  0.7650  0.8453
 9246TIP3   OH249228   0.611   5.807  12.472 -0.0613  0.0315  0.5470
 9246TIP3    H149229   0.522   5.843  12.470 -0.2032 -0.2699 -1.5029
 9246TIP3    H249230   0.657   5.857  12.404  0.8975 -0.8404  0.5460
 9247TIP3   OH249231   4.259   1.706   2.122 -0.1661  0.4141  0.0362
 9247TIP3    H149232   4.337   1.655   2.145  0.0777  0.7079 -0.1236
 9247TIP3    H249233   4.186   1.656   2.158  0.2277  1.1052  1.8862
 9248TIP3   OH249234   1.775   4.000   4.505 -0.1790 -0.0100 -0.1836
 9248TIP3    H149235   1.770   3.984   4.599  2.6399 -3.3377 -0.3903
 9248TIP3    H249236   1.841   3.937   4.474 -0.8612  1.0684 -4.3653
 9249TIP3   OH249237   3.438   0.266   0.476  0.2586 -0.3120 -0.2850
 9249TIP3    H149238   3.361   0.253   0.533 -0.5641  1.7931 -0.8336
 9249TIP3    H249239   3.419   0.214   0.398  0.0143 -0.8421  0.1187
 9250TIP3   OH249240   2.980   2.933  14.172  0.4924 -0.5932  0.6878
 9250TIP3    H149241   2.936   2.966  14.093  1.8209  0.5722  0.3990
 9250TIP3    H249242   2.936   2.977  14.244 -0.2052 -1.0610  0.5633
 9251TIP3   OH249243   5.056   3.077  14.910 -0.4505  0.5130  0.2543
 9251TIP3    H149244   5.061   3.129  14.829 -1.2238 -0.1621 -0.2468
 9251TIP3    H249245   5.108   2.999  14.892 -1.2487 -0.0057  0.0982
 9252TIP3   OH249246   5.848   1.889   3.339  0.0466 -0.2560 -0.1809
 9252TIP3    H149247   5.885   1.804   3.363  3.9137  1.4720  0.7634
 9252TIP3    H249248   5.823   1.879   3.247  3.0418 -1.7072 -0.9670
 9253TIP3   OH249249   0.971   3.246  11.860  0.1101  0.1232  0.1570
 9253TIP3    H149250   0.963   3.200  11.776 -1.1502  0.8368 -0.1426
 9253TIP3    H249251   0.886   3.231  11.903  1.2431 -1.4803  1.9909
 9254TIP3   OH249252   2.145   0.997   2.154 -0.4965  0.2305 -0.8995
 9254TIP3    H149253   2.103   0.912   2.140 -0.6504  0.5346 -2.4583
 9254TIP3    H249254   2.141   1.040   2.069  1.6109  0.8823 -0.7414
 9255TIP3   OH249255   2.112   1.741  11.742 -0.2305 -0.3960 -0.2374
 9255TIP3    H149256   2.049   1.779  11.679 -2.0766 -1.3334  0.9491
 9255TIP3    H249257   2.084   1.775  11.827  1.5015 -0.1032  0.2566
 9256TIP3   OH249258   4.662   6.490  12.538 -0.0259  0.3805  0.3420
 9256TIP3    H149259   4.651   6.404  12.498  1.1716 -0.2167  1.2326
 9256TIP3    H249260   4.597   6.545  12.495 -1.8691 -1.3197  0.8043
 9257TIP3   OH249261   2.384   2.102   0.061  0.5550 -0.5456  0.7724
 9257TIP3    H149262   2.466   2.107   0.110  2.0102  1.6266 -1.6534
 9257TIP3    H249263   2.411   2.090  -0.030 -1.7980  0.6068 -0.1546
 9258TIP3   OH249264   0.835   3.336   3.186  0.7254 -0.1435  0.2759
 9258TIP3    H149265   0.840   3.425   3.222  1.3536  0.2218 -0.6785
 9258TIP3    H249266   0.745   3.308   3.204  0.1135  1.1942 -0.5571
 9259TIP3   OH249267   3.868   2.325  15.912 -0.0319 -0.1207  0.1697
 9259TIP3    H149268   3.960   2.316  15.933 -0.3202 -0.5166  1.3591
 9259TIP3    H249269   3.860   2.294  15.822  0.9405 -0.3625  0.1578
 9260TIP3   OH249270   5.790   3.909   5.590 -0.2692 -0.0028 -0.5506
 9260TIP3    H149271   5.697   3.929   5.593  0.2066  2.6346 -1.2154
 9260TIP3    H249272   5.817   3.905   5.682 -0.7497  0.8742 -0.3617
 9261TIP3   OH249273   5.519   3.706  15.690 -0.0485  0.3371 -0.2328
 9261TIP3    H149274   5.469   3.629  15.663 -0.6942  0.7819 -0.3407
 9261TIP3    H249275   5.514   3.765  15.614  1.1556  0.1414 -0.4736
 9262TIP3   OH249276   1.633   2.106   4.006  0.0540  0.5900  0.2800
 9262TIP3    H149277   1.714   2.117   4.056  0.8684  0.7737 -1.0049
 9262TIP3    H249278   1.632   2.182   3.946  0.1503 -0.5895 -1.2921
 9263TIP3   OH249279   5.628   5.600  13.574 -0.3022  0.2060 -0.2708
 9263TIP3    H149280   5.714   5.564  13.595  0.2691  1.9324  0.5690
 9263TIP3    H249281   5.570   5.566  13.642  0.0365  0.2071  0.0192
 9264TIP3   OH249282   5.073   6.777   0.100  0.1609 -0.2743 -0.0104
 9264TIP3    H149283   5.117   6.748   0.180 -0.5670  2.4344  1.4838
 9264TIP3    H249284   5.131   6.842   0.061  0.3097 -1.2480 -1.5359
 9265TIP3   OH249285   0.714   6.127  14.088  0.4180 -0.7291 -0.5829
 9265TIP3    H149286   0.731   6.160  14.176 -0.0047  0.2422 -0.8524
 9265TIP3    H249287   0.748   6.038  14.089 -1.7009 -1.6205  1.2898
 9266TIP3   OH249288   4.901   6.214  11.160 -0.3557 -1.2685 -0.5684
 9266TIP3    H149289   4.923   6.245  11.072  0.1212  0.6149  0.1785
 9266TIP3    H249290   4.822   6.261  11.183  1.0104  0.3805  1.0425
 9267TIP3   OH249291   5.737   4.456   2.773  0.7142  0.7647 -0.6436
 9267TIP3    H149292   5.764   4.366   2.791 -1.6423  0.6211  3.2257
 9267TIP3    H249293   5.817   4.508   2.785  1.0402 -0.3113  3.3321
 9268TIP3   OH249294   1.850   2.018  14.438 -0.3694  0.1901 -0.1719
 9268TIP3    H149295   1.811   2.104  14.424 -1.0933 -0.0642  0.2161
 9268TIP3    H249296   1.775   1.960  14.453  0.0944 -0.5568 -0.6735
 9269TIP3   OH249297   3.056   2.656   0.845 -0.0547  0.0121  0.3965
 9269TIP3    H149298   3.029   2.745   0.868  1.8501  0.9573 -0.7134
 9269TIP3    H249299   3.002   2.634   0.769  0.8781  1.1106 -0.6376
 9270TIP3   OH249300   3.159   5.694  12.518  0.1865 -0.5673 -0.0709
 9270TIP3    H149301   3.076   5.736  12.540  0.4758  0.9705 -1.7091
 9270TIP3    H249302   3.172   5.629  12.587 -1.8080 -0.0659  0.8414
 9271TIP3   OH249303   0.822   4.319  15.177  0.1728 -0.4029 -0.4652
 9271TIP3    H149304   0.906   4.294  15.140  0.9359  1.2321  0.0521
 9271TIP3    H249305   0.831   4.301  15.271 -0.0002 -0.1194 -0.3911
 9272TIP3   OH249306   4.345   4.551  12.663 -0.5809 -0.0977  0.1071
 9272TIP3    H149307   4.430   4.511  12.647  0.0115  0.5754  1.4165
 9272TIP3    H249308   4.363   4.621  12.725 -2.0857  0.1090  0.3445
 9273TIP3   OH249309   4.455   5.154   3.804 -0.1639 -0.7912  0.1163
 9273TIP3    H149310   4.430   5.106   3.883 -0.3356 -1.0852 -0.1155
 9273TIP3    H249311   4.550   5.148   3.802 -0.2496 -2.6429 -0.8380
 9274TIP3   OH249312   6.792   5.883  14.894 -0.1738  1.0751 -0.0068
 9274TIP3    H149313   6.885   5.869  14.881  0.0198  1.9451  0.3454
 9274TIP3    H249314   6.757   5.797  14.917  0.2517  0.4219 -1.6489
 9275TIP3   OH249315   4.386   3.217   1.812 -0.3246 -0.0540 -0.1272
 9275TIP3    H149316   4.462   3.263   1.776 -0.0290  0.0441  0.6172
 9275TIP3    H249317   4.320   3.223   1.742  0.6456 -0.9562 -1.1702
 9276TIP3   OH249318   6.590   1.113  13.213  0.1218 -0.4845  0.5514
 9276TIP3    H149319   6.499   1.085  13.205  0.9164 -3.0887 -0.5022
 9276TIP3    H249320   6.613   1.092  13.304 -0.1903 -0.2225  0.6943
 9277TIP3   OH249321   6.312   3.014   0.469  0.3440 -0.1011 -0.0475
 9277TIP3    H149322   6.284   2.982   0.555 -1.3576  0.4328 -0.3449
 9277TIP3    H249323   6.301   3.109   0.474 -0.2673 -0.0996 -0.9924
 9278TIP3   OH249324   2.103   3.022   3.002 -0.3948 -0.3091  0.7082
 9278TIP3    H149325   2.047   3.004   3.078  0.0668  0.2692  1.1994
 9278TIP3    H249326   2.190   2.992   3.028 -0.4155 -0.9478  0.0531
 9279TIP3   OH249327   2.765   1.397  10.896  0.4446  0.1948  0.0459
 9279TIP3    H149328   2.859   1.412  10.903  0.3143  0.7422  0.7727
 9279TIP3    H249329   2.753   1.305  10.919  1.0362 -0.5581 -2.3781
 9280TIP3   OH249330   1.932   1.830   4.869  0.4143 -0.5187  1.3903
 9280TIP3    H149331   1.938   1.829   4.773  0.8259 -0.2202  1.4101
 9280TIP3    H249332   1.863   1.768   4.889 -0.2092 -0.0048  0.8608
 9281TIP3   OH249333   2.407   4.149   5.577 -0.4500  0.8407 -0.5257
 9281TIP3    H149334   2.467   4.224   5.583  0.5739  0.0611 -0.5924
 9281TIP3    H249335   2.361   4.147   5.661 -0.2888  1.3896 -0.4228
 9282TIP3   OH249336   0.942   0.995   0.486 -0.0351  0.3527 -0.0458
 9282TIP3    H149337   0.906   1.082   0.471 -0.9560  0.3852  1.9919
 9282TIP3    H249338   0.987   0.973   0.404  1.1559  3.1688 -0.2764
 9283TIP3   OH249339   3.719   5.566   0.075  0.2109  0.1004  0.6760
 9283TIP3    H149340   3.741   5.483   0.118  1.2056 -0.0183 -0.0218
 9283TIP3    H249341   3.785   5.628   0.106 -0.0057  0.4084  0.5265
 9284TIP3   OH249342   4.076   3.300  15.162  0.5275 -0.3031 -0.3615
 9284TIP3    H149343   4.115   3.322  15.247 -0.4413 -1.6773  0.4895
 9284TIP3    H249344   4.076   3.204  15.160 -2.5111 -0.4115 -0.3758
 9285TIP3   OH249345   4.215   5.094  12.600 -0.0673 -0.0299 -0.5993
 9285TIP3    H149346   4.262   5.114  12.519  2.8605 -1.6953  0.5005
 9285TIP3    H249347   4.250   5.156  12.664 -0.0461 -0.6931  0.0428
 9286TIP3   OH249348   6.152   5.752   4.781 -0.2405  0.1258 -0.7792
 9286TIP3    H149349   6.238   5.727   4.747  0.5974  2.3897 -0.5140
 9286TIP3    H249350   6.102   5.671   4.782  2.2104 -1.4941  0.0325
 9287TIP3   OH249351   3.123   5.266  14.071  0.3968 -0.9394  0.0251
 9287TIP3    H149352   3.080   5.186  14.099 -2.1855 -0.0657 -1.1683
 9287TIP3    H249353   3.150   5.309  14.153 -2.3837 -0.8540  0.9984
 9288TIP3   OH249354   6.422   0.462  16.868  0.3809  0.0208 -0.0867
 9288TIP3    H149355   6.385   0.456  16.957  0.0991 -1.8054 -0.2750
 9288TIP3    H249356   6.382   0.540  16.830 -0.0688  0.4071  1.1341
 9289TIP3   OH249357   3.391   2.757  13.807  0.0780  0.0360 -0.2719
 9289TIP3    H149358   3.329   2.689  13.779 -0.8621  0.7174  0.1116
 9289TIP3    H249359   3.477   2.715  13.800 -0.5073 -1.2996  0.2403
 9290TIP3   OH249360   6.618   6.335  15.641 -0.5950  0.0687  0.3886
 9290TIP3    H149361   6.579   6.250  15.622  0.0116 -0.7510  2.4450
 9290TIP3    H249362   6.543   6.394  15.648 -0.9841 -0.1029 -1.6801
 9291TIP3   OH249363   6.390   2.335   1.506  0.0585  0.4196  0.5988
 9291TIP3    H149364   6.302   2.329   1.470  0.1463  2.7023 -0.1936
 9291TIP3    H249365   6.381   2.310   1.598 -0.9631 -1.4786  0.0220
 9292TIP3   OH249366   0.511   3.273  11.921  0.1954 -0.1213 -0.2676
 9292TIP3    H149367   0.579   3.209  11.941  0.0489  0.2003  1.3443
 9292TIP3    H249368   0.546   3.322  11.846  1.2531 -0.6833 -0.1554
 9293TIP3   OH249369   5.641   4.537   3.307  0.7064  0.3716 -0.7063
 9293TIP3    H149370   5.663   4.459   3.256 -0.6418 -1.8959  1.9287
 9293TIP3    H249371   5.638   4.608   3.242  3.2245 -1.4557 -3.0205
 9294TIP3   OH249372   5.376   2.740  15.350 -0.7038 -0.0168 -0.0591
 9294TIP3    H149373   5.393   2.684  15.426 -1.3607  1.3804  1.1810
 9294TIP3    H249374   5.457   2.789  15.338 -1.1908  1.0893  0.9537
 9295TIP3   OH249375   0.158   1.313  15.789  0.2435 -0.2236 -0.9490
 9295TIP3    H149376   0.068   1.300  15.817  1.3568 -1.0478  2.8026
 9295TIP3    H249377   0.194   1.224  15.783  1.4025  0.1612 -0.0153
 9296TIP3   OH249378   2.296   0.360  14.824  0.2112 -0.0269 -0.2595
 9296TIP3    H149379   2.208   0.360  14.861 -0.5765  0.6756 -2.0030
 9296TIP3    H249380   2.286   0.404  14.739  2.2286 -0.0154 -0.5376
 9297TIP3   OH249381   5.842   0.762  16.050  0.3902  0.3225  0.2055
 9297TIP3    H149382   5.926   0.765  16.005 -0.0264  2.8057 -0.5428
 9297TIP3    H249383   5.862   0.731  16.138  2.0501  0.6771 -0.0269
 9298TIP3   OH249384   5.032   6.179  16.427 -0.4848 -0.2046 -0.9670
 9298TIP3    H149385   4.993   6.135  16.503  1.1669  0.6784  0.4784
 9298TIP3    H249386   4.978   6.258  16.416  0.0582  0.3619  0.2007
 9299TIP3   OH249387   0.610   6.654   2.598 -0.3334 -0.3884 -0.4719
 9299TIP3    H149388   0.665   6.600   2.541  0.3245 -1.4438  1.1117
 9299TIP3    H249389   0.657   6.659   2.681 -1.0839  1.4376 -0.0896
 9300TIP3   OH249390   0.441   2.327   4.050  0.1442 -0.0755  0.2549
 9300TIP3    H149391   0.463   2.308   4.141 -0.6473  1.2265  0.7333
 9300TIP3    H249392   0.412   2.242   4.015 -3.1651  0.0137  2.2853
 9301TIP3   OH249393   5.493   3.939   0.261 -0.0830  0.4780  0.5448
 9301TIP3    H149394   5.544   3.874   0.310 -0.8976 -0.7733 -0.2061
 9301TIP3    H249395   5.404   3.906   0.264 -0.3705  1.1238 -0.5984
 9302TIP3   OH249396   4.430   5.293   2.840  0.2418  0.8264  0.1339
 9302TIP3    H149397   4.511   5.305   2.791  0.1790  1.5764  0.2079
 9302TIP3    H249398   4.381   5.373   2.826  0.2389  1.0825  1.4442
 9303TIP3   OH249399   2.280   1.560   3.646  0.2161 -0.3810  0.2985
 9303TIP3    H149400   2.259   1.637   3.699  1.3059  0.3258 -0.2636
 9303TIP3    H249401   2.374   1.547   3.658  0.2583 -0.9113 -0.5488
 9304TIP3   OH249402   5.327   3.924   1.822  0.1035 -0.2322 -0.6556
 9304TIP3    H149403   5.262   3.986   1.855 -0.2020 -0.9326  0.0915
 9304TIP3    H249404   5.322   3.933   1.727 -2.3845 -1.5378 -0.7268
 9305TIP3   OH249405   0.792   4.154   2.767  0.2233 -0.0093 -0.3159
 9305TIP3    H149406   0.703   4.177   2.792  0.3133  0.4147 -0.3822
 9305TIP3    H249407   0.829   4.110   2.843  0.0315  0.0186 -0.2079
 9306TIP3   OH249408   4.231   1.974  10.692 -0.5119 -0.0608 -0.0194
 9306TIP3    H149409   4.196   1.909  10.753  1.1530  0.1896  1.2834
 9306TIP3    H249410   4.163   1.985  10.626 -1.2229 -2.4223  0.2365
 9307TIP3   OH249411   0.707   1.031  17.030  0.2926  0.2107 -0.5831
 9307TIP3    H149412   0.633   0.973  17.047 -0.3458  0.0859 -3.4054
 9307TIP3    H249413   0.698   1.056  16.938  2.4099  2.1551 -0.3505
 9308TIP3   OH249414   6.275   1.365   4.948 -1.4007 -0.2036  0.7258
 9308TIP3    H149415   6.308   1.276   4.964 -0.9357 -0.1186  0.2761
 9308TIP3    H249416   6.204   1.353   4.885  1.6657  0.0811 -3.1683
 9309TIP3   OH249417   6.527   0.423  12.084  0.1315  0.2666  0.1368
 9309TIP3    H149418   6.563   0.398  12.169  1.1698  2.4672  0.3989
 9309TIP3    H249419   6.584   0.380  12.020 -1.2895 -2.2909  0.4516
 9310TIP3   OH249420   3.784   1.912   3.381 -0.6134 -0.0351 -0.2312
 9310TIP3    H149421   3.695   1.945   3.373 -0.7102  0.3771  1.9332
 9310TIP3    H249422   3.775   1.817   3.372 -1.1784  0.0484 -0.5970
 9311TIP3   OH249423   0.829   4.342  11.531  0.5211  0.0600  0.1550
 9311TIP3    H149424   0.763   4.328  11.599  2.1985 -1.2076  1.5972
 9311TIP3    H249425   0.902   4.286  11.556  0.9808 -1.0377 -3.0676
 9312TIP3   OH249426   2.944   1.495   0.282 -0.7514  0.2060 -0.0506
 9312TIP3    H149427   3.027   1.513   0.240 -0.0358 -0.0015  1.2253
 9312TIP3    H249428   2.895   1.442   0.218  1.0926 -1.8430  0.1277
 9313TIP3   OH249429   4.019   1.827   2.011  0.2658 -0.1246 -0.0504
 9313TIP3    H149430   4.111   1.825   2.037  0.8100  0.4646 -1.8410
 9313TIP3    H249431   3.990   1.915   2.037 -0.0370 -0.5847  1.2331
 9314TIP3   OH249432   0.822   5.622  11.722  0.0222  0.1048 -0.0452
 9314TIP3    H149433   0.857   5.708  11.743 -1.2999  0.7685 -0.4209
 9314TIP3    H249434   0.854   5.604  11.633 -1.6507  1.3468 -0.9653
 9315TIP3   OH249435   0.898   2.435  15.116  0.2841 -0.0438  0.4596
 9315TIP3    H149436   0.852   2.377  15.056  0.9849 -0.6966  0.5343
 9315TIP3    H249437   0.828   2.476  15.168 -0.2898  0.1466 -0.4508
 9316TIP3   OH249438   1.460   1.068  16.111  0.0774 -0.0487  0.5260
 9316TIP3    H149439   1.451   1.006  16.184  2.5218 -2.7661 -1.2477
 9316TIP3    H249440   1.384   1.050  16.055 -0.0321 -0.3592  0.7688
 9317TIP3   OH249441   0.611   6.633   0.806  0.3947  0.0766 -0.3071
 9317TIP3    H149442   0.672   6.674   0.868  0.2226  0.5996 -0.4737
 9317TIP3    H249443   0.665   6.609   0.731  0.4038  0.5311 -0.4508
 9318TIP3   OH249444   0.354   5.279  12.778 -0.2871 -0.1779  0.0840
 9318TIP3    H149445   0.335   5.282  12.684 -0.9382 -0.3793  0.2052
 9318TIP3    H249446   0.388   5.366  12.798 -0.4821 -0.0171 -0.2724
 9319TIP3   OH249447   3.156   1.575   0.855 -0.2948 -0.1373  0.1911
 9319TIP3    H149448   3.098   1.502   0.833 -1.5028  1.0568 -0.8153
 9319TIP3    H249449   3.232   1.564   0.798  0.0254 -1.1643  0.7986
 9320TIP3   OH249450   5.482   1.756   4.243 -0.0107  0.1601  0.0661
 9320TIP3    H149451   5.428   1.831   4.269  0.3813  0.6032 -0.3868
 9320TIP3    H249452   5.571   1.781   4.265  0.1795  0.0317 -0.5311
 9321TIP3   OH249453   0.284   6.124   2.375  0.2886  0.3403  0.6640
 9321TIP3    H149454   0.344   6.160   2.310  0.3161  3.4368  2.2321
 9321TIP3    H249455   0.339   6.069   2.431  0.6034 -0.9138 -0.8225
 9322TIP3   OH249456   5.923   5.291   0.796  0.7086 -0.0085  0.2281
 9322TIP3    H149457   5.862   5.236   0.747  0.1472  0.2125  0.6674
 9322TIP3    H249458   5.974   5.230   0.848 -0.1242 -0.1025  0.9544
 9323TIP3   OH249459   3.400   1.746  15.656 -0.1564  0.0385 -0.0251
 9323TIP3    H149460   3.474   1.803  15.675  0.3595  0.2045 -2.2674
 9323TIP3    H249461   3.433   1.658  15.670  1.0606  0.0149 -2.5896
 9324TIP3   OH249462   4.248   6.386   4.201 -0.7746  0.5482 -0.6505
 9324TIP3    H149463   4.210   6.299   4.198  1.9514 -1.0534  3.0096
 9324TIP3    H249464   4.341   6.373   4.180 -0.2715  2.5186  0.0456
 9325TIP3   OH249465   1.800   5.904   5.488  0.6119  0.0442  0.0693
 9325TIP3    H149466   1.768   5.904   5.579  1.4209 -1.1456  0.3851
 9325TIP3    H249467   1.786   5.814   5.459  2.3266 -0.1396 -0.2513
 9326TIP3   OH249468   2.618   1.863   0.663  0.0423 -0.6642 -0.6799
 9326TIP3    H149469   2.568   1.872   0.582 -1.7595  1.0622  0.5311
 9326TIP3    H249470   2.575   1.793   0.711 -1.5509  1.0415  0.5081
 9327TIP3   OH249471   5.250   0.941   0.252 -0.2409 -0.0476  0.4318
 9327TIP3    H149472   5.305   0.865   0.268  1.0380  1.2010  2.4025
 9327TIP3    H249473   5.192   0.944   0.328  0.0277  1.1685  0.6060
 9328TIP3   OH249474   0.020   0.281  14.816 -0.1548  0.1599 -0.1636
 9328TIP3    H149475  -0.019   0.254  14.733 -0.2492 -0.1258 -0.0258
 9328TIP3    H249476   0.102   0.323  14.791  0.5680 -1.2765 -0.3134
 9329TIP3   OH249477   1.804   2.582   1.290  0.0440  0.6374  0.2509
 9329TIP3    H149478   1.868   2.518   1.320  0.8130  1.4370  0.3541
 9329TIP3    H249479   1.837   2.666   1.322 -0.1302  1.2876 -1.2034
 9330TIP3   OH249480   5.983   6.291  16.982 -0.3326 -0.4547  0.3186
 9330TIP3    H149481   5.970   6.198  16.963 -1.1054 -0.4705  0.8882
 9330TIP3    H249482   5.952   6.303  17.071 -0.3401  0.3728  0.2207
 9331TIP3   OH249483   5.085   2.410   5.218 -0.1144 -0.0409 -0.1357
 9331TIP3    H149484   5.122   2.413   5.131  2.0846 -0.3346  0.7376
 9331TIP3    H249485   4.996   2.446   5.208  0.9541  2.3080 -2.0276
 9332TIP3   OH249486   6.353   4.503  12.172 -0.3423 -0.2802  0.0162
 9332TIP3    H149487   6.404   4.569  12.125 -1.0696  0.8365  0.7431
 9332TIP3    H249488   6.412   4.427  12.178  1.1259  0.8525  0.5436
 9333TIP3   OH249489   3.514   3.057   2.861 -0.1781  0.2941 -0.5992
 9333TIP3    H149490   3.519   2.969   2.824 -0.9128  0.0602 -0.1694
 9333TIP3    H249491   3.477   3.044   2.948  1.3797  0.8474  0.1847
 9334TIP3   OH249492   6.494   4.133  11.377 -0.1915  0.6763 -0.8201
 9334TIP3    H149493   6.454   4.047  11.392  0.5164  0.5021  0.2289
 9334TIP3    H249494   6.569   4.115  11.322  0.4393  0.4840  0.0828
 9335TIP3   OH249495   1.551   2.353   2.287  0.3031 -0.2055 -0.4651
 9335TIP3    H149496   1.531   2.411   2.213 -1.0630  1.0267  0.8060
 9335TIP3    H249497   1.507   2.271   2.265 -0.3388  0.2390 -0.9143
 9336TIP3   OH249498   4.348   3.832  17.035  0.0941 -0.0724 -0.3982
 9336TIP3    H149499   4.419   3.784  16.993  0.1904  1.2508 -1.8256
 9336TIP3    H249500   4.317   3.894  16.969 -0.8697  0.9566  0.9404
 9337TIP3   OH249501   3.511   1.628  15.974 -0.0269 -0.5117 -0.2832
 9337TIP3    H149502   3.463   1.711  15.984 -1.2862 -1.3845  1.4167
 9337TIP3    H249503   3.449   1.562  16.003  0.8590 -2.1129 -1.8725
 9338TIP3   OH249504   1.331   2.800   4.823  0.3078  0.8797 -0.1535
 9338TIP3    H149505   1.425   2.811   4.809  0.7701 -2.0786 -0.0421
 9338TIP3    H249506   1.316   2.828   4.913  1.6085 -0.8565  0.6585
 9339TIP3   OH249507   3.468   0.463  13.765 -0.3899  0.1203 -0.6928
 9339TIP3    H149508   3.419   0.382  13.770  0.6629 -0.5220 -0.3341
 9339TIP3    H249509   3.421   0.523  13.823  0.0053 -0.9081  0.7487
 9340TIP3   OH249510   6.703   3.678   4.008  0.4786  0.1337 -0.8545
 9340TIP3    H149511   6.764   3.692   4.080 -0.3980  0.2508 -0.1160
 9340TIP3    H249512   6.758   3.676   3.930  2.0916 -4.3797  0.0963
 9341TIP3   OH249513   3.318   0.086   4.423 -0.2600 -0.3116 -0.2934
 9341TIP3    H149514   3.396   0.111   4.372  0.4178 -0.5046  0.6313
 9341TIP3    H249515   3.283   0.168   4.456 -0.7967 -0.1682 -1.1806
 9342TIP3   OH249516   2.664   1.657  10.895 -0.4575  0.2241  0.2391
 9342TIP3    H149517   2.701   1.570  10.910 -1.4519 -0.2630 -0.0674
 9342TIP3    H249518   2.718   1.695  10.825  0.3809  0.1278  0.8089
 9343TIP3   OH249519   2.427   5.796  13.943 -0.2420  0.2599 -0.7360
 9343TIP3    H149520   2.377   5.864  13.989  1.5406  0.7287  0.6075
 9343TIP3    H249521   2.414   5.815  13.850 -0.1143  2.2041 -0.3919
 9344TIP3   OH249522   1.532   1.906   0.484  0.2700  0.0912 -0.4686
 9344TIP3    H149523   1.479   1.976   0.446 -0.3174  0.2248  0.5588
 9344TIP3    H249524   1.622   1.936   0.476  0.0353  0.8513 -0.2821
 9345TIP3   OH249525   2.048   4.663   2.479  0.2810  0.0606 -0.2790
 9345TIP3    H149526   1.997   4.596   2.433 -0.0702  0.1029  0.0445
 9345TIP3    H249527   1.984   4.709   2.533  0.7395 -0.1842  0.4823
 9346TIP3   OH249528   3.105   0.089  16.363 -0.3478  0.6638 -0.3167
 9346TIP3    H149529   3.121   0.063  16.453 -0.5729  1.5343 -0.0197
 9346TIP3    H249530   3.027   0.145  16.367 -1.4918 -0.7860 -1.2880
 9347TIP3   OH249531   0.578   6.106   4.168 -0.4067 -0.2075 -0.1599
 9347TIP3    H149532   0.631   6.051   4.110 -0.8628 -0.2989 -0.4964
 9347TIP3    H249533   0.642   6.157   4.217  0.0744 -1.5659  0.6985
 9348TIP3   OH249534   4.372   5.922  14.608 -0.2427  0.4122  0.5251
 9348TIP3    H149535   4.429   5.847  14.622 -2.0783 -1.2991 -0.5947
 9348TIP3    H249536   4.431   5.995  14.592  1.6192 -0.6589  2.1487
 9349TIP3   OH249537   0.860   5.771   5.600  0.0654 -0.0520  0.7330
 9349TIP3    H149538   0.859   5.856   5.557  0.2606  0.2012  1.2333
 9349TIP3    H249539   0.928   5.722   5.554 -1.5951 -0.7648 -1.1305
 9350TIP3   OH249540   1.973   3.375  13.579  0.4733  0.9498 -0.4849
 9350TIP3    H149541   1.885   3.396  13.610  0.8643 -0.2474  1.6532
 9350TIP3    H249542   1.998   3.450  13.524 -1.5571  1.6617 -0.5249
 9351TIP3   OH249543   0.809   5.432   2.222  0.2077 -0.2271  0.2750
 9351TIP3    H149544   0.900   5.425   2.191  0.5292  1.2700  0.8027
 9351TIP3    H249545   0.791   5.346   2.262  0.8743 -1.0505 -1.1195
 9352TIP3   OH249546   5.400   0.106   5.808  0.3066  0.6029 -0.2358
 9352TIP3    H149547   5.388   0.080   5.899  1.3835  1.0234  0.0405
 9352TIP3    H249548   5.403   0.201   5.810  3.0473  0.6076 -0.2848
 9353TIP3   OH249549   1.613   3.787  10.624 -0.6272 -0.3067  0.3060
 9353TIP3    H149550   1.650   3.699  10.634 -1.3245 -0.7051 -0.4983
 9353TIP3    H249551   1.519   3.775  10.636 -0.8201  0.1744 -0.6296
 9354TIP3   OH249552   5.916   1.728  12.823 -0.7713  0.1222 -0.1308
 9354TIP3    H149553   5.931   1.791  12.893  0.2646  1.7948 -1.7512
 9354TIP3    H249554   5.926   1.643  12.865 -2.5225  0.9497  2.2135
 9355TIP3   OH249555   2.859   1.939   1.918 -0.1476  0.0726  0.0778
 9355TIP3    H149556   2.878   1.896   2.001  1.0146 -0.1825 -0.2983
 9355TIP3    H249557   2.814   2.020   1.942 -1.2367 -0.7312  0.8588
 9356TIP3   OH249558   2.504   5.525  12.793  0.1975  0.2754  0.5138
 9356TIP3    H149559   2.478   5.537  12.884 -0.6205 -0.9850  0.4744
 9356TIP3    H249560   2.454   5.449  12.764  1.2660 -0.0163 -0.6656
 9357TIP3   OH249561   6.314   1.925   4.280  0.3764 -0.2210  0.5820
 9357TIP3    H149562   6.319   1.874   4.361 -0.0766 -1.2739 -0.0325
 9357TIP3    H249563   6.404   1.927   4.247  0.0703 -2.7260 -0.6200
 9358TIP3   OH249564   3.764   4.876   3.673 -0.3588  0.1171  0.6487
 9358TIP3    H149565   3.746   4.783   3.661  1.0413 -0.1690  0.6277
 9358TIP3    H249566   3.681   4.919   3.653 -0.7297 -1.0426 -0.4117
 9359TIP3   OH249567   1.582   1.381   2.243  0.4226 -0.5571 -0.0036
 9359TIP3    H149568   1.590   1.444   2.171 -1.9377 -0.0002  0.1532
 9359TIP3    H249569   1.563   1.435   2.320 -0.4731 -1.3689  0.3582
 9360TIP3   OH249570   4.869   0.165  11.964 -0.8111  0.0159 -0.5600
 9360TIP3    H149571   4.782   0.135  11.939 -1.1419  1.5000 -1.2728
 9360TIP3    H249572   4.904   0.207  11.886 -0.3718  1.4569  0.3802
 9361TIP3   OH249573   5.243   3.808  12.289  0.5181  0.7987 -0.0463
 9361TIP3    H149574   5.277   3.797  12.378 -0.4760 -1.5946  0.1009
 9361TIP3    H249575   5.315   3.778  12.232 -0.2879 -1.7768  0.1724
 9362TIP3   OH249576   5.610   2.989  11.131 -0.0441 -0.4728  0.4136
 9362TIP3    H149577   5.601   2.896  11.151 -1.3288 -0.4182  0.2035
 9362TIP3    H249578   5.524   3.014  11.098  0.5525  0.5783 -0.4219
 9363TIP3   OH249579   1.055   1.982  13.064  0.2833 -0.1705 -0.3409
 9363TIP3    H149580   1.070   2.015  13.152  1.3757  1.4968 -1.0951
 9363TIP3    H249581   1.017   1.895  13.077 -0.4603  0.3992  1.7527
 9364TIP3   OH249582   5.309   2.155  13.695  0.0596 -0.2731  0.0312
 9364TIP3    H149583   5.224   2.117  13.673 -0.5777  0.0368  1.7604
 9364TIP3    H249584   5.337   2.199  13.615 -1.6289 -0.0229 -0.4673
 9365TIP3   OH249585   6.105   4.268   3.723 -0.4121  0.0363  0.0640
 9365TIP3    H149586   6.098   4.207   3.650  0.3436  0.5225 -0.4305
 9365TIP3    H249587   6.015   4.298   3.738 -0.8309 -1.3712  0.4890
 9366TIP3   OH249588   0.796   1.768   4.817 -0.1935  0.8306  0.0583
 9366TIP3    H149589   0.840   1.725   4.891 -0.6185 -1.4027 -0.9086
 9366TIP3    H249590   0.714   1.800   4.854 -0.7456 -0.9146  0.4677
 9367TIP3   OH249591   0.167   2.981  11.001  0.3302 -0.0188  0.3729
 9367TIP3    H149592   0.156   2.886  10.998 -2.9225  0.2516  0.3245
 9367TIP3    H249593   0.179   3.001  11.093 -1.0320 -0.3523  0.6405
 9368TIP3   OH249594   5.212   2.990  12.341  0.1909  0.4268 -0.1556
 9368TIP3    H149595   5.278   3.058  12.337  1.1098 -0.3229  1.4146
 9368TIP3    H249596   5.189   2.973  12.249  1.0778  1.7275 -0.6397
 9369TIP3   OH249597   5.637   6.437   1.114 -0.4425  0.0325  0.0339
 9369TIP3    H149598   5.669   6.465   1.028 -1.5171 -0.8971 -0.7024
 9369TIP3    H249599   5.690   6.360   1.136 -0.6040 -0.1198 -0.1059
 9370TIP3   OH249600   2.893   5.440   2.721 -0.1548 -0.4523 -0.1731
 9370TIP3    H149601   2.859   5.358   2.757  0.6164 -0.0960  1.4613
 9370TIP3    H249602   2.950   5.474   2.789  0.1088  1.0935 -1.1221
 9371TIP3   OH249603   0.682   4.327  11.805  0.3329  0.1368 -0.0632
 9371TIP3    H149604   0.587   4.335  11.813  0.1728 -1.2634 -0.2847
 9371TIP3    H249605   0.717   4.371  11.883 -0.6471 -1.8307  1.5873
 9372TIP3   OH249606   3.666   4.979  11.689  0.5608 -0.2202 -0.0845
 9372TIP3    H149607   3.657   4.964  11.783  0.6863 -1.8832 -0.3216
 9372TIP3    H249608   3.719   4.906  11.657  1.6596  1.0123 -1.2570
 9373TIP3   OH249609   1.514   3.385   2.387  0.4270 -0.2051  0.5234
 9373TIP3    H149610   1.552   3.459   2.341  1.9491 -1.3867 -0.2352
 9373TIP3    H249611   1.590   3.332   2.414 -0.6149 -1.7236  0.6022
 9374TIP3   OH249612   6.767   6.522   2.279  0.3100  0.1038  0.7904
 9374TIP3    H149613   6.816   6.562   2.207  1.9603 -1.0282  1.2315
 9374TIP3    H249614   6.832   6.468   2.325 -1.3495 -1.4018  1.4609
 9375TIP3   OH249615   1.684   1.315   1.871 -0.4045  0.0344  0.2159
 9375TIP3    H149616   1.614   1.270   1.917 -1.2597 -0.8234 -1.8023
 9375TIP3    H249617   1.659   1.407   1.872 -0.2342  0.0776  1.6974
 9376TIP3   OH249618   0.991   3.082   3.150  0.0502  0.5802  0.5155
 9376TIP3    H149619   1.069   3.072   3.096 -0.0768  0.3223  0.3794
 9376TIP3    H249620   0.952   3.164   3.119 -1.0730 -0.5181 -1.1495
 9377TIP3   OH249621   2.567   0.988   3.030  0.7781 -0.4808 -0.2205
 9377TIP3    H149622   2.632   1.034   3.084 -0.2017 -0.3212  0.8319
 9377TIP3    H249623   2.514   0.938   3.091 -0.4695 -0.1622 -0.9947
 9378TIP3   OH249624   3.406   1.481  11.175 -1.2065 -0.1642 -0.2159
 9378TIP3    H149625   3.384   1.471  11.082  1.6345  1.5332 -1.2040
 9378TIP3    H249626   3.339   1.539  11.209 -1.2504  0.7293 -1.7244
 9379TIP3   OH249627   0.583   1.316   2.881 -0.0144 -0.1883 -0.2370
 9379TIP3    H149628   0.543   1.403   2.881 -0.1787 -0.1317  3.4603
 9379TIP3    H249629   0.606   1.301   2.789 -0.0321  3.6769 -1.0421
 9380TIP3   OH249630   0.227   6.449   3.813 -0.6797  0.2481 -0.4804
 9380TIP3    H149631   0.145   6.494   3.793 -1.2530  0.4112  1.8417
 9380TIP3    H249632   0.200   6.361   3.839 -0.1617  0.3527  0.4544
 9381TIP3   OH249633   0.046   1.847   4.562 -0.4849 -0.2296 -0.4643
 9381TIP3    H149634   0.117   1.850   4.498  0.6575 -1.3998  0.6866
 9381TIP3    H249635   0.002   1.931   4.554 -0.4980 -0.4011 -2.8985
 9382TIP3   OH249636   0.575   5.403   2.921  0.0828  0.6431  0.0863
 9382TIP3    H149637   0.597   5.441   2.836  0.5771  0.1519 -0.0100
 9382TIP3    H249638   0.539   5.476   2.971 -0.2200  0.9346 -0.5451
 9383TIP3   OH249639   0.820   2.490   0.190  0.6336  0.5011 -0.2588
 9383TIP3    H149640   0.789   2.576   0.162 -1.8002 -0.3512 -0.5032
 9383TIP3    H249641   0.795   2.432   0.117  0.5735 -0.6613  0.6650
 9384TIP3   OH249642   6.478   2.853  14.920  0.0296 -0.2314  0.7091
 9384TIP3    H149643   6.498   2.771  14.875  2.7618  0.5026  0.4262
 9384TIP3    H249644   6.383   2.850  14.933 -0.1351 -2.8497 -0.3814
 9385TIP3   OH249645   6.063   6.367   4.380 -0.1746  0.1786 -0.2107
 9385TIP3    H149646   6.137   6.421   4.353 -1.0882  1.7179  0.2147
 9385TIP3    H249647   6.034   6.323   4.300  1.6381 -1.0540 -0.2337
 9386TIP3   OH249648   5.952   5.938  15.808  0.8022  0.1583  0.3166
 9386TIP3    H149649   6.019   5.997  15.843  0.0393  1.8098 -0.8853
 9386TIP3    H249650   5.930   5.974  15.722 -2.3056  0.2921  1.0488
 9387TIP3   OH249651   6.503   0.829  15.661  0.2748 -0.2260  0.3480
 9387TIP3    H149652   6.478   0.790  15.745 -1.4375 -0.1096 -0.0799
 9387TIP3    H249653   6.445   0.787  15.597 -0.7593  2.0760 -0.3065
 9388TIP3   OH249654   2.611   3.137  15.016  0.3114  0.0446  0.5490
 9388TIP3    H149655   2.653   3.184  14.944  1.7088 -0.4858  0.9783
 9388TIP3    H249656   2.528   3.107  14.979  1.3490 -0.9502 -1.1525
 9389TIP3   OH249657   6.702   0.512  15.679 -0.3336 -0.3124  0.1569
 9389TIP3    H149658   6.656   0.466  15.749  1.0417 -1.1309  0.5390
 9389TIP3    H249659   6.632   0.537  15.618 -1.4121 -0.5849  1.2356
 9390TIP3   OH249660   3.904   5.707  11.029  0.6615  0.3097  0.2255
 9390TIP3    H149661   3.912   5.759  11.109  0.1719  0.5789  0.1049
 9390TIP3    H249662   3.856   5.629  11.055  0.3107  0.4993  0.1512
 9391TIP3   OH249663   4.078   1.847   5.774 -0.5108 -0.0221  0.2179
 9391TIP3    H149664   4.019   1.918   5.797 -1.3454 -1.0548  1.3996
 9391TIP3    H249665   4.142   1.845   5.845  0.7479  0.8206 -0.8428
 9392TIP3   OH249666   1.997   1.888   3.847 -0.1127  0.0734  0.1745
 9392TIP3    H149667   2.090   1.866   3.857  0.1652  1.7037  1.6043
 9392TIP3    H249668   1.951   1.805   3.863  1.0463 -0.4699  0.8245
 9393TIP3   OH249669   6.520   2.556   1.831  0.1778  0.2081  0.7847
 9393TIP3    H149670   6.440   2.606   1.847 -0.2654 -0.5662  1.0416
 9393TIP3    H249671   6.491   2.465   1.827  1.2284 -0.2462  2.3792
 9394TIP3   OH249672   3.897   1.226  13.832 -0.4317  0.1643  0.5758
 9394TIP3    H149673   3.904   1.317  13.801 -2.2143 -0.8637 -3.5182
 9394TIP3    H249674   3.806   1.217  13.858 -0.6953 -0.8004 -0.6031
 9395TIP3   OH249675   0.776   5.127   1.111  0.7441 -0.1684 -0.4139
 9395TIP3    H149676   0.742   5.195   1.169 -0.0315 -0.5721 -0.3783
 9395TIP3    H249677   0.762   5.045   1.159 -0.8462 -0.6104 -1.5601
 9396TIP3   OH249678   3.290   4.544   3.798 -0.1039 -0.3360  0.6199
 9396TIP3    H149679   3.251   4.612   3.853 -0.8442 -0.1573 -0.1137
 9396TIP3    H249680   3.340   4.592   3.732  1.1879 -0.5603  1.3996
 9397TIP3   OH249681   1.643   3.778   1.207 -0.7029 -0.1992  0.2773
 9397TIP3    H149682   1.716   3.752   1.264  2.0566  0.3739 -2.6576
 9397TIP3    H249683   1.638   3.709   1.142  0.2177  1.7536 -2.0213
 9398TIP3   OH249684   2.950   2.752  12.776  0.0221  0.1320  0.0688
 9398TIP3    H149685   2.933   2.709  12.693 -0.9494 -0.0732  0.3612
 9398TIP3    H249686   2.917   2.841  12.764 -0.8163 -0.1189  0.4778
 9399TIP3   OH249687   3.181   5.585   5.337  0.0964  0.5583  0.4157
 9399TIP3    H149688   3.102   5.532   5.340  1.0364 -0.8848  1.0340
 9399TIP3    H249689   3.211   5.579   5.247 -1.1323  2.1419 -0.1347
 9400TIP3   OH249690   3.138   5.964  16.288 -0.6988  0.2316 -0.4357
 9400TIP3    H149691   3.074   6.033  16.304  0.5051  0.8599  2.2558
 9400TIP3    H249692   3.169   5.980  16.198 -0.3009  3.3672  0.1481
 9401TIP3   OH249693   0.652   2.481   3.040  0.4483 -0.3051 -0.1822
 9401TIP3    H149694   0.665   2.441   2.954  0.3453 -2.2489  0.6637
 9401TIP3    H249695   0.697   2.423   3.101  1.1445  1.4217  1.0439
 9402TIP3   OH249696   0.214   6.383   0.796 -0.0761  0.1695 -0.0862
 9402TIP3    H149697   0.190   6.351   0.709 -2.5000 -0.4215  0.7393
 9402TIP3    H249698   0.249   6.306   0.841 -0.1845  0.1353 -0.0614
 9403TIP3   OH249699   2.681   0.630   4.603 -0.3045  0.4332 -0.0063
 9403TIP3    H149700   2.765   0.676   4.596 -0.4564  0.6915 -0.1200
 9403TIP3    H249701   2.646   0.657   4.688 -0.9578  1.4794 -0.5911
 9404TIP3   OH249702   1.480   5.851  15.458 -0.0173 -0.1352  0.1155
 9404TIP3    H149703   1.478   5.915  15.387  2.0238 -0.8603 -0.6849
 9404TIP3    H249704   1.392   5.853  15.495 -0.7274  1.3025 -1.5007
 9405TIP3   OH249705   1.923   3.008   5.752  0.5412 -0.0326  0.7386
 9405TIP3    H149706   1.916   3.101   5.771  1.9408  0.0867  0.7505
 9405TIP3    H249707   1.890   2.965   5.831 -3.6117  0.3437 -0.5437
 9406TIP3   OH249708   1.354   2.836  12.080  0.1685 -0.3893  0.0555
 9406TIP3    H149709   1.359   2.856  12.174  3.3731 -0.7870  0.0773
 9406TIP3    H249710   1.337   2.742  12.076 -0.8773 -0.2148  0.1968
 9407TIP3   OH249711   0.806   5.799  12.721 -0.1584 -0.1958 -0.0552
 9407TIP3    H149712   0.888   5.848  12.723  0.3308 -0.9374 -0.9744
 9407TIP3    H249713   0.833   5.707  12.725 -0.7434 -0.5727 -2.7644
 9408TIP3   OH249714   5.051   3.084  16.460 -0.0219 -0.2225 -0.6169
 9408TIP3    H149715   5.124   3.145  16.451 -1.1241  0.9755 -1.9402
 9408TIP3    H249716   5.050   3.060  16.552  2.7470 -1.2196 -0.7670
 9409TIP3   OH249717   1.082   0.423  13.597 -0.4217  0.9101  0.3155
 9409TIP3    H149718   1.177   0.436  13.589  0.0416 -1.2042  1.7622
 9409TIP3    H249719   1.068   0.333  13.567 -1.6761  0.5354  1.9551
 9410TIP3   OH249720   1.339   5.089  12.568  1.2148 -0.1011  0.0409
 9410TIP3    H149721   1.393   5.165  12.546  1.6021 -0.1011  0.9746
 9410TIP3    H249722   1.386   5.014  12.530 -0.0928  0.2617 -2.5182
 9411TIP3   OH249723   4.863   1.941   4.031 -0.2346 -0.4420 -0.2792
 9411TIP3    H149724   4.951   1.954   4.066 -0.2197 -0.6461 -0.2416
 9411TIP3    H249725   4.858   2.001   3.956 -0.3268  0.1112  0.1690
 9412TIP3   OH249726   4.089   5.882  12.760 -0.3782 -0.3590 -0.6765
 9412TIP3    H149727   4.018   5.832  12.721 -0.4143 -0.6327 -0.2639
 9412TIP3    H249728   4.050   5.922  12.838 -0.5629  0.9266 -1.3877
 9413TIP3   OH249729   4.414   2.497   5.807  0.1069  0.2322  0.0197
 9413TIP3    H149730   4.470   2.519   5.882 -0.9564  2.2977  0.2730
 9413TIP3    H249731   4.325   2.516   5.838 -0.8957 -3.3404 -0.2227
 9414TIP3   OH249732   3.496   4.733  16.600 -0.1652 -0.1004  0.1929
 9414TIP3    H149733   3.490   4.751  16.694  0.6986 -0.1361  0.2599
 9414TIP3    H249734   3.406   4.713  16.574  0.0073 -3.7104  1.7747
 9415TIP3   OH249735   5.811   6.106   6.381  0.0907  0.0087 -0.3023
 9415TIP3    H149736   5.727   6.152   6.379 -0.3574 -0.7901 -0.7726
 9415TIP3    H249737   5.855   6.139   6.459 -0.5654  0.6075 -0.1749
 9416TIP3   OH249738   6.626   5.252  12.568 -0.5083 -0.4259  0.2227
 9416TIP3    H149739   6.658   5.300  12.491 -0.4002 -1.6701 -0.5426
 9416TIP3    H249740   6.696   5.262  12.633 -1.8816  3.2291  1.3798
 9417TIP3   OH249741   1.927   0.564  16.186  0.2992 -0.3170  0.4838
 9417TIP3    H149742   1.965   0.518  16.111  1.1141  0.7454  0.2326
 9417TIP3    H249743   1.925   0.656  16.160 -1.8905 -0.2318  0.7326
 9418TIP3   OH249744   4.514   6.019  14.953 -0.1285 -0.0776  0.2759
 9418TIP3    H149745   4.450   6.043  14.886 -1.2619  0.9253  1.6637
 9418TIP3    H249746   4.461   5.992  15.028  1.0866  0.5198  1.3726
 9419TIP3   OH249747   6.227   3.000   1.515 -0.0569  0.1471  0.4355
 9419TIP3    H149748   6.170   3.021   1.441  0.3961 -0.7521 -0.1807
 9419TIP3    H249749   6.236   2.905   1.513  0.4748  0.1663  1.2636
 9420TIP3   OH249750   3.725   0.655   5.326  0.0840 -0.3155 -0.1420
 9420TIP3    H149751   3.701   0.691   5.241 -0.2400 -0.7094 -0.2200
 9420TIP3    H249752   3.738   0.562   5.310 -1.5516 -0.6896  0.5492
 9421TIP3   OH249753   4.728   2.412   5.624 -0.0222  0.3394  0.1204
 9421TIP3    H149754   4.711   2.459   5.705  1.4005 -0.4949  0.9371
 9421TIP3    H249755   4.799   2.351   5.645  0.6753  0.3904 -1.8466
 9422TIP3   OH249756   1.721   6.004   3.843 -0.1378 -0.1783  0.5951
 9422TIP3    H149757   1.652   5.947   3.808  0.2302 -0.6770  0.6676
 9422TIP3    H249758   1.702   6.010   3.936 -0.6189  0.4440  0.4582
 9423TIP3   OH249759   4.010   1.002  13.961 -0.2005  0.7804  0.7260
 9423TIP3    H149760   3.978   0.918  13.928 -0.6240  1.4290 -0.5535
 9423TIP3    H249761   3.978   1.067  13.899  1.1619  1.7740  1.0071
 9424TIP3   OH249762   3.873   6.239   0.901 -0.3536 -0.0247  0.4989
 9424TIP3    H149763   3.842   6.217   0.989 -1.4662 -3.8901 -0.6174
 9424TIP3    H249764   3.795   6.231   0.846  0.9060 -1.2848 -1.2460
 9425TIP3   OH249765   3.015   3.028  13.196  0.4050 -0.2761 -0.4857
 9425TIP3    H149766   3.075   3.003  13.125 -0.2676  2.0685 -1.9885
 9425TIP3    H249767   3.055   3.105  13.236 -0.5565  0.0551 -0.1377
 9426TIP3   OH249768   0.653   2.012   1.733 -0.3141 -0.3395 -0.3311
 9426TIP3    H149769   0.731   2.025   1.678 -0.9900 -1.7535 -1.6727
 9426TIP3    H249770   0.685   1.960   1.807  0.5214  1.2674  0.5107
 9427TIP3   OH249771   1.325   3.956   6.287 -0.2770  0.1031  0.6306
 9427TIP3    H149772   1.316   3.981   6.380  0.3749 -2.7309  1.5451
 9427TIP3    H249773   1.410   3.912   6.283  0.7241  2.0208 -1.8533
 9428TIP3   OH249774   5.512   6.030   2.090 -0.0948  0.1278 -0.7313
 9428TIP3    H149775   5.528   5.962   2.156  0.8086  0.6559 -0.3855
 9428TIP3    H249776   5.455   6.093   2.134 -0.0016  0.1611 -0.6553
 9429TIP3   OH249777   1.461   1.453   0.515 -0.4989 -0.0195 -0.2229
 9429TIP3    H149778   1.513   1.374   0.504  0.8302  0.9613 -1.2309
 9429TIP3    H249779   1.371   1.425   0.498  0.0097 -1.2140 -1.0476
 9430TIP3   OH249780   1.714   3.001  14.716 -0.5483  0.1083 -0.4343
 9430TIP3    H149781   1.637   3.057  14.707 -2.4246 -2.0971  0.7356
 9430TIP3    H249782   1.690   2.920  14.671  0.2383 -1.3758  1.6611
 9431TIP3   OH249783   2.003   1.263   5.917  0.2645  0.0172 -0.2662
 9431TIP3    H149784   2.090   1.278   5.953 -0.3488 -0.8312  1.7294
 9431TIP3    H249785   1.953   1.340   5.943 -0.0877 -0.4296  0.4135
 9432TIP3   OH249786   3.015   6.699  15.743  0.1666 -0.2003  0.1538
 9432TIP3    H149787   3.097   6.747  15.733  0.1704 -0.2258  0.0649
 9432TIP3    H249788   2.950   6.753  15.697  0.3343 -0.7300 -0.7332
 9433TIP3   OH249789   4.426   2.089   4.592 -0.2037 -0.3351  0.1227
 9433TIP3    H149790   4.366   2.043   4.651 -1.0402 -1.0213 -1.2294
 9433TIP3    H249791   4.491   2.023   4.569  0.6580  0.1904  0.9681
 9434TIP3   OH249792   4.527   0.874   5.617 -0.5906 -0.3410  0.2486
 9434TIP3    H149793   4.437   0.903   5.601 -0.4600 -0.3157 -0.4581
 9434TIP3    H249794   4.551   0.826   5.538  0.9464  1.9131 -0.7654
 9435TIP3   OH249795   3.864   4.590  14.283  0.1878 -0.1644 -0.2024
 9435TIP3    H149796   3.813   4.598  14.363 -0.0052 -0.1979 -0.3209
 9435TIP3    H249797   3.864   4.496  14.263 -0.3867 -0.0757 -0.6405
 9436TIP3   OH249798   5.981   0.040  16.201 -0.2922 -0.2750 -0.1650
 9436TIP3    H149799   6.015   0.110  16.146 -0.2240  0.4238  0.7327
 9436TIP3    H249800   5.901   0.076  16.240 -0.9390 -1.1448 -0.6308
 9437TIP3   OH249801   1.498   5.226   2.414  0.0001 -0.4217  0.3540
 9437TIP3    H149802   1.415   5.262   2.385  1.1406  1.4095 -0.8526
 9437TIP3    H249803   1.564   5.289   2.384  1.6722 -0.5929  3.1897
 9438TIP3   OH249804   1.060   0.263  12.556 -0.0375 -0.6632 -0.2396
 9438TIP3    H149805   1.027   0.344  12.518 -0.3478  0.1291  1.6323
 9438TIP3    H249806   0.996   0.239  12.622  1.2827 -1.0892  0.9317
 9439TIP3   OH249807   5.785   1.878   4.783  0.1263 -0.0908  0.7073
 9439TIP3    H149808   5.804   1.971   4.796 -0.4234 -0.0931  1.6059
 9439TIP3    H249809   5.692   1.870   4.803 -0.0522 -0.6684 -0.3070
 9440TIP3   OH249810   1.888   1.456   2.319  0.2379 -0.3319 -0.2763
 9440TIP3    H149811   1.824   1.521   2.291  1.9555  1.1334 -0.9592
 9440TIP3    H249812   1.864   1.437   2.410 -1.8749 -0.7723 -0.8656
 9441TIP3   OH249813   6.701   4.645   2.519 -0.0067 -0.6564  0.0334
 9441TIP3    H149814   6.706   4.569   2.576 -0.8228  0.0348  1.0511
 9441TIP3    H249815   6.623   4.629   2.465 -0.3195 -0.4350  0.4155
 9442TIP3   OH249816   5.366   0.030   1.768  0.2272 -0.0389  0.3149
 9442TIP3    H149817   5.331  -0.048   1.811  0.2636  0.6365  1.6061
 9442TIP3    H249818   5.456   0.035   1.799  0.1905  0.5807  0.3193
 9443TIP3   OH249819   1.548   5.324  11.369 -0.3897 -0.1386  0.5458
 9443TIP3    H149820   1.544   5.229  11.362  0.5859 -0.1858  0.5457
 9443TIP3    H249821   1.459   5.353  11.350 -0.6372 -1.0350  0.2999
 9444TIP3   OH249822   3.806   2.501   4.296  0.3093 -0.0283 -0.0535
 9444TIP3    H149823   3.765   2.430   4.346  0.1179  0.9757  1.2700
 9444TIP3    H249824   3.734   2.562   4.278  0.7530  0.5650  0.1480
 9445TIP3   OH249825   2.483   6.702  16.127  0.7054 -0.0778 -0.0902
 9445TIP3    H149826   2.430   6.644  16.072  1.6796  0.5042 -1.7027
 9445TIP3    H249827   2.450   6.790  16.108  0.2862  0.0683  1.1694
 9446TIP3   OH249828   4.978   2.238  12.278 -0.1869  1.0240  0.1420
 9446TIP3    H149829   5.001   2.324  12.313 -1.4608  0.7728  1.6845
 9446TIP3    H249830   5.060   2.188  12.282  0.0060  1.4096  1.6244
 9447TIP3   OH249831   1.411   0.164   3.261  0.3685  0.1156  0.1215
 9447TIP3    H149832   1.433   0.193   3.173 -1.2059  0.5789 -0.1617
 9447TIP3    H249833   1.419   0.243   3.315 -0.6567  0.3215 -0.0114
 9448TIP3   OH249834   1.484   1.037   3.236  0.0229 -0.3925  0.4735
 9448TIP3    H149835   1.555   0.974   3.249  2.1518  1.5709 -0.9363
 9448TIP3    H249836   1.512   1.114   3.285 -2.2919 -0.2659  1.7416
 9449TIP3   OH249837   6.607   6.012  15.953  0.2213  0.0637  0.7878
 9449TIP3    H149838   6.662   6.083  15.985  0.7375 -0.9922  2.3425
 9449TIP3    H249839   6.668   5.947  15.918  0.0653 -1.2299  2.7573
 9450TIP3   OH249840   4.832   2.882  15.760 -0.6916  0.1476  0.5147
 9450TIP3    H149841   4.904   2.888  15.822  1.6116 -2.3424 -1.6952
 9450TIP3    H249842   4.815   2.973  15.735  0.8194  0.8902  1.9837
 9451TIP3   OH249843   4.278   2.717   4.157  0.2105 -0.1750  0.0420
 9451TIP3    H149844   4.292   2.737   4.249 -0.7053  0.8779 -0.0312
 9451TIP3    H249845   4.188   2.683   4.153 -0.1031  0.6935 -0.5805
 9452TIP3   OH249846   5.406   6.548  16.626 -0.1775 -0.4358 -0.7575
 9452TIP3    H149847   5.372   6.611  16.690  1.4959  1.2310 -1.4190
 9452TIP3    H249848   5.332   6.489  16.609 -1.2163  0.1505  1.3308
 9453TIP3   OH249849   3.761   6.778  16.585  0.0001  0.1932  0.7363
 9453TIP3    H149850   3.836   6.746  16.636  0.2328 -0.6789 -0.1359
 9453TIP3    H249851   3.742   6.864  16.623 -0.2574 -0.6836  2.7250
 9454TIP3   OH249852   1.548   6.291  11.386  0.4613 -0.0371  0.4825
 9454TIP3    H149853   1.501   6.251  11.313  0.5254  0.1783  0.3233
 9454TIP3    H249854   1.572   6.218  11.442 -0.2416 -0.1362  0.6685
 9455TIP3   OH249855   1.024   0.368   2.476 -0.3821  0.7525 -0.6935
 9455TIP3    H149856   0.930   0.371   2.492 -0.0728  0.3358  1.6492
 9455TIP3    H249857   1.040   0.439   2.413 -2.5672 -1.0665 -3.5047
 9456TIP3   OH249858   5.694   3.590   2.923  0.6616 -0.3828  0.7148
 9456TIP3    H149859   5.789   3.579   2.929  0.7911  0.1203 -0.1179
 9456TIP3    H249860   5.661   3.502   2.904  1.2218 -0.2038 -1.3768
 9457TIP3   OH249861   6.650   1.670  12.000  0.1364  0.0506 -0.4487
 9457TIP3    H149862   6.709   1.721  11.945  0.4702 -1.5098 -1.6276
 9457TIP3    H249863   6.677   1.579  11.986 -2.7635 -0.7849 -1.3459
 9458TIP3   OH249864   2.897   0.666   3.669  0.1113  0.1691 -0.0451
 9458TIP3    H149865   2.932   0.608   3.736 -1.0396  0.1845  0.5942
 9458TIP3    H249866   2.897   0.753   3.710  3.9046  1.2050 -1.6997
 9459TIP3   OH249867   0.928   0.030  11.041 -0.6776  0.1017  0.2417
 9459TIP3    H149868   0.942   0.093  11.113 -0.8066 -0.0880  0.4345
 9459TIP3    H249869   0.930  -0.055  11.084  0.9475 -0.1283 -0.2282
 9460TIP3   OH249870   0.018   4.098  12.825 -0.1363 -0.0451  0.6283
 9460TIP3    H149871  -0.014   4.010  12.840  0.4399 -0.0958  1.6252
 9460TIP3    H249872   0.076   4.116  12.898  2.6772 -0.2081 -1.3847
 9461TIP3   OH249873   5.360   2.470  17.059 -0.3023 -0.2361 -0.5085
 9461TIP3    H149874   5.281   2.522  17.073 -0.3283 -0.1643 -0.8895
 9461TIP3    H249875   5.336   2.408  16.989  0.1831  0.2537 -1.1283
 9462TIP3   OH249876   4.147   1.474  15.162 -0.1825 -0.0362  0.4771
 9462TIP3    H149877   4.225   1.419  15.171  0.5509  1.0567  1.0202
 9462TIP3    H249878   4.074   1.412  15.158  0.7886 -1.1643 -1.4400
 9463TIP3   OH249879   4.798   3.841  14.733  0.7976  0.1620  0.2649
 9463TIP3    H149880   4.810   3.904  14.804 -0.1354  0.5008  0.1458
 9463TIP3    H249881   4.766   3.895  14.660  1.2736 -0.2562 -0.2553
 9464TIP3   OH249882   1.341   0.977  16.351 -0.2995  0.0127  0.8705
 9464TIP3    H149883   1.277   0.910  16.327  0.5531 -0.3594 -0.5026
 9464TIP3    H249884   1.294   1.060  16.340  0.0735 -0.0881 -2.6683
 9465TIP3   OH249885   3.388   1.014  12.458 -0.4899 -0.0588 -0.1466
 9465TIP3    H149886   3.335   0.935  12.470  0.3308 -0.6104 -0.0070
 9465TIP3    H249887   3.463   0.984  12.406 -0.5133  0.7894 -0.6887
 9466TIP3   OH249888   3.239   2.271  13.580  0.3076  0.1556 -0.5810
 9466TIP3    H149889   3.319   2.318  13.603 -0.0557 -0.1473  1.4859
 9466TIP3    H249890   3.262   2.178  13.592 -0.3587  0.0738  0.1087
 9467TIP3   OH249891   5.457   4.804   0.783 -0.4032 -0.1822 -0.0641
 9467TIP3    H149892   5.536   4.750   0.787 -0.8193 -0.9141 -1.1941
 9467TIP3    H249893   5.467   4.855   0.702  0.0205  1.5263  1.0299
 9468TIP3   OH249894   6.128   0.000   5.055 -0.1400 -0.2498 -0.0919
 9468TIP3    H149895   6.048  -0.038   5.018  0.3614 -0.2064 -1.2786
 9468TIP3    H249896   6.182  -0.075   5.077  0.5101 -0.2959 -1.6693
 9469TIP3   OH249897   6.744   5.301  11.273  0.0031 -0.4114 -0.1407
 9469TIP3    H149898   6.708   5.260  11.194  0.5272  0.1554 -0.6821
 9469TIP3    H249899   6.823   5.251  11.293 -0.5278 -1.0342  0.4810
 9470TIP3   OH249900   6.371   5.006   0.978 -0.1864  0.4031  0.4667
 9470TIP3    H149901   6.421   4.953   0.916  0.1742  1.1636  0.0846
 9470TIP3    H249902   6.397   4.974   1.064  0.5924  0.4420  0.2593
 9471TIP3   OH249903   3.933   2.120  12.041 -0.0981 -0.4105  0.4573
 9471TIP3    H149904   3.918   2.142  12.133 -0.1268 -0.7005  0.5212
 9471TIP3    H249905   3.942   2.025  12.039 -0.5920 -0.4543  0.0912
 9472TIP3   OH249906   2.011   6.392  12.320  0.1923  0.0332 -0.0940
 9472TIP3    H149907   2.067   6.316  12.303  1.1181 -0.0561  2.8174
 9472TIP3    H249908   1.922   6.358  12.312  0.5801 -1.4517  1.1986
 9473TIP3   OH249909   6.804   0.016   0.227  0.2904 -0.1542 -0.3237
 9473TIP3    H149910   6.813  -0.047   0.299  0.3182 -0.4185 -0.5543
 9473TIP3    H249911   6.710   0.016   0.208  0.3192 -0.2991 -0.4732
 9474TIP3   OH249912   1.342   3.260  12.763 -0.4735  0.1843  0.0548
 9474TIP3    H149913   1.369   3.249  12.854 -1.0722 -0.2976  0.1782
 9474TIP3    H249914   1.420   3.236  12.713 -0.2314  0.1659  0.4331
 9475TIP3   OH249915   0.786   4.206   0.845 -0.4724  0.4719 -0.7004
 9475TIP3    H149916   0.743   4.265   0.784 -1.3276 -1.3524 -1.9611
 9475TIP3    H249917   0.714   4.160   0.889  0.1658  0.2033  0.1002
 9476TIP3   OH249918   1.604   1.557  14.469 -0.2592  0.1208 -0.2945
 9476TIP3    H149919   1.543   1.501  14.519 -1.6176  0.8487 -1.0994
 9476TIP3    H249920   1.647   1.497  14.408  0.9373 -0.6624  1.2424
 9477TIP3   OH249921   1.417   6.630  10.889  0.2680 -0.1129  0.2154
 9477TIP3    H149922   1.502   6.673  10.884  1.1118 -1.8746 -1.6988
 9477TIP3    H249923   1.431   6.542  10.854 -2.8681  0.3782 -2.9333
 9478TIP3   OH249924   0.174   1.097  10.308 -0.2571 -0.3935  0.0600
 9478TIP3    H149925   0.126   1.139  10.237 -1.0221 -1.7594 -0.2743
 9478TIP3    H249926   0.126   1.120  10.387 -0.5515 -0.4649 -0.0986
 9479TIP3   OH249927   6.347   0.171  13.850  0.1197  0.1054  0.1130
 9479TIP3    H149928   6.341   0.191  13.943 -0.2827 -0.6072  0.2452
 9479TIP3    H249929   6.270   0.117  13.831  1.0219 -1.0784 -0.2888
 9480TIP3   OH249930   4.481   2.274   4.928  0.4192  0.2590 -0.1151
 9480TIP3    H149931   4.428   2.321   4.863 -1.4678  1.7447  2.3067
 9480TIP3    H249932   4.418   2.216   4.971  1.6168 -0.6757  0.4058
 9481TIP3   OH249933   5.375   5.740   0.374  0.0472  0.1235 -0.6792
 9481TIP3    H149934   5.304   5.803   0.365  0.6460  0.7256 -1.2375
 9481TIP3    H249935   5.444   5.772   0.317  0.6846 -0.5877 -0.3330
 9482TIP3   OH249936   4.450   1.147  13.823 -0.0513  0.1742  0.5565
 9482TIP3    H149937   4.431   1.076  13.885 -0.5943  0.7924  1.1181
 9482TIP3    H249938   4.532   1.185  13.855  0.6170 -0.6368 -0.1593
 9483TIP3   OH249939   0.385   6.103   4.378  0.4181  0.1493 -0.2687
 9483TIP3    H149940   0.442   6.106   4.455  1.3140  2.4208 -0.9499
 9483TIP3    H249941   0.446   6.105   4.304 -0.4375 -1.7592 -1.0867
 9484TIP3   OH249942   4.244   0.769   1.471 -0.1981  0.6662  0.0838
 9484TIP3    H149943   4.314   0.703   1.463 -1.0188 -0.1714 -0.4024
 9484TIP3    H249944   4.284   0.849   1.437  0.1205 -0.1221 -1.5374
 9485TIP3   OH249945   6.130   3.494  15.804  0.0065  0.3080 -0.0208
 9485TIP3    H149946   6.159   3.435  15.873  0.8598  0.6895 -0.0427
 9485TIP3    H249947   6.147   3.446  15.723  1.2280  0.7888 -0.0656
 9486TIP3   OH249948   5.599   0.499   5.827 -0.6991  0.6521  0.1248
 9486TIP3    H149949   5.503   0.496   5.832 -0.6571  0.3854  0.9169
 9486TIP3    H249950   5.628   0.459   5.909  0.1012 -1.0124 -0.9139
 9487TIP3   OH249951   5.762   4.824  15.325 -0.2850  0.2909 -0.2477
 9487TIP3    H149952   5.670   4.815  15.299 -0.2397 -1.0257 -0.0370
 9487TIP3    H249953   5.759   4.874  15.407 -0.6214  2.1609 -1.3579
 9488TIP3   OH249954   6.267   5.181   4.973  0.4037  0.0716  0.0468
 9488TIP3    H149955   6.184   5.143   5.001 -0.0618  2.1932  1.8443
 9488TIP3    H249956   6.267   5.174   4.878 -0.2224 -3.0504  0.1745
 9489TIP3   OH249957   5.465   3.938  14.976  0.0156  0.0088  0.6412
 9489TIP3    H149958   5.555   3.945  15.009 -0.4778  0.7542  1.9082
 9489TIP3    H249959   5.439   3.848  14.998  0.0779  0.1475  1.3170
 9490TIP3   OH249960   4.835   2.536  13.327 -0.2321 -0.0644  0.0089
 9490TIP3    H149961   4.927   2.551  13.344 -0.1433 -0.8234  0.2344
 9490TIP3    H249962   4.824   2.557  13.234 -0.8649  4.7590  0.9127
 9491TIP3   OH249963   1.116   6.677   6.372  0.0213 -0.6209 -0.0879
 9491TIP3    H149964   1.139   6.586   6.390 -2.4458 -1.2882  0.0886
 9491TIP3    H249965   1.021   6.681   6.388 -0.0511  1.8204 -0.7544
 9492TIP3   OH249966   2.427   0.238  16.263  0.4434 -0.4952 -0.1365
 9492TIP3    H149967   2.365   0.175  16.302  0.6713  0.3721  1.7603
 9492TIP3    H249968   2.376   0.319  16.257  0.8946 -0.2152 -0.1559
 9493TIP3   OH249969   3.891   4.224  14.492  0.0724 -0.6998  0.5228
 9493TIP3    H149970   3.831   4.245  14.564  0.0151  1.4881 -0.0666
 9493TIP3    H249971   3.841   4.243  14.413  1.7713  2.4578  0.0076
 9494TIP3   OH249972   1.991   6.832   1.015  1.0801  0.0400 -0.3517
 9494TIP3    H149973   1.952   6.900   1.071 -1.7077  0.7349 -2.8284
 9494TIP3    H249974   2.066   6.875   0.974  2.4250 -0.1045  1.8477
 9495TIP3   OH249975   0.274   3.285  12.056 -0.5498 -0.5686  0.3774
 9495TIP3    H149976   0.358   3.312  12.021 -0.6200  0.0501  0.6701
 9495TIP3    H249977   0.285   3.192  12.076  0.4540 -0.2274  1.5311
 9496TIP3   OH249978   2.505   1.980  16.507 -0.1439  0.3128  0.3278
 9496TIP3    H149979   2.521   1.973  16.413 -1.7459  1.2622 -0.0457
 9496TIP3    H249980   2.450   1.906  16.528  0.6511 -0.2029  0.6489
 9497TIP3   OH249981   1.702   2.379  15.462  0.9054  0.0376 -0.3440
 9497TIP3    H149982   1.678   2.451  15.521  2.5195 -0.4024  0.9326
 9497TIP3    H249983   1.619   2.336  15.442  0.2739  0.2930  1.5244
 9498TIP3   OH249984   5.186   0.753   1.878 -0.0460  0.6513  0.0828
 9498TIP3    H149985   5.196   0.820   1.809 -1.3473  0.4650 -0.3139
 9498TIP3    H249986   5.103   0.774   1.920  0.1674  0.0497  0.8245
 9499TIP3   OH249987   0.714   4.369  13.437  0.1997 -0.1813  0.0017
 9499TIP3    H149988   0.665   4.349  13.517  0.4561 -3.6660 -0.5437
 9499TIP3    H249989   0.780   4.432  13.464 -2.2664  1.9640  1.5356
 9500TIP3   OH249990   1.202   0.309   1.567 -0.4235  0.4353  0.4111
 9500TIP3    H149991   1.108   0.291   1.569 -0.8978  2.5628  0.0588
 9500TIP3    H249992   1.214   0.384   1.626  0.4849  2.2650 -1.9169
 9501TIP3   OH249993   5.356   6.514  11.780 -0.7398 -0.0320  0.4048
 9501TIP3    H149994   5.391   6.560  11.856  0.2813 -0.7846  0.4166
 9501TIP3    H249995   5.386   6.566  11.705  0.1580 -0.5007  0.4296
 9502TIP3   OH249996   1.691   3.434  11.197 -0.2640 -0.1572  0.3095
 9502TIP3    H149997   1.691   3.447  11.292  0.9577  0.3926  0.2480
 9502TIP3    H249998   1.783   3.425  11.174 -0.4388  1.1581 -1.0259
 9503TIP3   OH249999   2.533   2.918   0.881 -0.3613  0.3808 -0.9074
 9503TIP3    H150000   2.574   2.835   0.906 -0.7631  0.3593 -0.3097
 9503TIP3    H250001   2.439   2.902   0.888 -0.4931  1.8269  2.5760
 9504TIP3   OH250002   4.627   1.531  16.576  0.2578 -0.3369  0.2621
 9504TIP3    H150003   4.645   1.608  16.629 -0.0104 -0.4575  0.5322
 9504TIP3    H250004   4.606   1.462  16.639  0.6051 -0.6651  0.0294
 9505TIP3   OH250005   1.164   6.343   2.351 -0.5493 -0.2252  0.5475
 9505TIP3    H150006   1.122   6.297   2.278 -0.0390 -0.8114  0.6176
 9505TIP3    H250007   1.255   6.315   2.348  0.0896  1.7986 -0.2165
 9506TIP3   OH250008   5.254   0.732   5.800  0.4053 -0.3007 -0.7507
 9506TIP3    H150009   5.253   0.718   5.895 -1.0985  0.0871 -0.6813
 9506TIP3    H250010   5.254   0.828   5.791 -0.9089 -0.3183 -1.1130
 9507TIP3   OH250011   1.037   5.358   4.925 -0.3667  0.1894 -0.7132
 9507TIP3    H150012   1.125   5.351   4.887 -0.6157  0.9896 -1.4602
 9507TIP3    H250013   1.013   5.450   4.913 -0.4642  0.5048  1.3917
 9508TIP3   OH250014   5.320   6.368  15.399 -0.0372  0.0484  0.1436
 9508TIP3    H150015   5.304   6.294  15.456 -0.5696  0.3459  0.3871
 9508TIP3    H250016   5.287   6.340  15.313 -2.4817  0.8369  0.7464
 9509TIP3   OH250017   4.001   2.748  13.206 -0.0901  0.9969 -0.2546
 9509TIP3    H150018   4.090   2.765  13.237 -0.2030  1.7955 -0.3444
 9509TIP3    H250019   3.985   2.816  13.140 -0.0400 -0.3616 -1.7279
 9510TIP3   OH250020   3.150   2.563   4.400  0.2512  0.3903  0.0715
 9510TIP3    H150021   3.155   2.625   4.472 -0.1022  0.2688  0.1995
 9510TIP3    H250022   3.110   2.612   4.328 -1.1297 -0.0208  0.5366
 9511TIP3   OH250023   1.646   1.399  12.027 -0.2617  0.2964 -0.0269
 9511TIP3    H150024   1.684   1.395  11.939  1.7593  1.5471  0.6960
 9511TIP3    H250025   1.692   1.473  12.069 -2.6977  1.1200  1.3863
 9512TIP3   OH250026   2.032   6.421  12.924 -0.1154 -0.0700 -0.3440
 9512TIP3    H150027   2.073   6.490  12.871 -0.5527 -0.2589 -0.9413
 9512TIP3    H250028   2.016   6.350  12.862 -1.3190 -0.0098 -0.1209
 9513TIP3   OH250029   0.870   5.264  11.322  0.4881  0.2754 -0.3678
 9513TIP3    H150030   0.936   5.208  11.363 -0.4931 -1.5839 -1.2074
 9513TIP3    H250031   0.894   5.265  11.229  1.5999  2.8986 -0.1422
 9514TIP3   OH250032   3.149   0.429   5.286  0.6766 -0.5292 -0.1380
 9514TIP3    H150033   3.094   0.356   5.255  0.9977 -1.2743  1.0056
 9514TIP3    H250034   3.225   0.428   5.227 -0.3449  0.3206 -1.5443
 9515TIP3   OH250035   2.119   4.336  12.236  0.5982 -0.4229  0.0839
 9515TIP3    H150036   2.114   4.396  12.311  1.2482  0.4235 -0.5213
 9515TIP3    H250037   2.162   4.258  12.271 -1.2396 -1.0131  1.1509
 9516TIP3   OH250038   0.346   4.312   3.653  0.5447 -0.2038  0.3558
 9516TIP3    H150039   0.392   4.335   3.734  0.0951 -0.4500  0.6831
 9516TIP3    H250040   0.396   4.238   3.619 -1.3999 -2.6520  2.3960
 9517TIP3   OH250041   2.597   6.176   5.228  0.5674  0.3748 -0.6810
 9517TIP3    H150042   2.541   6.151   5.301  1.2384  0.6468 -0.0706
 9517TIP3    H250043   2.572   6.116   5.157  0.9526 -0.8837  0.2247
 9518TIP3   OH250044   2.473   4.566  13.796 -0.4066 -1.1213 -0.2308
 9518TIP3    H150045   2.445   4.487  13.842  0.1079 -1.6989 -0.8936
 9518TIP3    H250046   2.490   4.537  13.707  0.0860 -0.3253 -0.4051
 9519TIP3   OH250047   4.451   5.388   3.373  0.1983 -0.0837  0.0453
 9519TIP3    H150048   4.468   5.442   3.450 -0.1905 -1.2198  0.9541
 9519TIP3    H250049   4.400   5.314   3.406  1.1639 -1.2871 -1.0544
 9520TIP3   OH250050   3.471   2.899  12.912 -0.3031 -0.4769 -0.0311
 9520TIP3    H150051   3.417   2.953  12.970  0.8373 -0.7221  1.3286
 9520TIP3    H250052   3.449   2.809  12.937  0.0790 -0.5873 -0.0970
 9521TIP3   OH250053   1.011   0.750   3.211 -0.1457  0.2159  0.3784
 9521TIP3    H150054   1.074   0.782   3.275  2.4364 -0.8656 -1.4779
 9521TIP3    H250055   1.040   0.787   3.128 -1.1322 -1.4339 -0.7620
 9522TIP3   OH250056   4.411   1.461  13.063 -0.3299  0.1233 -0.0413
 9522TIP3    H150057   4.396   1.416  12.980 -1.9979  0.7947 -0.1559
 9522TIP3    H250058   4.335   1.519  13.073 -0.8614 -0.8680  2.5777
 9523TIP3   OH250059   4.098   0.692  12.742  0.2653 -0.0856  0.1731
 9523TIP3    H150060   4.143   0.752  12.684 -0.2091  0.6892  0.5896
 9523TIP3    H250061   4.006   0.715  12.735  0.2425  0.4168  1.6378
 9524TIP3   OH250062   5.379   4.497   2.997  0.1606 -0.6427 -0.2438
 9524TIP3    H150063   5.440   4.423   3.003  0.0519 -0.8744 -1.6349
 9524TIP3    H250064   5.349   4.510   3.086  1.5144 -1.1504  0.3181
 9525TIP3   OH250065   2.501   5.838  16.209  0.1525  0.4531 -0.0370
 9525TIP3    H150066   2.514   5.759  16.158 -0.7012  0.3765 -0.1466
 9525TIP3    H250067   2.408   5.860  16.198  0.2077  1.0593  0.5738
 9526TIP3   OH250068   0.578   0.870   3.047  0.8340 -0.2367 -0.0140
 9526TIP3    H150069   0.618   0.956   3.058  1.8113 -0.9276  2.7265
 9526TIP3    H250070   0.635   0.824   2.985  1.5147  0.3952  0.1347
 9527TIP3   OH250071   0.648   2.045   1.383 -0.2592 -0.2365  0.5426
 9527TIP3    H150072   0.637   2.079   1.472  0.1512 -1.5495  1.1232
 9527TIP3    H250073   0.721   1.984   1.390 -0.5093 -0.6802 -0.6073
 9528TIP3   OH250074   6.301   3.362  12.623  0.2284  0.6477  0.3598
 9528TIP3    H150075   6.221   3.345  12.671 -1.9038  1.8226 -2.4664
 9528TIP3    H250076   6.283   3.330  12.534  2.7487  1.3056 -0.4757
 9529TIP3   OH250077   5.903   1.377   5.963 -0.3168  0.1093  0.2230
 9529TIP3    H150078   5.930   1.434   6.034 -0.2463 -1.0861  1.1940
 9529TIP3    H250079   5.824   1.333   5.995  1.4644 -2.8617  0.9811
 9530TIP3   OH250080   4.620   0.917  14.211  0.4176  0.3685 -0.3422
 9530TIP3    H150081   4.555   0.905  14.280  1.0403 -0.2343  0.1507
 9530TIP3    H250082   4.704   0.922  14.258  0.7444  0.9677 -0.9804
 9531TIP3   OH250083   5.115   6.554   6.703 -0.6170  0.3508 -0.4131
 9531TIP3    H150084   5.195   6.579   6.749  0.2054  0.6080 -1.9078
 9531TIP3    H250085   5.072   6.637   6.684 -0.3090  0.3420 -1.1862
 9532TIP3   OH250086   5.922   1.379  16.143 -0.1676  0.1144  0.3528
 9532TIP3    H150087   5.845   1.336  16.106  0.3241  0.1276 -0.7200
 9532TIP3    H250088   5.933   1.339  16.229 -0.2766 -1.2257 -0.2294
 9533TIP3   OH250089   0.143   5.325  15.415 -0.0787 -0.1696  0.1584
 9533TIP3    H150090   0.158   5.416  15.390 -0.3333 -0.1262  0.1526
 9533TIP3    H250091   0.053   5.325  15.449  0.0252 -0.3587  0.4371
 9534TIP3   OH250092   0.403   3.403  11.465 -0.4538 -0.1422 -0.2680
 9534TIP3    H150093   0.309   3.394  11.450 -0.1592 -1.6413 -1.4898
 9534TIP3    H250094   0.443   3.363  11.387  1.1883  0.7321  0.1017
 9535TIP3   OH250095   1.963   4.849   2.016  0.8230  0.2774  0.1307
 9535TIP3    H150096   1.933   4.759   2.033 -1.6111  0.6772 -1.6787
 9535TIP3    H250097   1.999   4.846   1.928  0.9991  1.0269  0.1704
 9536TIP3   OH250098   5.675   3.513  11.632 -0.1182  0.1556  0.6115
 9536TIP3    H150099   5.700   3.592  11.582  0.9130  0.0040  0.8614
 9536TIP3    H250100   5.598   3.479  11.586 -1.7511  2.3262  1.5722
 9537TIP3   OH250101   3.686   5.726  14.242  0.1233 -1.2365  0.1022
 9537TIP3    H150102   3.751   5.727  14.171  0.8117  0.1566  0.7101
 9537TIP3    H250103   3.641   5.811  14.233  1.2348 -0.3611  2.1975
 9538TIP3   OH250104   0.022   2.431   1.856  0.1552 -0.6252 -0.1954
 9538TIP3    H150105   0.090   2.363   1.852  0.3440 -0.5258  0.9365
 9538TIP3    H250106  -0.059   2.385   1.836  0.2445 -1.2529  0.8272
 9539TIP3   OH250107   1.316   5.893  11.652  0.0081  0.4182 -0.1337
 9539TIP3    H150108   1.327   5.881  11.558  1.3474  1.7992 -0.1893
 9539TIP3    H250109   1.257   5.968  11.660 -2.4050 -1.3589  0.1995
 9540TIP3   OH250110   3.922   0.160   5.464 -0.3746  0.0174  0.4594
 9540TIP3    H150111   3.942   0.251   5.443 -0.0458 -0.1355  0.0926
 9540TIP3    H250112   3.889   0.163   5.553 -0.0165  0.4524  0.5840
 9541TIP3   OH250113   0.981   5.744  16.903 -0.2816 -0.3120  0.4785
 9541TIP3    H150114   1.045   5.800  16.946  0.0737 -0.5113  0.2149
 9541TIP3    H250115   1.022   5.657  16.901 -0.5723 -0.4486  0.3400
 9542TIP3   OH250116   4.362   1.152  16.974  0.4192  0.4914  0.2697
 9542TIP3    H150117   4.315   1.212  17.031  0.1417  1.3120 -0.7917
 9542TIP3    H250118   4.408   1.209  16.911  0.4276 -0.3875 -0.5425
 9543TIP3   OH250119   5.066   3.556  15.123 -0.3652 -0.3660  0.3463
 9543TIP3    H150120   5.106   3.473  15.150  0.7956  0.6175  1.8344
 9543TIP3    H250121   5.138   3.606  15.085 -1.3978 -0.6106 -2.0781
 9544TIP3   OH250122   0.310   5.480   6.424  0.1162  0.2914  0.6839
 9544TIP3    H150123   0.404   5.470   6.417  0.3139  1.5486  1.2493
 9544TIP3    H250124   0.295   5.505   6.515 -0.6374  1.1777  0.3372
 9545TIP3   OH250125   5.133   1.943   0.061  0.7838 -0.2563 -0.0531
 9545TIP3    H150126   5.055   1.973   0.013  0.6630  1.8918  1.3527
 9545TIP3    H250127   5.181   1.890  -0.003 -1.8079 -1.7033 -0.9607
 9546TIP3   OH250128   6.750   4.896  12.819  0.4721  0.1171 -0.6479
 9546TIP3    H150129   6.730   4.974  12.871  0.2833 -0.0363 -0.4905
 9546TIP3    H250130   6.665   4.855  12.804  0.7015 -0.7405  0.3389
 9547TIP3   OH250131   2.744   4.541   4.408 -0.4528 -0.1817 -0.0940
 9547TIP3    H150132   2.703   4.457   4.429 -0.0652  0.0479  1.7810
 9547TIP3    H250133   2.753   4.541   4.313 -3.1260 -0.9967 -0.4133
 9548TIP3   OH250134   5.931   2.191  15.913 -0.1426 -0.1751 -0.6027
 9548TIP3    H150135   5.946   2.131  15.986  0.4364 -0.1557 -0.7017
 9548TIP3    H250136   6.017   2.206  15.876 -0.4258 -0.1180 -1.2480
 9549TIP3   OH250137   1.025   6.529  11.970 -0.1226 -0.4522 -0.0805
 9549TIP3    H150138   1.004   6.584  11.895 -2.2687 -0.5506  0.3942
 9549TIP3    H250139   0.996   6.441  11.945 -0.7938 -0.4963  0.8252
 9550TIP3   OH250140   0.919   6.205  15.256  0.1021  0.3017  0.4107
 9550TIP3    H150141   0.902   6.126  15.205 -1.6685 -0.0844  1.4986
 9550TIP3    H250142   0.953   6.268  15.193  2.2281 -1.4907 -0.3685
 9551TIP3   OH250143   1.904   1.697  12.793  0.1321  0.1304  0.5674
 9551TIP3    H150144   1.971   1.631  12.775  1.3841  1.5427 -0.2067
 9551TIP3    H250145   1.925   1.730  12.880 -0.2061 -0.1847  0.7647
 9552TIP3   OH250146   5.692   6.703   5.125 -0.3251  0.2599  0.6150
 9552TIP3    H150147   5.675   6.691   5.218 -1.1871  0.7871  0.5378
 9552TIP3    H250148   5.679   6.616   5.086 -1.9318  0.4217  0.7158
 9553TIP3   OH250149   1.349   6.801   4.150 -0.7436  0.6433  0.0851
 9553TIP3    H150150   1.254   6.805   4.155 -0.8451  1.4589 -1.6864
 9553TIP3    H250151   1.377   6.892   4.158 -0.1227  0.4337  0.3399
 9554TIP3   OH250152   2.200   2.894  14.708  0.1246 -0.3433 -0.5524
 9554TIP3    H150153   2.205   2.805  14.673 -1.5893  0.1258 -2.1211
 9554TIP3    H250154   2.132   2.937  14.656  1.2999  2.0795 -0.1976
 9555TIP3   OH250155   5.266   1.946   5.697  0.6340 -0.0385 -0.2200
 9555TIP3    H150156   5.319   1.916   5.771  0.1028 -1.1566 -0.2745
 9555TIP3    H250157   5.293   1.891   5.624 -0.0617 -0.1262 -0.4248
 9556TIP3   OH250158   1.349   0.714   4.177  0.1794  0.1065  0.4933
 9556TIP3    H150159   1.296   0.720   4.256 -1.0982  0.1523 -0.3492
 9556TIP3    H250160   1.316   0.784   4.120  0.5565 -0.4232 -0.3966
 9557TIP3   OH250161   3.442   3.064  13.212 -0.1108  0.3120 -0.4844
 9557TIP3    H150162   3.377   3.125  13.178 -0.0796 -0.5465 -2.2088
 9557TIP3    H250163   3.399   2.978  13.207  0.2127  0.0504  0.9060
 9558TIP3   OH250164   6.047   3.167  10.133 -0.1867  0.0520 -0.2667
 9558TIP3    H150165   6.073   3.251  10.171 -0.1584 -0.0145 -0.1380
 9558TIP3    H250166   6.107   3.154  10.060 -0.7275  0.5474 -0.8100
 9559TIP3   OH250167   5.431   0.773  15.668 -0.5631 -0.5570 -0.2239
 9559TIP3    H150168   5.477   0.818  15.739  0.6836  0.9192 -1.9011
 9559TIP3    H250169   5.465   0.683  15.671 -0.7642 -0.6166  1.2001
 9560TIP3   OH250170   1.608   5.909  13.329  0.0695  0.7442  0.6927
 9560TIP3    H150171   1.617   5.905  13.234 -1.9425 -0.8651  0.5058
 9560TIP3    H250172   1.551   5.985  13.345  0.1887  0.8530  0.6056
 9561TIP3   OH250173   4.363   6.221  10.654  0.3905  0.6179  0.4203
 9561TIP3    H150174   4.316   6.304  10.644  0.1967  0.2529 -2.6354
 9561TIP3    H250175   4.438   6.229  10.595  1.5944 -0.5921  1.7075
 9562TIP3   OH250176   3.428   4.010   2.414 -0.1591  0.5876  0.3807
 9562TIP3    H150177   3.410   4.104   2.413 -0.2153  0.5916 -1.6923
 9562TIP3    H250178   3.477   3.993   2.333  1.8690 -0.8173  1.8021
 9563TIP3   OH250179   2.345   2.243  10.543 -0.2649 -0.4798  0.2957
 9563TIP3    H150180   2.395   2.168  10.575  1.6015  0.4760 -0.2547
 9563TIP3    H250181   2.314   2.287  10.621 -0.5482 -1.2778  0.6409
 9564TIP3   OH250182   4.431   6.738   1.402  0.4418 -0.3257 -0.1277
 9564TIP3    H150183   4.508   6.757   1.456  0.5001 -1.1218  0.0838
 9564TIP3    H250184   4.418   6.818   1.350 -0.5054  1.0655  2.0844
 9565TIP3   OH250185   6.605   5.514   2.059  0.1545 -0.6477  0.0467
 9565TIP3    H150186   6.681   5.487   2.008 -0.6837 -0.5241 -1.3181
 9565TIP3    H250187   6.568   5.432   2.092  0.3329 -0.7873 -0.0965
 9566TIP3   OH250188   4.506   2.796  13.740  0.5481  0.3313  0.2623
 9566TIP3    H150189   4.466   2.778  13.826  0.6899  0.3762  0.3381
 9566TIP3    H250190   4.576   2.732  13.733 -0.8539 -1.1673 -0.7852
 9567TIP3   OH250191   5.658   0.636  14.487 -0.3705  0.3819  0.1169
 9567TIP3    H150192   5.750   0.648  14.463  0.2564 -2.5172  0.6671
 9567TIP3    H250193   5.656   0.652  14.581  0.5173 -3.1259  0.9016
 9568TIP3   OH250194   6.102   0.625  14.738  0.0193 -0.3764 -0.0126
 9568TIP3    H150195   6.015   0.646  14.772  1.3744  2.6004  2.0201
 9568TIP3    H250196   6.101   0.658  14.648 -0.3698  1.5725  0.6527
 9569TIP3   OH250197   1.004   5.665  14.589 -0.2010 -0.2456  0.1959
 9569TIP3    H150198   1.083   5.684  14.639  0.1278 -0.6371 -0.1674
 9569TIP3    H250199   0.932   5.683  14.649  0.2002 -2.5033  1.4415
 9570TIP3   OH250200   1.414   3.595  11.689  0.2418 -0.1577 -0.4047
 9570TIP3    H150201   1.361   3.601  11.610 -1.2968  1.6647  0.6808
 9570TIP3    H250202   1.361   3.543  11.750  0.9680 -0.7023 -0.2168
 9571TIP3   OH250203   4.443   3.610   2.225 -0.3409  0.2130  0.0852
 9571TIP3    H150204   4.374   3.655   2.176 -0.0484 -0.5526 -1.0745
 9571TIP3    H250205   4.503   3.579   2.158  0.0630 -0.8897  0.9351
 9572TIP3   OH250206   4.837   0.548  15.346 -0.1452  0.0549  0.2095
 9572TIP3    H150207   4.808   0.466  15.305 -1.7792  0.1680  1.0159
 9572TIP3    H250208   4.840   0.527  15.439  1.2546  0.4212  0.2551
 9573TIP3   OH250209   3.967   1.864  12.115 -0.6561  0.1809  0.2341
 9573TIP3    H150210   3.888   1.864  12.169 -0.1393  1.0614  0.9947
 9573TIP3    H250211   3.982   1.771  12.096 -3.2250  0.0695 -1.9707
 9574TIP3   OH250212   3.808   5.851   2.259  0.0110 -0.9054  0.1081
 9574TIP3    H150213   3.899   5.823   2.248 -0.1686 -0.7467 -2.2871
 9574TIP3    H250214   3.814   5.935   2.304  0.9026 -1.7116  1.5830
 9575TIP3   OH250215   3.613   6.833  13.109 -0.3756 -0.0998 -0.3182
 9575TIP3    H150216   3.609   6.776  13.186 -0.0418 -0.0855 -0.2878
 9575TIP3    H250217   3.548   6.901  13.126  0.5484  0.6003  0.5240
 9576TIP3   OH250218   0.309   3.490   3.959 -0.0211  0.0269 -0.6139
 9576TIP3    H150219   0.217   3.515   3.960  0.2983  1.2339  0.1693
 9576TIP3    H250220   0.352   3.558   3.907  0.4411 -0.5710 -1.0407
 9577TIP3   OH250221   4.233   1.716   2.641 -0.4202 -0.4429 -0.0005
 9577TIP3    H150222   4.319   1.757   2.630 -0.9249  2.2819  3.9383
 9577TIP3    H250223   4.249   1.642   2.698 -0.7288  1.1062  2.2277
 9578TIP3   OH250224   3.245   0.576  16.320 -0.0605 -0.6934  0.4199
 9578TIP3    H150225   3.251   0.578  16.415 -1.9435  2.1003  0.5977
 9578TIP3    H250226   3.307   0.643  16.291  1.1857 -2.1577 -0.4549
 9579TIP3   OH250227   3.263   5.731  11.509  0.2856 -0.5578  0.5796
 9579TIP3    H150228   3.270   5.814  11.462 -0.6967 -1.2856 -0.9343
 9579TIP3    H250229   3.263   5.756  11.602  2.7146  0.8742  0.2719
 9580TIP3   OH250230   6.148   0.440   3.680 -0.7409  0.0226  0.8768
 9580TIP3    H150231   6.154   0.516   3.738  0.1851 -0.1728  1.0492
 9580TIP3    H250232   6.091   0.469   3.609 -0.7187  0.7508  1.1471
 9581TIP3   OH250233   2.050   1.944   4.403 -0.4179 -0.7027  0.3774
 9581TIP3    H150234   2.003   2.027   4.408 -0.9401 -1.0366  1.2517
 9581TIP3    H250235   1.995   1.888   4.348 -1.9407 -1.6215  2.6906
 9582TIP3   OH250236   0.202   5.730   4.318  0.3748  0.3810 -0.5148
 9582TIP3    H150237   0.141   5.730   4.244  1.5105 -0.5481 -1.5002
 9582TIP3    H250238   0.287   5.750   4.278  1.0140 -0.1533  0.5400
 9583TIP3   OH250239   2.731   5.275  11.599 -0.5726 -0.0286  0.0217
 9583TIP3    H150240   2.768   5.364  11.598  4.4001 -1.7382 -3.1116
 9583TIP3    H250241   2.746   5.244  11.689 -1.9333  2.0003  1.0327
 9584TIP3   OH250242   5.230   2.703  12.357  0.2889 -0.6524 -0.2833
 9584TIP3    H150243   5.211   2.790  12.392 -0.6252  0.1168 -2.5434
 9584TIP3    H250244   5.303   2.717  12.296 -0.6803 -1.2238 -1.6133
 9585TIP3   OH250245   2.624   5.548  13.297  0.1273 -0.3481 -0.4974
 9585TIP3    H150246   2.715   5.518  13.292 -0.7655 -3.3941 -0.4826
 9585TIP3    H250247   2.602   5.539  13.390 -1.1494 -3.0684 -0.9871
 9586TIP3   OH250248   1.471   3.686   3.365  0.2337 -0.4334 -0.5233
 9586TIP3    H150249   1.447   3.636   3.287 -1.3240 -0.3276 -0.1456
 9586TIP3    H250250   1.462   3.625   3.437  0.5351 -0.2127 -0.2938
 9587TIP3   OH250251   0.998   1.805   0.876 -0.1516 -0.6984 -0.4912
 9587TIP3    H150252   0.928   1.855   0.918 -0.1732 -1.2531  0.1534
 9587TIP3    H250253   1.075   1.822   0.929 -0.0366 -0.9111 -0.5884
 9588TIP3   OH250254   5.145   5.323   3.121  0.1854 -0.1014 -0.0291
 9588TIP3    H150255   5.070   5.311   3.179  0.5405 -1.9997  0.0964
 9588TIP3    H250256   5.200   5.246   3.137  0.5260 -0.4449 -2.5339
 9589TIP3   OH250257   1.597   3.432   1.327  0.2861  0.1803  0.0395
 9589TIP3    H150258   1.605   3.459   1.235 -1.1256  1.5980  0.2915
 9589TIP3    H250259   1.578   3.513   1.374 -0.3420 -0.7250  1.3977
 9590TIP3   OH250260   2.942   3.060  13.474  0.1750  0.0527  0.1059
 9590TIP3    H150261   3.029   3.100  13.480  0.5161 -0.5643 -0.4778
 9590TIP3    H250262   2.926   3.051  13.380  0.7211 -2.3903  0.1692
 9591TIP3   OH250263   0.610   5.930   5.332  0.6124  0.0226  0.4393
 9591TIP3    H150264   0.705   5.930   5.332  0.6454  1.2738 -0.8176
 9591TIP3    H250265   0.586   5.913   5.241 -0.3321  0.8955  0.5076
 9592TIP3   OH250266   5.263   5.647  10.856 -0.5172  0.1686  0.0550
 9592TIP3    H150267   5.251   5.580  10.923  0.2513 -0.6409 -0.6169
 9592TIP3    H250268   5.191   5.633  10.795 -0.6925  0.3430  0.2154
 9593TIP3   OH250269   5.651   5.779   3.853 -0.2638  0.3360 -0.9169
 9593TIP3    H150270   5.692   5.695   3.874  0.0081  0.7076  0.1183
 9593TIP3    H250271   5.559   5.767   3.879  0.3269  1.2073  1.8981
 9594TIP3   OH250272   1.494   3.978  13.483 -0.1519  0.7030 -0.4580
 9594TIP3    H150273   1.582   3.973  13.444  0.0781 -2.3417  0.2192
 9594TIP3    H250274   1.510   3.983  13.577 -0.7637  2.0613 -0.3939
 9595TIP3   OH250275   5.097   4.767  15.378 -0.1815  0.1362 -0.1555
 9595TIP3    H150276   5.191   4.747  15.383 -0.2119 -0.3423 -1.3639
 9595TIP3    H250277   5.066   4.756  15.468  1.1412  1.4443  0.5097
 9596TIP3   OH250278   2.468   0.736   3.664  0.0492 -0.4415 -0.0360
 9596TIP3    H150279   2.548   0.684   3.670 -0.7338 -1.5632  1.2006
 9596TIP3    H250280   2.491   0.809   3.606  1.4394 -1.6531 -1.0726
 9597TIP3   OH250281   1.304   1.976   6.335  0.0831  0.3558  0.0575
 9597TIP3    H150282   1.276   2.065   6.316 -0.1614  0.4265  0.7152
 9597TIP3    H250283   1.398   1.983   6.352  0.3107  0.2865 -1.0996
 9598TIP3   OH250284   2.250   5.994  13.491 -0.0027 -0.2088  0.2239
 9598TIP3    H150285   2.260   5.921  13.429 -2.2583  0.0636 -0.5389
 9598TIP3    H250286   2.287   6.069  13.444 -1.2079 -0.1133 -0.6147
 9599TIP3   OH250287   6.519   3.806  14.836  0.2069 -0.3981  0.5343
 9599TIP3    H150288   6.428   3.801  14.807 -0.2481  2.6879  1.0751
 9599TIP3    H250289   6.568   3.757  14.770 -1.4691  1.0372 -1.9515
 9600TIP3   OH250290   3.362   3.610   0.880  0.5788 -0.0220  0.4496
 9600TIP3    H150291   3.349   3.647   0.793  0.4117 -0.9662  0.0593
 9600TIP3    H250292   3.389   3.684   0.934 -0.4382  0.8054 -0.1306
 9601TIP3   OH250293   6.814   0.786  11.725 -0.2796 -0.0266  0.1111
 9601TIP3    H150294   6.784   0.818  11.640 -0.9562  0.4198  0.5128
 9601TIP3    H250295   6.741   0.734  11.758  0.3727 -1.0537 -0.0212
 9602TIP3   OH250296   6.777   4.852   1.201  0.2375  0.1889 -0.1425
 9602TIP3    H150297   6.744   4.917   1.138 -0.2586 -0.2850 -0.3881
 9602TIP3    H250298   6.823   4.904   1.267 -2.3230  1.1050  1.0918
 9603TIP3   OH250299   6.522   5.418   1.321  0.2560 -0.0395 -0.3915
 9603TIP3    H150300   6.428   5.406   1.336  0.3195  0.0121  0.0648
 9603TIP3    H250301   6.535   5.513   1.325  0.4095 -0.0794  0.0592
 9604TIP3   OH250302   4.315   1.457  13.620 -0.7094 -0.1188  0.4542
 9604TIP3    H150303   4.322   1.450  13.715 -1.1946  1.1286  0.6041
 9604TIP3    H250304   4.223   1.480  13.605 -0.5719 -0.0457 -0.2979
 9605TIP3   OH250305   2.374   1.145   4.744  0.8952 -0.0165 -0.5699
 9605TIP3    H150306   2.341   1.233   4.724 -1.0786 -0.8356 -1.1655
 9605TIP3    H250307   2.443   1.160   4.809 -0.0362  1.9086  0.0649
 9606TIP3   OH250308   4.838   0.654  14.061  0.2925 -0.3230  0.5227
 9606TIP3    H150309   4.926   0.619  14.074 -0.4489 -2.5926 -0.0735
 9606TIP3    H250310   4.805   0.671  14.149  0.8379 -0.8069  0.8265
 9607TIP3   OH250311   1.186   0.041   3.524  0.6446 -0.0641  0.4120
 9607TIP3    H150312   1.180  -0.031   3.586  1.3570 -0.2242  0.3059
 9607TIP3    H250313   1.279   0.045   3.500  0.8574  1.6720  1.3337
 9608TIP3   OH250314   4.855   3.304  16.449 -0.3757  0.6100 -0.4452
 9608TIP3    H150315   4.837   3.272  16.537  1.3080  0.0929 -0.2587
 9608TIP3    H250316   4.887   3.227  16.402  0.3492  1.2511 -1.0237
 9609TIP3   OH250317   3.033   0.902  16.625  0.3294 -0.2411  0.0728
 9609TIP3    H150318   3.037   0.981  16.571 -0.2902 -0.0744  0.2644
 9609TIP3    H250319   3.097   0.917  16.694  1.1214 -0.4470 -0.5934
 9610TIP3   OH250320   5.301   1.549   2.391  0.1934  0.4001 -0.0724
 9610TIP3    H150321   5.358   1.609   2.440  0.5802  0.4456 -0.5565
 9610TIP3    H250322   5.234   1.523   2.453  0.5090  0.6755  0.3952
 9611TIP3   OH250323   2.886   2.352  15.558 -0.1073 -0.5014  0.2841
 9611TIP3    H150324   2.866   2.318  15.471 -0.1539  0.4993 -0.1100
 9611TIP3    H250325   2.982   2.349  15.563  0.0341  1.2595 -0.5951
 9612TIP3   OH250326   1.177   4.644   5.095 -0.0700 -0.1872  0.9123
 9612TIP3    H150327   1.237   4.664   5.023 -0.5075  0.1365  0.6344
 9612TIP3    H250328   1.225   4.669   5.174 -0.2339  1.0723  0.6283
 9613TIP3   OH250329   3.656   2.672  12.765 -0.0282 -0.3137  0.5864
 9613TIP3    H150330   3.744   2.685  12.800 -0.2440 -0.2276  1.1087
 9613TIP3    H250331   3.657   2.716  12.681 -0.0037  0.9908  1.2448
 9614TIP3   OH250332   2.169   0.724  11.722 -0.7390 -0.0092 -0.4899
 9614TIP3    H150333   2.111   0.667  11.773  0.1299  0.3713  0.9976
 9614TIP3    H250334   2.223   0.664  11.671  0.4980 -0.6381  1.4131
 9615TIP3   OH250335   1.700   3.819  14.490 -0.2996  0.2981 -0.3887
 9615TIP3    H150336   1.736   3.746  14.440  0.2404  0.5680 -0.3965
 9615TIP3    H250337   1.704   3.791  14.581  1.0927  0.8049 -0.2710
 9616TIP3   OH250338   1.135   0.636  13.391 -0.0420 -0.5074  0.0467
 9616TIP3    H150339   1.109   0.560  13.445  0.4887 -0.8437 -0.1669
 9616TIP3    H250340   1.185   0.598  13.319  0.4211  0.0756  0.0608
 9617TIP3   OH250341   3.193   0.480  12.022  0.2877 -0.7819  0.2911
 9617TIP3    H150342   3.148   0.482  12.107 -0.6236 -2.7959 -0.0585
 9617TIP3    H250343   3.203   0.571  11.997 -1.5635 -0.1935  1.4936
 9618TIP3   OH250344   4.325   5.026  14.196  0.6657 -0.1392 -0.1580
 9618TIP3    H150345   4.323   5.002  14.289  0.0562 -0.7446 -0.3191
 9618TIP3    H250346   4.246   5.078  14.183 -0.5559 -2.0231 -0.8228
 9619TIP3   OH250347   6.158   4.139   6.458 -0.0393  0.4244 -0.2890
 9619TIP3    H150348   6.221   4.160   6.527 -0.5521  1.4930 -0.1191
 9619TIP3    H250349   6.208   4.088   6.394  0.6762  0.2112  0.4250
 9620TIP3   OH250350   6.363   3.805  11.757 -0.4632  0.4650  0.2261
 9620TIP3    H150351   6.453   3.815  11.726  0.4501  0.4581  2.6753
 9620TIP3    H250352   6.342   3.887  11.801 -0.9253 -0.2530  1.3923
 9621TIP3   OH250353   1.529   0.176   6.398 -0.5986 -0.0362  0.2885
 9621TIP3    H150354   1.461   0.233   6.362 -1.2137 -1.0669 -0.2444
 9621TIP3    H250355   1.503   0.162   6.490 -1.3041 -0.6769  0.0042
 9622TIP3   OH250356   0.095   2.786   1.153  0.3677 -0.1779  0.5673
 9622TIP3    H150357   0.189   2.800   1.139 -0.1502  0.9151 -2.7573
 9622TIP3    H250358   0.056   2.874   1.147 -1.0196 -0.7862  0.2253
 9623TIP3   OH250359   3.442   5.817   3.236  0.0914 -1.2791  0.0472
 9623TIP3    H150360   3.356   5.856   3.256  1.5996  4.1732 -2.0562
 9623TIP3    H250361   3.436   5.793   3.143  0.6369 -1.3162  0.0181
 9624TIP3   OH250362   0.714   0.181  11.604 -0.0537  0.1055 -0.1215
 9624TIP3    H150363   0.746   0.099  11.567  1.2290 -0.1136  1.3387
 9624TIP3    H250364   0.743   0.248  11.543  0.1063 -0.4029 -0.6165
 9625TIP3   OH250365   0.874   4.432  14.861  0.2512 -0.3312 -0.2356
 9625TIP3    H150366   0.837   4.454  14.776  0.7269 -0.0899 -0.3817
 9625TIP3    H250367   0.801   4.395  14.911  0.2211 -1.5497 -1.1381
 9626TIP3   OH250368   3.122   5.868  13.378  0.8798 -0.0354  0.9014
 9626TIP3    H150369   3.163   5.816  13.309 -1.1357 -0.6297  0.0857
 9626TIP3    H250370   3.133   5.958  13.349  0.5657 -0.2469  0.0888
 9627TIP3   OH250371   0.770   2.443  13.545 -0.5028  0.0910  0.1555
 9627TIP3    H150372   0.790   2.364  13.495  0.2262  0.8726 -0.8372
 9627TIP3    H250373   0.686   2.425  13.587 -0.9717 -0.7253 -1.0779
 9628TIP3   OH250374   4.655   3.497   3.761 -0.3874  0.2039 -0.7795
 9628TIP3    H150375   4.563   3.473   3.748 -1.3950  2.9954  0.2995
 9628TIP3    H250376   4.670   3.484   3.854  0.0765  0.4669 -0.8151
 9629TIP3   OH250377   0.501   0.930  11.001 -0.1669  0.4858 -0.2977
 9629TIP3    H150378   0.510   0.842  10.966 -1.4758  0.3990 -0.4723
 9629TIP3    H250379   0.441   0.921  11.075 -1.2937  1.3745 -1.0523
 9630TIP3   OH250380   1.121   3.929   5.998 -0.2121 -0.0659 -0.5114
 9630TIP3    H150381   1.137   4.013   6.042  0.1403 -0.3361 -0.1174
 9630TIP3    H250382   1.113   3.952   5.906 -0.8780  0.4999 -0.3274
 9631TIP3   OH250383   2.893   3.332   1.196  0.6858 -0.1785  0.0859
 9631TIP3    H150384   2.973   3.376   1.225  0.2609  1.8703 -1.6101
 9631TIP3    H250385   2.891   3.345   1.101 -0.3394 -2.5431 -0.3068
 9632TIP3   OH250386   2.481   2.502  14.730  0.3975  0.0534 -0.3197
 9632TIP3    H150387   2.554   2.556  14.699  0.5870 -0.2861 -0.4716
 9632TIP3    H250388   2.511   2.468  14.815 -0.1269  0.9956  0.2485
 9633TIP3   OH250389   1.172   2.452  12.955  0.3132 -0.4189 -0.7753
 9633TIP3    H150390   1.096   2.394  12.955  0.1488 -0.2001 -0.3428
 9633TIP3    H250391   1.180   2.482  13.045 -1.1134  2.2012 -1.4137
 9634TIP3   OH250392   0.918   3.182  13.339 -0.4693 -0.1434  0.2195
 9634TIP3    H150393   0.887   3.166  13.428 -2.7803  2.1279 -0.0536
 9634TIP3    H250394   0.851   3.144  13.282 -0.5906  1.0494 -0.4712
 9635TIP3   OH250395   6.703   1.220   0.179  0.0676  0.5071 -0.0836
 9635TIP3    H150396   6.679   1.294   0.235 -1.2788 -0.6205  0.8880
 9635TIP3    H250397   6.672   1.143   0.226  1.5306 -0.7130 -1.0225
 9636TIP3   OH250398   3.513   3.865   1.355  0.2492 -0.3846 -0.3437
 9636TIP3    H150399   3.514   3.932   1.424  2.1212 -0.0170 -0.6796
 9636TIP3    H250400   3.461   3.793   1.393  0.8911 -0.0299  1.2982
 9637TIP3   OH250401   6.373   4.721  13.143 -0.1114  0.2087  0.7586
 9637TIP3    H150402   6.443   4.678  13.094 -1.0378  0.9585 -1.3748
 9637TIP3    H250403   6.417   4.785  13.198  0.9456  0.0307  0.1394
 9638TIP3   OH250404   2.019   3.832   0.818 -0.3842 -0.0800  0.0826
 9638TIP3    H150405   2.007   3.918   0.779 -2.3810 -0.9469 -1.4251
 9638TIP3    H250406   1.942   3.818   0.872  0.3747 -0.5607  1.0770
 9639TIP3   OH250407   1.929   3.750   5.148 -0.4402  0.2278 -0.2519
 9639TIP3    H150408   1.893   3.664   5.169  1.5118 -0.5583  0.0537
 9639TIP3    H250409   1.889   3.809   5.213 -1.0349 -0.6141  0.1701
 9640TIP3   OH250410   2.988   1.767   3.447 -0.2732 -0.5590  0.0488
 9640TIP3    H150411   2.997   1.793   3.538  0.7208 -1.2109  0.1510
 9640TIP3    H250412   3.012   1.674   3.446  0.4259 -0.3816 -0.9823
 9641TIP3   OH250413   2.786   1.000   2.233  0.4137 -0.3280 -0.2859
 9641TIP3    H150414   2.783   0.936   2.162  1.5080 -0.4378 -0.2474
 9641TIP3    H250415   2.774   0.948   2.313 -0.9150 -0.1921 -0.3795
 9642TIP3   OH250416   6.345   5.654   4.971  0.3598 -0.6561  0.5407
 9642TIP3    H150417   6.276   5.602   4.929  0.3546  0.6476 -1.1326
 9642TIP3    H250418   6.383   5.594   5.035  1.9342 -3.6557 -2.8223
 9643TIP3   OH250419   0.059   4.683  15.580  0.5476 -0.2996  0.1463
 9643TIP3    H150420  -0.031   4.691  15.610  0.6366  1.3743  0.0256
 9643TIP3    H250421   0.054   4.695  15.485  0.8356 -0.7798  0.0679
 9644TIP3   OH250422   6.366   6.416   4.332 -0.0363 -0.1157 -0.0375
 9644TIP3    H150423   6.426   6.409   4.407  1.7295 -1.2685 -1.4611
 9644TIP3    H250424   6.380   6.335   4.283 -3.4016 -0.8236 -0.0806
 9645TIP3   OH250425   3.718   1.280  16.043 -0.2303  0.3439 -0.2105
 9645TIP3    H150426   3.687   1.204  16.093  1.1472  0.0261  0.2045
 9645TIP3    H250427   3.716   1.251  15.952 -2.7490  0.9223 -0.4146
 9646TIP3   OH250428   5.190   1.579   4.985  0.1919 -1.1581 -0.2082
 9646TIP3    H150429   5.103   1.609   5.010  0.2990 -1.6282  0.7708
 9646TIP3    H250430   5.204   1.499   5.036  1.3233 -0.9055 -0.0853
 9647TIP3   OH250431   1.057   0.566  16.046 -0.3272 -0.0646  0.2591
 9647TIP3    H150432   1.113   0.519  15.985  0.4583 -0.6921  1.4392
 9647TIP3    H250433   0.968   0.538  16.023  0.0597 -1.3563  0.2957
 9648TIP3   OH250434   0.626   2.240  13.696 -0.0283 -0.3474 -0.2981
 9648TIP3    H150435   0.542   2.281  13.715 -0.1866 -1.3853  1.4305
 9648TIP3    H250436   0.605   2.159  13.651  0.0732 -0.3150 -0.4043
 9649TIP3   OH250437   3.910   5.046  14.711 -0.7940 -1.4546  0.1073
 9649TIP3    H150438   3.931   5.026  14.802 -0.1297  0.1128  0.3194
 9649TIP3    H250439   3.995   5.057  14.668 -1.0943 -0.3205 -0.2439
 9650TIP3   OH250440   5.541   4.138   3.619  0.5476  0.1666 -0.1771
 9650TIP3    H150441   5.468   4.120   3.678  1.9930  1.2625  2.1031
 9650TIP3    H250442   5.557   4.055   3.574 -1.1215 -0.4896  0.3654
 9651TIP3   OH250443   4.475   5.397   2.426 -0.2144  0.4675 -0.4330
 9651TIP3    H150444   4.449   5.422   2.337 -0.6327 -0.0824 -0.4753
 9651TIP3    H250445   4.414   5.444   2.483 -0.3105  0.3850 -0.4660
 9652TIP3   OH250446   1.667   5.937  16.488 -0.1228 -0.1753  0.0792
 9652TIP3    H150447   1.759   5.912  16.495 -0.1277 -0.1565  0.2245
 9652TIP3    H250448   1.623   5.886  16.557 -0.4746 -1.3645 -0.9942
 9653TIP3   OH250449   1.629   0.155   1.785  0.5043 -0.5235  0.0334
 9653TIP3    H150450   1.637   0.091   1.856 -0.0180  0.0900  0.6581
 9653TIP3    H250451   1.544   0.196   1.799  1.3360  1.1569  0.3633
 9654TIP3   OH250452   5.253   5.671   1.660 -0.5268 -0.0668 -0.1635
 9654TIP3    H150453   5.186   5.661   1.728 -1.0232  1.6650 -0.3664
 9654TIP3    H250454   5.335   5.675   1.709 -0.5969 -1.5151  0.1286
 9655TIP3   OH250455   3.051   3.053  15.743  0.1382 -0.6735  0.1507
 9655TIP3    H150456   2.970   3.031  15.698  0.1731  0.2613 -0.3744
 9655TIP3    H250457   3.029   3.044  15.836 -0.8547  0.5350  0.0503
 9656TIP3   OH250458   3.740   0.521   0.564  0.3474 -0.0065 -0.4038
 9656TIP3    H150459   3.704   0.607   0.589 -2.4982 -1.9802  3.2820
 9656TIP3    H250460   3.832   0.526   0.588 -0.3452  1.2776  2.4398
 9657TIP3   OH250461   5.609   2.188   5.036 -0.1253 -0.1951  0.4629
 9657TIP3    H150462   5.685   2.214   5.088  0.2357 -1.1647  0.4454
 9657TIP3    H250463   5.554   2.140   5.098 -2.1232  2.8534  1.2285
 9658TIP3   OH250464   6.793   3.875  13.433  0.0219  0.3519 -0.2185
 9658TIP3    H150465   6.775   3.866  13.339  0.0608  0.8301 -0.2782
 9658TIP3    H250466   6.725   3.936  13.464  0.5854  0.9482 -0.1336
 9659TIP3   OH250467   2.173   2.243   1.571  0.2066 -0.8103  0.4057
 9659TIP3    H150468   2.118   2.225   1.647 -2.3743 -1.3570 -1.4801
 9659TIP3    H250469   2.219   2.324   1.593 -2.5126  0.5386  1.5139
 9660TIP3   OH250470   2.319   6.747   4.578 -0.4439 -0.2995  0.5074
 9660TIP3    H150471   2.373   6.797   4.638 -0.5211 -1.0510  1.2241
 9660TIP3    H250472   2.229   6.773   4.598 -0.4122  0.2494 -0.0344
 9661TIP3   OH250473   1.705   2.240  16.602  0.5677  0.1658 -0.3636
 9661TIP3    H150474   1.612   2.226  16.589  1.1896 -3.5021 -2.1052
 9661TIP3    H250475   1.715   2.336  16.604 -2.6882  0.9841 -5.0432
 9662TIP3   OH250476   0.930   3.942   1.693  0.3055 -0.0572 -0.4567
 9662TIP3    H150477   0.910   3.950   1.600 -1.6731  1.6209  0.0253
 9662TIP3    H250478   0.967   4.027   1.717 -0.3776 -0.0023  0.5053
 9663TIP3   OH250479   2.185   2.433   0.003 -0.1124 -0.2032 -0.6010
 9663TIP3    H150480   2.275   2.465   0.013 -0.7021  1.3628 -0.0466
 9663TIP3    H250481   2.173   2.372   0.077  0.0382  0.6996  0.1861
 9664TIP3   OH250482   4.508   0.121  11.415 -0.1001 -0.3138  0.0249
 9664TIP3    H150483   4.467   0.041  11.445 -1.6326  0.2810 -0.3765
 9664TIP3    H250484   4.457   0.147  11.338  0.8528  0.6258 -0.3236
 9665TIP3   OH250485   1.293   6.073   3.567  0.1922  0.2445  0.6039
 9665TIP3    H150486   1.282   6.162   3.532  0.0085 -0.2800 -0.7585
 9665TIP3    H250487   1.383   6.070   3.598  0.7132  0.4580 -0.7984
 9666TIP3   OH250488   2.821   6.132  15.473 -0.2636  0.0476  0.2631
 9666TIP3    H150489   2.825   6.197  15.544  1.5761 -0.3789  0.6018
 9666TIP3    H250490   2.770   6.060  15.509 -0.8415  0.5726  0.5081
 9667TIP3   OH250491   5.013   4.092   0.210 -0.1235  0.5024 -0.4098
 9667TIP3    H150492   5.084   4.143   0.250  0.3215  0.5830 -1.2928
 9667TIP3    H250493   4.933   4.138   0.236  0.1519  0.5668  0.3616
 9668TIP3   OH250494   5.987   2.889   6.052 -0.2779  0.0489 -0.3159
 9668TIP3    H150495   5.956   2.862   6.138 -0.8703 -2.0976 -1.1458
 9668TIP3    H250496   5.961   2.818   5.994  1.1815  0.8683 -2.0594
 9669TIP3   OH250497   2.171   4.146  15.733  0.2908 -0.1485  0.3447
 9669TIP3    H150498   2.177   4.180  15.823  0.0307  1.1002 -0.0946
 9669TIP3    H250499   2.089   4.182  15.700  1.0060  0.4580 -0.8209
 9670TIP3   OH250500   4.336   1.950   2.871 -0.4491  0.2857 -0.5130
 9670TIP3    H150501   4.363   1.971   2.781 -1.0675 -1.8062 -1.2221
 9670TIP3    H250502   4.414   1.913   2.911  0.0271  1.8254  0.0884
 9671TIP3   OH250503   4.283   4.852   0.489  0.1200  0.4145 -0.0991
 9671TIP3    H150504   4.259   4.945   0.493 -0.1824  0.2977  0.9298
 9671TIP3    H250505   4.233   4.818   0.414  0.9439  1.2743 -1.0604
 9672TIP3   OH250506   2.255   2.610  14.645  0.6242  0.0813 -0.0365
 9672TIP3    H150507   2.337   2.571  14.675  0.9769  0.2333 -0.7778
 9672TIP3    H250508   2.259   2.604  14.550 -1.0887 -1.6372 -0.0534
 9673TIP3   OH250509   0.807   0.346   4.641 -0.4597  0.6048  0.0478
 9673TIP3    H150510   0.865   0.271   4.625  1.6802  2.0898  0.4807
 9673TIP3    H250511   0.784   0.338   4.734 -0.1560  0.5397  0.1193
 9674TIP3   OH250512   2.938   3.752   0.263  0.2564 -0.1443  0.5345
 9674TIP3    H150513   3.006   3.703   0.310  0.8014  0.1950  0.1098
 9674TIP3    H250514   2.978   3.774   0.179 -0.7454 -0.8524 -0.1560
 9675TIP3   OH250515   3.336   4.222  13.492 -0.2124 -0.1618 -0.1677
 9675TIP3    H150516   3.355   4.297  13.436 -0.5682  0.8365  1.0044
 9675TIP3    H250517   3.401   4.156  13.467 -1.1295 -0.2375 -2.5905
 9676TIP3   OH250518   3.290   2.959  14.415 -0.0524 -0.5599 -0.1265
 9676TIP3    H150519   3.288   2.867  14.386  0.1572 -0.9740  1.1258
 9676TIP3    H250520   3.239   3.005  14.348  1.8168 -1.1707 -2.1106
 9677TIP3   OH250521   5.912   5.430  12.844  0.3538  0.0169 -0.9083
 9677TIP3    H150522   5.906   5.501  12.908  1.5731  1.0576 -1.9028
 9677TIP3    H250523   5.832   5.437  12.793  0.1612  0.2531 -0.5775
 9678TIP3   OH250524   2.600   2.956   3.752  0.2396 -0.2724 -0.8160
 9678TIP3    H150525   2.689   2.991   3.752  0.1098  0.1970  1.3610
 9678TIP3    H250526   2.563   2.986   3.835 -1.6668 -1.1788 -1.2998
 9679TIP3   OH250527   5.104   0.712  15.434  0.0997  0.0672  0.0471
 9679TIP3    H150528   5.013   0.726  15.460  0.2489  0.2876  0.4543
 9679TIP3    H250529   5.112   0.617  15.428 -0.8873  0.0550 -2.6210
 9680TIP3   OH250530   4.115   2.109   1.174 -0.0332 -0.3557 -0.1189
 9680TIP3    H150531   4.077   2.039   1.121 -2.0982 -0.6050  1.5910
 9680TIP3    H250532   4.132   2.069   1.259  3.0270  0.0958 -0.4028
 9681TIP3   OH250533   2.305   3.976   4.511 -0.1678  0.6651 -0.8253
 9681TIP3    H150534   2.338   3.933   4.432 -1.6845 -0.3758 -0.9112
 9681TIP3    H250535   2.351   4.060   4.512  2.8392 -0.8197 -0.6890
 9682TIP3   OH250536   1.846   3.248  15.632  0.0165  0.3669 -0.4535
 9682TIP3    H150537   1.844   3.343  15.646 -0.2642  0.4035 -0.7359
 9682TIP3    H250538   1.768   3.216  15.677 -1.6266  0.6310 -2.9194
 9683TIP3   OH250539   1.242   1.258  13.481  0.6394  0.2619 -0.2283
 9683TIP3    H150540   1.337   1.262  13.492  0.6053 -1.1743  0.7916
 9683TIP3    H250541   1.228   1.273  13.387  1.8090  1.1427 -0.2827
 9684TIP3   OH250542   0.912   3.400   4.431 -0.2990  0.3225  0.1495
 9684TIP3    H150543   0.963   3.322   4.454  0.4058  0.5435 -0.6246
 9684TIP3    H250544   0.863   3.375   4.353  0.9154  1.0386 -0.8737
 9685TIP3   OH250545   5.884   5.562   5.218 -0.1514 -0.1974 -0.3332
 9685TIP3    H150546   5.899   5.630   5.284  0.8366 -0.3191 -0.4116
 9685TIP3    H250547   5.842   5.608   5.145  0.1461  0.2547 -0.2279
 9686TIP3   OH250548   3.169   5.555   5.045  0.7996 -0.1562 -0.9132
 9686TIP3    H150549   3.185   5.636   4.996 -1.5246  0.1520 -1.2769
 9686TIP3    H250550   3.222   5.489   5.001 -0.3428  0.3445 -3.2271
 9687TIP3   OH250551   4.685   6.349   4.513  0.4298 -0.1043 -0.5276
 9687TIP3    H150552   4.646   6.277   4.464  2.1345 -1.7155  0.3228
 9687TIP3    H250553   4.628   6.424   4.497  0.2102 -0.8494 -3.8739
 9688TIP3   OH250554   5.303   3.683  14.059  0.3036 -0.2555 -0.3707
 9688TIP3    H150555   5.227   3.741  14.054  0.4229 -0.0427  0.2084
 9688TIP3    H250556   5.304   3.637  13.975  0.3870  0.8027 -0.9624
 9689TIP3   OH250557   4.666   6.828   3.954 -0.1204  0.5745  0.0148
 9689TIP3    H150558   4.595   6.791   3.902 -0.2082 -0.2591  0.7138
 9689TIP3    H250559   4.657   6.788   4.040  1.1692  0.4794  0.1313
 9690TIP3   OH250560   2.954   1.115  14.743  0.1038  0.2627 -0.1636
 9690TIP3    H150561   2.974   1.206  14.765  4.0790  0.0607 -2.0842
 9690TIP3    H250562   3.011   1.063  14.799  0.0422 -0.8551 -1.0904
 9691TIP3   OH250563   3.759   1.663   3.254 -0.0589  0.5535 -0.7662
 9691TIP3    H150564   3.819   1.611   3.309  0.5979  1.7613 -0.3091
 9691TIP3    H250565   3.772   1.628   3.166  0.4165 -0.0282 -0.4772
 9692TIP3   OH250566   5.357   3.023   3.208  0.4038  0.1400 -0.1180
 9692TIP3    H150567   5.325   2.972   3.282 -0.5001 -0.2875 -0.7896
 9692TIP3    H250568   5.453   3.019   3.216  0.3304 -0.7495  0.4437
 9693TIP3   OH250569   4.397   6.197   3.758 -0.6776  0.4653 -0.6037
 9693TIP3    H150570   4.419   6.105   3.742  0.7706  0.5670  0.6093
 9693TIP3    H250571   4.306   6.205   3.730 -1.8739 -2.1088  2.0619
 9694TIP3   OH250572   0.339   5.406   2.146  0.4267 -0.2389  0.4703
 9694TIP3    H150573   0.265   5.345   2.142  1.1843 -1.1139 -1.0324
 9694TIP3    H250574   0.316   5.476   2.085 -0.4241  1.0471  2.1642
 9695TIP3   OH250575   0.761   4.158  10.756  0.0788  0.1912  0.1160
 9695TIP3    H150576   0.853   4.172  10.733 -0.0093  0.0815 -0.3161
 9695TIP3    H250577   0.712   4.186  10.678 -0.1830 -0.8564 -0.1117
 9696TIP3   OH250578   0.859   4.599   5.542 -0.2253  0.2410  0.3323
 9696TIP3    H150579   0.802   4.662   5.498  1.2075  0.9724 -0.5089
 9696TIP3    H250580   0.948   4.625   5.519  0.4326 -1.7685  0.4012
 9697TIP3   OH250581   0.438   0.475   5.114  0.1227 -0.0314 -0.2735
 9697TIP3    H150582   0.441   0.395   5.062 -1.7571  1.1347 -2.4026
 9697TIP3    H250583   0.397   0.539   5.056 -2.4524  1.3563  2.7907
 9698TIP3   OH250584   0.665   5.391  15.788 -0.3855  0.0709  0.4627
 9698TIP3    H150585   0.705   5.342  15.717  0.4616 -0.5973  1.3737
 9698TIP3    H250586   0.600   5.331  15.825 -1.1833  0.6005 -0.0501
 9699TIP3   OH250587   2.185   4.619   4.936 -0.4310  0.5723  0.0190
 9699TIP3    H150588   2.096   4.642   4.909 -0.0098  0.2391 -1.7840
 9699TIP3    H250589   2.241   4.673   4.880  0.5265 -1.5953 -1.2291
 9700TIP3   OH250590   3.343   3.431   5.333 -0.1726  0.3170 -0.0526
 9700TIP3    H150591   3.289   3.407   5.408 -1.1404 -0.3561 -0.9398
 9700TIP3    H250592   3.396   3.505   5.364 -0.6084  0.1069  1.2537
 9701TIP3   OH250593   6.440   5.186   0.048  0.2790 -0.4050 -0.1076
 9701TIP3    H150594   6.474   5.098   0.063 -2.3219 -1.6960 -1.1617
 9701TIP3    H250595   6.345   5.177   0.058  0.0395  2.7478  1.7871
 9702TIP3   OH250596   6.534   4.815   1.687 -0.0440 -0.3487  0.3164
 9702TIP3    H150597   6.604   4.875   1.713 -0.8437  0.7233  0.0349
 9702TIP3    H250598   6.564   4.779   1.603  1.0668 -1.4017  1.1368
 9703TIP3   OH250599   0.083   1.054  14.877  0.1250 -0.4346  0.7812
 9703TIP3    H150600   0.110   0.963  14.874  1.0089 -0.2537  2.4416
 9703TIP3    H250601   0.088   1.079  14.969  0.5067  1.4606  0.3038
 9704TIP3   OH250602   6.053   1.635   3.160 -0.5624 -0.0527 -0.0357
 9704TIP3    H150603   5.958   1.625   3.167 -0.6857  0.6083 -0.6456
 9704TIP3    H250604   6.069   1.648   3.066  0.1332 -0.1914  0.0586
 9705TIP3   OH250605   3.997   0.736  15.079 -0.1280 -0.2117 -0.3656
 9705TIP3    H150606   3.936   0.688  15.023 -2.1600 -0.0289  1.5615
 9705TIP3    H250607   4.083   0.698  15.058 -1.1998 -2.2413 -1.3878
 9706TIP3   OH250608   4.651   2.676  11.749  0.2061  0.3806 -0.3919
 9706TIP3    H150609   4.681   2.767  11.746  0.5524  0.3213  0.7395
 9706TIP3    H250610   4.718   2.630  11.801 -0.6894 -0.2135  0.2678
 9707TIP3   OH250611   0.823   3.795   0.747 -0.0459 -0.4902  0.1991
 9707TIP3    H150612   0.833   3.716   0.801  0.9515 -0.7118 -0.2885
 9707TIP3    H250613   0.730   3.818   0.755  0.1480 -0.2565  2.3829
 9708TIP3   OH250614   5.354   6.710   4.133  0.1858  0.0896 -0.6995
 9708TIP3    H150615   5.319   6.622   4.150 -3.8740  1.4625 -0.9151
 9708TIP3    H250616   5.341   6.757   4.215  1.3240  0.7858 -0.9106
 9709TIP3   OH250617   5.454   6.594   1.408  0.1592  0.2899  0.1915
 9709TIP3    H150618   5.520   6.582   1.340 -0.8184 -0.2680 -0.6951
 9709TIP3    H250619   5.370   6.591   1.361 -0.6129 -1.4952  1.5613
 9710TIP3   OH250620   5.713   1.079  15.395  0.5810 -0.4392  0.1136
 9710TIP3    H150621   5.661   1.023  15.453 -1.5099  0.7837 -0.4748
 9710TIP3    H250622   5.790   1.102  15.446 -0.5001 -0.5689  1.8699
 9711TIP3   OH250623   4.177   0.932  12.627 -0.2444 -0.1891  0.2846
 9711TIP3    H150624   4.193   0.985  12.705  1.2064 -0.5923  0.2776
 9711TIP3    H250625   4.259   0.933  12.579 -0.6685 -1.1564 -0.4988
 9712TIP3   OH250626   3.056   2.127  14.535 -0.0036  0.0269  0.0865
 9712TIP3    H150627   2.993   2.148  14.467 -1.4980 -1.6318  0.8881
 9712TIP3    H250628   3.128   2.083  14.488 -0.4901 -0.0919 -0.5665
 9713TIP3   OH250629   0.331   0.823  16.538  0.2318 -0.2572  0.0397
 9713TIP3    H150630   0.262   0.759  16.553 -0.9444  1.0706  0.5589
 9713TIP3    H250631   0.399   0.776  16.489 -1.4375 -1.3475 -1.3003
 9714TIP3   OH250632   5.637   3.794   0.076  0.5411 -0.1345 -0.4041
 9714TIP3    H150633   5.661   3.704   0.098 -0.3983 -0.6907 -1.5693
 9714TIP3    H250634   5.557   3.810   0.125  0.3026 -0.1943 -0.7731
 9715TIP3   OH250635   2.759   3.011   0.753 -0.0462  0.2934 -0.4044
 9715TIP3    H150636   2.683   2.966   0.790  1.4292 -1.4807  0.6272
 9715TIP3    H250637   2.766   2.979   0.664 -1.8613  2.3181 -1.3668
 9716TIP3   OH250638   2.736   6.462  12.638  0.1169  0.4641  0.1550
 9716TIP3    H150639   2.734   6.367  12.632  2.2574  0.3514  0.4062
 9716TIP3    H250640   2.769   6.491  12.552  1.6935  0.7796  0.8182
 9717TIP3   OH250641   4.184   5.752   1.143 -0.0514 -0.5081  0.0187
 9717TIP3    H150642   4.250   5.687   1.165  1.8182  1.3036  0.0200
 9717TIP3    H250643   4.133   5.762   1.223  0.7281 -0.7409  0.5539
 9718TIP3   OH250644   5.774   2.016  10.595 -0.0326 -0.0215 -0.1299
 9718TIP3    H150645   5.800   2.105  10.572  0.0020 -0.4327 -1.8660
 9718TIP3    H250646   5.856   1.966  10.594 -0.1616 -0.2371 -0.0064
 9719TIP3   OH250647   4.443   3.513   1.729 -0.1996  0.1382 -0.2956
 9719TIP3    H150648   4.521   3.568   1.735 -1.0739  1.4005 -0.2478
 9719TIP3    H250649   4.434   3.494   1.635 -0.1174  0.3839 -0.3524
 9720TIP3   OH250650   1.646   0.809  13.634  0.1288  0.5499  0.2263
 9720TIP3    H150651   1.738   0.824  13.657  0.4895 -0.4435 -0.4698
 9720TIP3    H250652   1.611   0.896  13.615  1.0196  0.9056  0.1713
 9721TIP3   OH250653   1.113   6.695   3.987  0.0908  0.0326  0.1403
 9721TIP3    H150654   1.022   6.668   3.988 -0.4809  1.6564 -1.7416
 9721TIP3    H250655   1.111   6.787   4.013  1.1834  0.1253 -0.0323
 9722TIP3   OH250656   1.738   4.127  13.042  0.0094  0.1509 -0.1900
 9722TIP3    H150657   1.754   4.047  12.993 -3.0240  0.0141 -1.1604
 9722TIP3    H250658   1.695   4.098  13.123 -0.7080  0.7423 -0.3439
 9723TIP3   OH250659   0.126   1.307   0.453 -0.2777  0.0047 -0.4968
 9723TIP3    H150660   0.213   1.299   0.414 -0.5788 -0.2093 -1.1537
 9723TIP3    H250661   0.114   1.227   0.503  0.1024  0.2665  0.0203
 9724TIP3   OH250662   2.844   1.826   5.576  0.4150 -0.3876  0.1126
 9724TIP3    H150663   2.911   1.888   5.547 -0.8120  1.4848  1.1179
 9724TIP3    H250664   2.829   1.848   5.668 -0.5752 -1.7322  0.3070
 9725TIP3   OH250665   0.143   0.744  16.923  0.1281 -0.1929 -0.0002
 9725TIP3    H150666   0.178   0.768  17.009  1.3833 -1.2070 -0.1935
 9725TIP3    H250667   0.049   0.753  16.932  0.2890  0.4453  1.2545
 9726TIP3   OH250668   4.837   0.443  15.602  0.5743 -0.1979  0.1647
 9726TIP3    H150669   4.885   0.394  15.668  1.5994 -0.8179 -0.9834
 9726TIP3    H250670   4.753   0.464  15.643  1.1502 -0.6186  1.6106
 9727TIP3   OH250671   0.269   4.252  15.058 -0.2946  0.5306 -0.1290
 9727TIP3    H150672   0.285   4.207  14.975  1.2121  2.3128 -0.8719
 9727TIP3    H250673   0.346   4.233  15.111 -1.2802 -0.6594  0.9529
 9728TIP3   OH250674   5.065   2.836   3.726 -0.1117  0.4270  0.3481
 9728TIP3    H150675   5.019   2.769   3.675 -1.5318  1.5622  0.0633
 9728TIP3    H250676   5.085   2.793   3.809 -0.6291 -0.4739  0.0221
 9729TIP3   OH250677   1.150   0.705  13.835  0.0259 -0.6210 -0.1484
 9729TIP3    H150678   1.076   0.749  13.794  0.5295 -1.6711 -2.3252
 9729TIP3    H250679   1.133   0.612  13.825 -0.1291 -1.0022  2.7421
 9730TIP3   OH250680   6.802   6.604   4.435 -0.4448  0.5326 -0.3301
 9730TIP3    H150681   6.728   6.663   4.428 -0.2284  0.8080 -0.3025
 9730TIP3    H250682   6.775   6.526   4.386 -0.4133  0.9699 -1.0590
 9731TIP3   OH250683   4.097   4.631   3.791 -0.0160 -0.4550  0.1995
 9731TIP3    H150684   4.019   4.596   3.836  1.0761 -3.5909 -0.1006
 9731TIP3    H250685   4.167   4.623   3.856  0.2936  1.6455  0.2044
 9732TIP3   OH250686   0.212   4.193  16.314  0.5258  0.3204 -0.1921
 9732TIP3    H150687   0.291   4.150  16.344  0.2009 -0.8013 -0.8666
 9732TIP3    H250688   0.142   4.155  16.367  0.4364  1.4623  0.5519
 9733TIP3   OH250689   6.759   1.601   4.476 -0.1718  0.5711 -0.2807
 9733TIP3    H150690   6.808   1.679   4.500  1.4441 -0.6963  0.7616
 9733TIP3    H250691   6.669   1.619   4.505  0.6984  1.0547  2.4363
 9734TIP3   OH250692   6.161   5.510   5.581  0.3271  0.2464  0.1012
 9734TIP3    H150693   6.082   5.490   5.632  0.0844  2.6657  0.8039
 9734TIP3    H250694   6.221   5.438   5.600 -2.0486 -2.3764 -1.4372
 9735TIP3   OH250695   1.240   3.716   1.203 -0.4784  0.1780  0.4610
 9735TIP3    H150696   1.147   3.738   1.195 -0.6272 -0.3855  0.5976
 9735TIP3    H250697   1.273   3.717   1.113 -0.4878  0.9031  0.4562
 9736TIP3   OH250698   1.084   0.618  12.563  0.0173 -0.0169 -0.1221
 9736TIP3    H150699   1.172   0.650  12.583 -0.2813 -0.0498  1.3747
 9736TIP3    H250700   1.044   0.604  12.649 -2.1643  1.9102 -0.7259
 9737TIP3   OH250701   4.081   1.565  15.699  0.1012  0.1548 -0.1992
 9737TIP3    H150702   4.027   1.516  15.760  0.7732  0.4921  0.6792
 9737TIP3    H250703   4.119   1.498  15.642  0.9380 -0.3520  0.9308
 9738TIP3   OH250704   0.064   1.055   4.370 -0.1688 -0.2182  0.4334
 9738TIP3    H150705   0.059   0.964   4.343  1.2742 -0.4348  0.8255
 9738TIP3    H250706   0.050   1.105   4.289  0.4888 -0.8041 -0.0448
 9739TIP3   OH250707   1.740   0.579  10.403  0.3747  0.3900 -0.0096
 9739TIP3    H150708   1.821   0.552  10.359  1.5505 -1.7844  3.1438
 9739TIP3    H250709   1.671   0.530  10.359  1.2937 -0.5660 -0.4337
 9740TIP3   OH250710   2.506   3.031  15.688 -0.6564  0.5825 -0.7801
 9740TIP3    H150711   2.430   2.990  15.647 -0.8557  0.5493 -0.3837
 9740TIP3    H250712   2.562   2.958  15.714 -2.4400  0.2755  2.7765
 9741TIP3   OH250713   2.673   2.841  12.191 -0.3833  0.5353  0.5218
 9741TIP3    H150714   2.645   2.890  12.114  1.1400  0.8589  0.1527
 9741TIP3    H250715   2.732   2.901  12.238 -2.8640  1.1860  3.1072
 9742TIP3   OH250716   5.142   4.548  12.926  0.2871 -0.1462 -0.0874
 9742TIP3    H150717   5.151   4.483  12.996 -0.0208  0.0172  0.1048
 9742TIP3    H250718   5.232   4.569  12.901  0.4153  0.2521  0.6805
 9743TIP3   OH250719   5.063   0.441  11.406  0.2321  0.4595 -0.2210
 9743TIP3    H150720   5.126   0.375  11.379  0.0844  0.0979  0.3181
 9743TIP3    H250721   5.110   0.496  11.469  0.7417  1.6187 -1.5404
 9744TIP3   OH250722   1.279   1.805  10.509 -0.3516 -0.0005  0.0883
 9744TIP3    H150723   1.258   1.722  10.551 -0.8083  0.7932  1.5034
 9744TIP3    H250724   1.371   1.820  10.529 -0.3522 -0.0088  0.0978
 9745TIP3   OH250725   0.013   3.515   2.073 -0.0638  0.7268  0.3170
 9745TIP3    H150726   0.088   3.572   2.088  0.5593  0.6119 -1.9944
 9745TIP3    H250727   0.031   3.437   2.127  0.5940  1.4015  1.1054
 9746TIP3   OH250728   4.229   5.772   0.623  0.1654  0.1973  0.2406
 9746TIP3    H150729   4.232   5.725   0.706 -0.0741 -0.9179 -0.3671
 9746TIP3    H250730   4.300   5.837   0.630  0.1919  0.0732  1.2745
 9747TIP3   OH250731   0.454   2.425  14.328 -0.1048 -0.1126  0.0587
 9747TIP3    H150732   0.523   2.477  14.288  0.5023 -1.6712 -0.9825
 9747TIP3    H250733   0.391   2.410  14.258 -0.3281 -0.6815  0.3755
 9748TIP3   OH250734   0.041   5.504  11.395 -0.0571 -0.5756 -0.7391
 9748TIP3    H150735   0.131   5.476  11.409  0.4224 -0.1237 -2.6492
 9748TIP3    H250736  -0.007   5.423  11.380  0.0805 -0.7945 -0.0377
 9749TIP3   OH250737   5.872   1.071   0.965 -0.2653  0.4607 -0.1464
 9749TIP3    H150738   5.789   1.024   0.961 -0.7380  1.0214  1.9351
 9749TIP3    H250739   5.934   1.007   1.001 -0.7290  1.1359  1.9498
 9750TIP3   OH250740   3.945   1.727  15.078 -0.7583  0.3484 -0.3748
 9750TIP3    H150741   3.975   1.664  15.143 -0.7113  2.1411  1.4430
 9750TIP3    H250742   3.852   1.707  15.066 -0.3628 -1.1378 -1.1742
 9751TIP3   OH250743   6.769   6.761  16.210  0.2893 -0.3211 -0.0998
 9751TIP3    H150744   6.864   6.759  16.221  0.1997 -2.2440  0.7938
 9751TIP3    H250745   6.754   6.818  16.135  2.1658 -0.1375 -0.3758
 9752TIP3   OH250746   5.955   3.218   0.367 -0.4311  0.0366  0.4718
 9752TIP3    H150747   6.046   3.243   0.349 -0.5993 -0.0758 -0.6135
 9752TIP3    H250748   5.903   3.272   0.308 -1.0477 -0.1366  0.8482
 9753TIP3   OH250749   2.450   1.925   3.765  0.0472  0.0417  0.4302
 9753TIP3    H150750   2.385   1.952   3.700 -0.0475  1.0102  0.9098
 9753TIP3    H250751   2.527   1.903   3.713 -1.2032 -3.0007 -0.3065
 9754TIP3   OH250752   1.356   0.685  16.581 -0.5552  0.4859  0.5180
 9754TIP3    H150753   1.282   0.629  16.560  0.0346 -0.8641  1.8950
 9754TIP3    H250754   1.414   0.678  16.505 -0.1457 -1.3923  0.9559
 9755TIP3   OH250755   3.586   2.239   6.075  0.2362 -0.0551 -0.0793
 9755TIP3    H150756   3.675   2.204   6.081  0.7224  1.0653 -0.4076
 9755TIP3    H250757   3.566   2.241   5.982 -0.4924 -1.1183  0.0361
 9756TIP3   OH250758   3.538   3.813  14.315 -0.0952  0.2279  0.5008
 9756TIP3    H150759   3.550   3.904  14.289 -1.1915  1.0253  2.5639
 9756TIP3    H250760   3.626   3.782  14.336  0.2491  0.8787  0.0531
 9757TIP3   OH250761   2.127   5.688   2.842 -0.2328 -0.0898  0.1590
 9757TIP3    H150762   2.107   5.723   2.928 -2.5642 -1.8102  0.3920
 9757TIP3    H250763   2.090   5.752   2.781 -0.3743  0.1214  0.4625
 9758TIP3   OH250764   0.077   0.415   2.304 -0.2845  0.0612 -0.0865
 9758TIP3    H150765   0.032   0.486   2.352  0.1644  1.4197 -1.5899
 9758TIP3    H250766   0.015   0.342   2.307 -2.7056  1.8596 -2.0760
 9759TIP3   OH250767   5.957   5.360   5.673 -0.4307 -0.3706 -0.3369
 9759TIP3    H150768   5.906   5.363   5.592 -0.7170 -0.8402 -0.1819
 9759TIP3    H250769   5.966   5.266   5.692 -2.9398 -0.3188  1.7449
 9760TIP3   OH250770   4.105   5.775   6.671  0.3484  0.2478 -0.0725
 9760TIP3    H150771   4.169   5.708   6.647  0.3736 -0.2578  1.3214
 9760TIP3    H250772   4.044   5.730   6.729 -1.1824  0.7764 -1.1976
 9761TIP3   OH250773   4.077   3.048  15.253  0.0805 -0.7161  0.0627
 9761TIP3    H150774   4.115   2.987  15.316 -2.0689 -2.5588 -0.2935
 9761TIP3    H250775   3.986   3.021  15.245 -0.8267  2.1739 -0.6506
 9762TIP3   OH250776   6.424   4.305  15.285 -0.5238 -0.6662  0.3687
 9762TIP3    H150777   6.417   4.217  15.247 -0.7685 -0.3045 -0.4615
 9762TIP3    H250778   6.470   4.356  15.218  0.6570 -0.4325  1.3306
 9763TIP3   OH250779   2.493   6.773   5.462  0.3366 -0.1585  0.3547
 9763TIP3    H150780   2.417   6.766   5.405  0.6837 -1.4676  0.0209
 9763TIP3    H250781   2.492   6.692   5.513  0.8914  0.3079  1.1193
 9764TIP3   OH250782   5.495   2.816   0.381 -0.3687  0.4064  0.1619
 9764TIP3    H150783   5.435   2.743   0.396 -0.0708  0.2500  0.6384
 9764TIP3    H250784   5.560   2.808   0.451 -1.3834  2.2401  1.3915
 9765TIP3   OH250785   6.649   6.508   0.707 -0.6400 -0.0405 -0.2631
 9765TIP3    H150786   6.595   6.536   0.780 -1.5061  0.7949 -1.1844
 9765TIP3    H250787   6.720   6.457   0.747 -0.2745  1.5876  1.2746
 9766TIP3   OH250788   1.068   5.159  15.532  0.2005 -0.8663 -0.6824
 9766TIP3    H150789   1.118   5.112  15.598 -1.5874 -2.0107 -0.0617
 9766TIP3    H250790   1.105   5.247  15.532  0.7738 -1.0606  1.2682
 9767TIP3   OH250791   3.083   0.025   4.279 -0.3719  0.0233 -0.4163
 9767TIP3    H150792   3.139   0.081   4.332  0.2799 -1.0357  0.0415
 9767TIP3    H250793   3.002   0.018   4.329  0.1868 -0.8555  0.3901
 9768TIP3   OH250794   1.082   6.085  16.557  0.2200 -0.4455 -0.1838
 9768TIP3    H150795   1.010   6.022  16.561  0.4242 -0.7426 -0.8975
 9768TIP3    H250796   1.148   6.041  16.504  0.4978  0.2448 -0.4185
 9769TIP3   OH250797   2.871   2.153   6.194 -0.3136 -1.0976  0.0768
 9769TIP3    H150798   2.861   2.136   6.288 -1.2305  0.1740  0.2332
 9769TIP3    H250799   2.883   2.247   6.188  0.4887 -1.2572 -1.0495
 9770TIP3   OH250800   2.301   3.678   1.360  0.3628  0.4408 -0.4539
 9770TIP3    H150801   2.276   3.697   1.450 -1.6716  0.4355 -0.9870
 9770TIP3    H250802   2.280   3.757   1.311  0.2825  0.0028 -1.1455
 9771TIP3   OH250803   4.946   1.572   4.559 -0.4021  0.1393  0.0488
 9771TIP3    H150804   4.911   1.617   4.636 -1.5491 -2.1296  0.9289
 9771TIP3    H250805   4.957   1.481   4.587  0.6607 -0.4373 -2.0232
 9772TIP3   OH250806   6.667   6.121  14.881  0.0354  0.0734 -0.2460
 9772TIP3    H150807   6.583   6.079  14.865  0.0928  0.1458 -0.7560
 9772TIP3    H250808   6.727   6.049  14.901 -0.2615  0.0656  0.6451
 9773TIP3   OH250809   5.218   5.935   2.302 -0.6886  0.0293  0.1259
 9773TIP3    H150810   5.278   5.884   2.356 -0.4699  1.4539  1.2886
 9773TIP3    H250811   5.224   6.024   2.337 -1.6495  0.7028 -1.3182
 9774TIP3   OH250812   3.438   1.712   4.202 -0.2790  0.2158 -0.2517
 9774TIP3    H150813   3.360   1.696   4.254 -0.1569 -2.1046 -0.6884
 9774TIP3    H250814   3.434   1.806   4.181 -1.7591  0.6194  1.5554
 9775TIP3   OH250815   6.013   1.365  16.785  0.0241 -0.1347  0.0630
 9775TIP3    H150816   5.963   1.360  16.866  0.2376 -2.8501  0.1027
 9775TIP3    H250817   6.084   1.426  16.805 -1.5160  1.4526  0.9472
 9776TIP3   OH250818   4.259   5.625   2.519  0.2003  0.1105 -0.3834
 9776TIP3    H150819   4.272   5.670   2.435  1.0951  1.4111  0.3990
 9776TIP3    H250820   4.282   5.691   2.584  1.1415 -1.3723  0.8579
 9777TIP3   OH250821   4.428   6.333   2.333 -0.4845 -0.2494  0.0627
 9777TIP3    H150822   4.419   6.276   2.410  0.3857 -0.2180  0.1996
 9777TIP3    H250823   4.522   6.340   2.319 -0.6364 -0.3968 -1.1264
 9778TIP3   OH250824   0.114   4.434  17.025  0.4928  0.4228  0.1644
 9778TIP3    H150825   0.167   4.389  17.091 -1.2991 -1.9578  0.0878
 9778TIP3    H250826   0.114   4.375  16.949  0.4119  1.9123 -1.0387
 9779TIP3   OH250827   1.479   0.597  16.335 -0.3244  0.0451  0.0874
 9779TIP3    H150828   1.456   0.504  16.331  0.2701 -0.0485 -1.9330
 9779TIP3    H250829   1.472   0.628  16.245  2.0349  1.3457  0.2704
 9780TIP3   OH250830   1.174   2.645   0.308 -0.4942  0.1283  0.6244
 9780TIP3    H150831   1.118   2.601   0.244  0.7198 -0.0362 -0.3762
 9780TIP3    H250832   1.253   2.667   0.258  0.3058  0.3953  1.9755
 9781TIP3   OH250833   3.181   1.787  13.125  0.0432  0.0610 -0.9351
 9781TIP3    H150834   3.179   1.700  13.085  0.9202 -0.1366 -0.5714
 9781TIP3    H250835   3.118   1.838  13.074  0.9302 -0.2550 -2.4048
 9782TIP3   OH250836   5.737   5.141   0.664 -0.0394 -0.0772  0.4534
 9782TIP3    H150837   5.703   5.185   0.586 -0.0007 -0.7077  0.0706
 9782TIP3    H250838   5.790   5.069   0.629  1.3343  0.6132  1.0367
 9783TIP3   OH250839   0.476   3.784  12.684 -0.2298  0.5199 -0.0846
 9783TIP3    H150840   0.531   3.774  12.606  1.7721 -2.5788  1.5407
 9783TIP3    H250841   0.532   3.830  12.747  1.1892 -3.4828  1.9122
 9784TIP3   OH250842   6.829   2.763   3.718 -0.2369 -0.0302 -0.1817
 9784TIP3    H150843   6.789   2.844   3.685  0.7323  1.3486  1.7929
 9784TIP3    H250844   6.923   2.777   3.706 -0.0672 -0.8864  0.1309
 9785TIP3   OH250845   3.536   4.972   4.564  0.4000  0.7872  0.0397
 9785TIP3    H150846   3.466   4.911   4.584  0.9595 -0.2962 -1.1160
 9785TIP3    H250847   3.500   5.027   4.494  0.1186  1.3594  0.6324
 9786TIP3   OH250848   5.324   4.840   2.364 -0.2407 -0.1613  0.4200
 9786TIP3    H150849   5.387   4.797   2.421  0.0861 -0.6396 -0.2885
 9786TIP3    H250850   5.326   4.932   2.390  0.2975 -0.2814  0.8086
 9787TIP3   OH250851   1.591   1.312   4.588  0.1231  0.3698  0.0666
 9787TIP3    H150852   1.540   1.238   4.553  1.2796 -0.5326  0.2092
 9787TIP3    H250853   1.633   1.350   4.512 -1.3879  1.6682 -0.1757
 9788TIP3   OH250854   3.425   5.857   2.272  0.3558  0.1973  0.4967
 9788TIP3    H150855   3.389   5.772   2.297  0.1363 -0.5685 -2.1169
 9788TIP3    H250856   3.451   5.846   2.181 -0.7079  3.2761 -0.2903
 9789TIP3   OH250857   5.859   4.231   1.775 -0.2877 -0.3233 -0.0551
 9789TIP3    H150858   5.889   4.310   1.821  1.4360 -1.9736  1.8724
 9789TIP3    H250859   5.763   4.235   1.781 -0.3583  2.2572 -1.2746
 9790TIP3   OH250860   0.508   1.247   1.312 -0.2433  0.0724  0.0255
 9790TIP3    H150861   0.483   1.266   1.222 -0.8394  0.4414  0.2639
 9790TIP3    H250862   0.453   1.304   1.365  0.8392  0.6320  0.5873
 9791TIP3   OH250863   3.804   5.460  16.481 -0.1544  0.5066 -0.2037
 9791TIP3    H150864   3.775   5.535  16.534 -0.2103  1.4495 -1.5250
 9791TIP3    H250865   3.772   5.384  16.529 -3.0965  1.4111 -0.5143
 9792TIP3   OH250866   5.008   4.947   3.743 -1.1730 -0.1218 -0.5742
 9792TIP3    H150867   5.064   4.953   3.666 -2.4940 -1.2955 -1.7040
 9792TIP3    H250868   5.052   4.999   3.810 -1.2866  3.3340 -2.8864
 9793TIP3   OH250869   6.508   5.848  11.488  0.5850 -0.1722  0.0310
 9793TIP3    H150870   6.532   5.903  11.562  0.4695  1.8436 -1.3525
 9793TIP3    H250871   6.586   5.795  11.472  1.3040  0.7316  0.4144
 9794TIP3   OH250872   1.763   5.154   5.882  0.1159  0.4648 -0.1902
 9794TIP3    H150873   1.746   5.184   5.793  1.5997  0.4395 -0.4946
 9794TIP3    H250874   1.676   5.152   5.923 -0.4063  2.0056 -1.1384
 9795TIP3   OH250875   4.056   3.401   4.644  0.7119  0.1354  0.3133
 9795TIP3    H150876   4.102   3.417   4.727  3.3628 -1.7836 -0.6455
 9795TIP3    H250877   3.985   3.342   4.666  1.1747 -0.0802  1.2806
 9796TIP3   OH250878   4.161   3.300  11.960  0.2033  0.4105 -0.1638
 9796TIP3    H150879   4.234   3.241  11.977 -0.4931 -0.7299 -0.9293
 9796TIP3    H250880   4.134   3.331  12.047  0.6427 -0.3501  0.2536
 9797TIP3   OH250881   3.944   2.344   3.378  0.0166 -0.4595 -0.1367
 9797TIP3    H150882   3.878   2.368   3.444  0.9881 -1.2419  1.1834
 9797TIP3    H250883   3.987   2.427   3.357  2.0609 -0.5359  2.9557
 9798TIP3   OH250884   5.103   2.877   2.227  0.4247  0.1659  0.0295
 9798TIP3    H150885   5.109   2.792   2.269 -0.4351 -0.3696 -0.9066
 9798TIP3    H250886   5.076   2.937   2.298 -0.3803 -0.5966  0.3825
 9799TIP3   OH250887   3.039   1.750   4.616 -0.5087  0.1220 -0.0840
 9799TIP3    H150888   2.985   1.778   4.542  0.7264 -0.9928 -1.4663
 9799TIP3    H250889   3.009   1.662   4.636  2.2371 -1.4964 -2.4471
 9800TIP3   OH250890   2.579   5.609  14.421  0.1242  0.0357  0.0220
 9800TIP3    H150891   2.627   5.644  14.345  1.3792 -0.6105  0.4859
 9800TIP3    H250892   2.508   5.558  14.382 -0.3586  1.1903 -0.6856
 9801TIP3   OH250893   5.819   4.581  12.030  0.0325 -0.3246 -0.6194
 9801TIP3    H150894   5.740   4.529  12.041 -1.4880  1.7683 -1.1195
 9801TIP3    H250895   5.858   4.548  11.948 -1.8679  0.4683 -1.9029
 9802TIP3   OH250896   0.255   2.145  15.421 -0.6185  0.3734  0.1525
 9802TIP3    H150897   0.225   2.097  15.498  0.8969 -0.2545  0.3852
 9802TIP3    H250898   0.299   2.079  15.367 -1.6092  0.8129 -1.2595
 9803TIP3   OH250899   6.514   6.092  14.553  0.3909  0.4855  0.4236
 9803TIP3    H150900   6.494   6.051  14.637 -2.5155  1.3061  0.2373
 9803TIP3    H250901   6.507   6.021  14.490 -0.6005  0.4610  0.5464
 9804TIP3   OH250902   5.623   4.772  11.314  0.5124 -0.1525 -0.4451
 9804TIP3    H150903   5.592   4.781  11.405 -1.2167 -0.7884 -0.9392
 9804TIP3    H250904   5.634   4.862  11.284  1.1340  0.0667  0.3899
 9805TIP3   OH250905   0.184   0.015  12.602  0.6847  0.0246 -0.3265
 9805TIP3    H150906   0.223   0.038  12.686 -1.3655  0.7309  0.5015
 9805TIP3    H250907   0.095  -0.014  12.624  0.2881 -0.2989 -2.1996
 9806TIP3   OH250908   2.021   6.805  12.765 -0.0089 -0.0640 -0.5213
 9806TIP3    H150909   1.934   6.771  12.743  0.2726 -0.7759 -0.5426
 9806TIP3    H250910   2.079   6.730  12.757  1.2012  1.0636 -3.8265
 9807TIP3   OH250911   4.575   6.066  14.529 -0.1698 -0.3789 -0.2039
 9807TIP3    H150912   4.636   6.070  14.603 -1.0267 -0.5164  0.5206
 9807TIP3    H250913   4.625   6.024  14.459  0.3201 -1.2275  0.6348
 9808TIP3   OH250914   0.237   2.420  14.170 -0.0578 -0.3263  0.2821
 9808TIP3    H150915   0.214   2.466  14.090 -0.8619 -0.0527  0.6665
 9808TIP3    H250916   0.183   2.459  14.238  0.0564 -1.0738  0.8250
 9809TIP3   OH250917   4.412   0.467  12.054 -0.0364 -0.2719 -0.4847
 9809TIP3    H150918   4.396   0.434  12.142 -0.2958  0.6838 -0.1679
 9809TIP3    H250919   4.437   0.559  12.066 -1.3722  0.2474 -1.4927
 9810TIP3   OH250920   5.964   0.875  13.265  0.2975 -0.1251  0.7497
 9810TIP3    H150921   5.921   0.956  13.238  2.0964  0.9028  0.7646
 9810TIP3    H250922   6.019   0.851  13.190  2.1845  0.4661  1.8830
 9811TIP3   OH250923   4.257   2.980  14.943  0.1268 -0.0624 -0.1965
 9811TIP3    H150924   4.301   2.927  15.009 -0.7242  0.5967  0.9487
 9811TIP3    H250925   4.318   3.051  14.924  0.7340 -0.7242 -0.7818
 9812TIP3   OH250926   2.730   0.403   1.514  0.3808  0.0933 -0.3563
 9812TIP3    H150927   2.715   0.391   1.608  0.7006 -1.6125 -0.4749
 9812TIP3    H250928   2.760   0.493   1.506  1.5682 -0.0853  1.3640
 9813TIP3   OH250929   4.103   5.384  13.762 -0.3140 -0.2999 -0.1439
 9813TIP3    H150930   4.020   5.343  13.738 -0.1054 -0.9766  0.2506
 9813TIP3    H250931   4.166   5.312  13.762 -0.3999 -0.5044  2.9678
 9814TIP3   OH250932   3.065   5.307   3.615  0.9042 -0.2016  0.4148
 9814TIP3    H150933   3.149   5.317   3.571  0.9224  0.3986  0.5736
 9814TIP3    H250934   3.008   5.370   3.571  0.3993 -0.9569 -0.0241
 9815TIP3   OH250935   3.139   2.662  16.629  1.0391 -0.7411  0.7912
 9815TIP3    H150936   3.079   2.621  16.566  0.7138  0.1579  0.4975
 9815TIP3    H250937   3.092   2.658  16.712  1.0114 -0.9619  0.7657
 9816TIP3   OH250938   0.093   4.124  13.898 -0.4589  0.2766 -0.5101
 9816TIP3    H150939   0.097   4.136  13.804 -0.6769  1.6937 -0.3548
 9816TIP3    H250940   0.128   4.036  13.912 -0.9597 -0.1792 -1.9455
 9817TIP3   OH250941   4.721   6.307   2.308 -0.3812 -0.0938  0.5678
 9817TIP3    H150942   4.803   6.265   2.333 -0.0397 -0.7221 -1.3867
 9817TIP3    H250943   4.714   6.290   2.214 -2.2574  0.8167  0.5033
 9818TIP3   OH250944   5.776   6.786   1.047 -0.1207 -0.4581  0.3166
 9818TIP3    H150945   5.836   6.858   1.028  0.8582 -0.9244  1.5219
 9818TIP3    H250946   5.714   6.822   1.111 -0.1298 -0.4620  0.3102
 9819TIP3   OH250947   6.220   0.972   1.495  0.1365  0.0670 -0.2417
 9819TIP3    H150948   6.166   0.940   1.567  0.4059 -0.7422 -0.3889
 9819TIP3    H250949   6.156   1.007   1.432 -0.1447  0.0930  0.0518
 9820TIP3   OH250950   2.725   4.038   5.871  0.3941  0.0958 -0.4053
 9820TIP3    H150951   2.638   4.034   5.910  1.0999 -1.8160  1.1729
 9820TIP3    H250952   2.751   4.130   5.878 -0.8685  0.4042  0.5925
 9821TIP3   OH250953   2.390   2.273  12.002 -0.1161 -0.1978  0.0067
 9821TIP3    H150954   2.414   2.306  12.089 -0.5458  0.2413 -0.0387
 9821TIP3    H250955   2.468   2.289  11.949  0.4525 -1.2233  0.5036
 9822TIP3   OH250956   2.771   5.716  10.755 -0.1361 -0.1977  0.5558
 9822TIP3    H150957   2.830   5.653  10.714  1.7287 -0.3480  3.2546
 9822TIP3    H250958   2.829   5.777  10.801 -2.0055 -0.1572  3.0625
 9823TIP3   OH250959   0.990   1.945   1.568  0.5665 -0.2140  0.3712
 9823TIP3    H150960   1.058   1.971   1.506  0.3122  0.9357  0.5602
 9823TIP3    H250961   0.980   1.851   1.553  2.3919 -0.4805  0.5349
 9824TIP3   OH250962   1.101   4.981  11.841  0.0918 -0.0544  0.7884
 9824TIP3    H150963   1.187   4.956  11.806 -0.5715 -0.2691 -0.7560
 9824TIP3    H250964   1.055   4.898  11.852 -0.0856  0.0930  1.1534
 9825TIP3   OH250965   4.965   1.089   3.695  0.2207 -0.3281  0.0985
 9825TIP3    H150966   4.992   1.178   3.719  0.6501 -0.5694  0.5091
 9825TIP3    H250967   4.947   1.094   3.601  0.9747  0.0075 -0.0297
 9826TIP3   OH250968   0.603   2.150   2.627  0.7251  0.4272 -0.1758
 9826TIP3    H150969   0.518   2.128   2.665  0.9204  2.1511  1.4241
 9826TIP3    H250970   0.656   2.071   2.635 -0.0520  0.0091  0.8599
 9827TIP3   OH250971   0.064   1.274  16.391 -0.2902  0.5483  0.6395
 9827TIP3    H150972   0.049   1.183  16.416 -1.6349  0.8235  0.9113
 9827TIP3    H250973   0.077   1.271  16.296 -1.4305  0.1785  0.4818
 9828TIP3   OH250974   3.874   6.471  13.843 -0.2922 -0.5487 -0.0945
 9828TIP3    H150975   3.844   6.515  13.923  1.2641 -0.0093  0.2342
 9828TIP3    H250976   3.808   6.403  13.827 -2.0233  0.9945  0.1617
 9829TIP3   OH250977   4.483   1.237  13.339 -0.5990 -0.1344 -0.6856
 9829TIP3    H150978   4.403   1.289  13.336  0.0384  1.0961  1.3596
 9829TIP3    H250979   4.552   1.298  13.310  0.1314  0.1617  1.5311
 9830TIP3   OH250980   5.550   3.014   5.518 -1.0108 -0.0439 -0.3484
 9830TIP3    H150981   5.570   3.065   5.597 -0.1171 -0.2852 -0.4119
 9830TIP3    H250982   5.472   2.963   5.542 -1.1689  0.4158  0.1363
 9831TIP3   OH250983   5.889   0.358  11.693 -0.1874 -0.5939  0.7697
 9831TIP3    H150984   5.889   0.335  11.600 -0.3065  3.6104 -0.4778
 9831TIP3    H250985   5.981   0.375  11.713 -0.4054  0.8635  0.6501
 9832TIP3   OH250986   0.992   1.629   0.669 -0.0558 -0.6218  0.3218
 9832TIP3    H150987   1.082   1.605   0.646  0.3960 -0.5925  1.9738
 9832TIP3    H250988   1.001   1.703   0.729 -1.2506  0.2605 -0.5133
 9833TIP3   OH250989   4.872   1.122   6.160  0.0554  0.0945  0.6240
 9833TIP3    H150990   4.876   1.051   6.224 -0.0479  1.9670  2.8637
 9833TIP3    H250991   4.778   1.132   6.140  0.1405 -0.8842 -0.3335
 9834TIP3   OH250992   2.490   6.781  14.515 -0.7741  0.1391  0.0353
 9834TIP3    H150993   2.514   6.772  14.608  0.1371 -0.4037 -0.2452
 9834TIP3    H250994   2.395   6.770  14.514 -1.0318  1.9098  1.1251
 9835TIP3   OH250995   3.231   2.441   2.557 -0.0705 -0.4884  0.2794
 9835TIP3    H150996   3.292   2.511   2.534 -1.9418  0.3566 -2.5555
 9835TIP3    H250997   3.275   2.361   2.531  0.1855  0.0486 -1.0129
 9836TIP3   OH250998   2.393   6.550   4.412  0.4013 -0.2191 -0.0655
 9836TIP3    H150999   2.399   6.485   4.482 -0.7603 -0.8621 -0.5379
 9836TIP3    H251000   2.373   6.632   4.456  0.6344 -0.4293  0.4322
 9837TIP3   OH251001   0.795   2.960  11.293 -0.0612 -0.2331  0.3768
 9837TIP3    H151002   0.867   2.903  11.267 -0.0431 -1.3525  2.7145
 9837TIP3    H251003   0.831   3.049  11.285  0.7799 -0.6531 -0.7280
 9838TIP3   OH251004   0.743   4.024  13.191  0.1906  0.5275  0.1702
 9838TIP3    H151005   0.791   3.980  13.121 -0.5121  3.0973 -2.0668
 9838TIP3    H251006   0.656   3.983  13.190  0.2565  0.3994 -0.2871
 9839TIP3   OH251007   4.713   4.097   1.852 -0.1139  0.0891 -0.0665
 9839TIP3    H151008   4.770   4.033   1.807  0.6358  0.9026 -0.3009
 9839TIP3    H251009   4.628   4.087   1.809 -0.2801 -1.4165  0.5340
 9840TIP3   OH251010   3.190   6.117  13.733 -0.5789 -0.0198 -0.1309
 9840TIP3    H151011   3.107   6.163  13.719 -0.4843  0.3700  0.5272
 9840TIP3    H251012   3.171   6.054  13.803 -0.0173  0.9399  0.9151
 9841TIP3   OH251013   3.270   4.943   6.449  0.1020  0.0764  0.1729
 9841TIP3    H151014   3.351   4.988   6.472  0.3818 -0.8224  0.9832
 9841TIP3    H251015   3.298   4.871   6.393 -0.3477  0.8772 -1.1452
 9842TIP3   OH251016   6.095   5.782   2.642 -0.6717 -0.0409 -0.1773
 9842TIP3    H151017   6.086   5.732   2.562  1.2101  0.7707 -0.9561
 9842TIP3    H251018   6.096   5.873   2.614 -1.3960  0.3353  0.9296
 9843TIP3   OH251019   0.573   3.664   1.878 -0.6798 -0.4070 -0.0393
 9843TIP3    H151020   0.554   3.756   1.898 -1.4040 -0.3244 -1.0256
 9843TIP3    H251021   0.513   3.642   1.807  0.0474 -1.4105 -0.3691
 9844TIP3   OH251022   5.047   4.429  12.050  0.2814 -0.8400 -0.1427
 9844TIP3    H151023   5.024   4.360  11.988 -0.7604 -1.1383  0.5733
 9844TIP3    H251024   5.060   4.385  12.133 -0.0131 -0.2282  0.2380
 9845TIP3   OH251025   2.359   6.815  12.652  0.1390 -0.3394 -0.0248
 9845TIP3    H151026   2.337   6.864  12.573  0.5959  1.5341  0.9427
 9845TIP3    H251027   2.452   6.798  12.644  0.1279 -0.4021 -0.0188
 9846TIP3   OH251028   3.659   1.704  10.770 -0.0382 -0.4454  0.0739
 9846TIP3    H151029   3.720   1.768  10.735 -0.8788  0.8512  0.9051
 9846TIP3    H251030   3.593   1.694  10.701 -0.8356  0.9139  0.5992
 9847TIP3   OH251031   3.923   0.456  11.804  0.2053 -0.3444 -0.3636
 9847TIP3    H151032   3.961   0.467  11.891 -0.9767  1.3443 -0.0235
 9847TIP3    H251033   3.998   0.439  11.747  1.3285  1.3821  0.5188
 9848TIP3   OH251034   5.815   3.037  10.555  0.4129 -0.2420 -0.4640
 9848TIP3    H151035   5.848   3.016  10.642 -0.7539  1.7683  0.5240
 9848TIP3    H251036   5.759   2.964  10.531  2.3868 -1.8284 -0.4972
 9849TIP3   OH251037   0.665   3.453  12.720  0.2624  0.4955  0.5323
 9849TIP3    H151038   0.592   3.422  12.667  0.7339 -1.5793  1.0072
 9849TIP3    H251039   0.731   3.384  12.713  2.4690  2.5479 -0.3644
 9850TIP3   OH251040   4.552   6.606  13.556  0.0661  0.2546 -0.8510
 9850TIP3    H151041   4.621   6.629  13.618  0.3188 -0.1765 -0.9638
 9850TIP3    H251042   4.556   6.510  13.552 -0.4591  0.2378 -0.9498
 9851TIP3   OH251043   6.478   6.298  16.406 -0.0538  0.9574 -0.6209
 9851TIP3    H151044   6.537   6.350  16.351 -0.0608  0.0660 -1.5011
 9851TIP3    H251045   6.502   6.207  16.388 -1.6863  0.5621 -1.0186
 9852TIP3   OH251046   0.657   5.024  14.036  0.4420  0.7124  0.1698
 9852TIP3    H151047   0.644   4.940  14.080  2.4091  0.4024  0.2338
 9852TIP3    H251048   0.571   5.067  14.040 -0.6536 -1.3425 -0.0240
 9853TIP3   OH251049   3.019   6.633   0.235  0.2463  0.1474 -0.6860
 9853TIP3    H151050   2.989   6.696   0.300  1.2960 -0.0008 -0.0432
 9853TIP3    H251051   2.978   6.662   0.153  0.8295  1.7474 -0.4341
 9854TIP3   OH251052   4.044   3.113   1.884  0.1095  0.3692 -0.1442
 9854TIP3    H151053   3.967   3.169   1.879  0.1925  0.7710  1.9974
 9854TIP3    H251054   4.090   3.127   1.801 -0.0262  3.2524  0.1554
 9855TIP3   OH251055   6.812   4.852   3.209 -0.3772  0.4217 -0.0813
 9855TIP3    H151056   6.785   4.931   3.256  0.5076  0.4538  0.3839
 9855TIP3    H251057   6.889   4.879   3.158 -0.5972  0.0751 -0.6106
 9856TIP3   OH251058   0.210   6.715   4.983  0.3905 -0.0417  0.0359
 9856TIP3    H151059   0.209   6.676   5.071  1.0441  1.0067  0.5247
 9856TIP3    H251060   0.264   6.655   4.931 -0.0378 -0.6924  0.3303
 9857TIP3   OH251061   3.688   2.433  11.770 -0.3860 -0.4018  0.1619
 9857TIP3    H151062   3.641   2.380  11.835  1.1050  1.0485  2.5810
 9857TIP3    H251063   3.629   2.436  11.695 -1.7259 -3.1016  0.9642
 9858TIP3   OH251064   2.992   4.788   4.228  0.0009  0.1092 -0.0086
 9858TIP3    H151065   2.924   4.728   4.198 -0.2007  0.8332 -1.0348
 9858TIP3    H251066   3.003   4.850   4.157  1.7400  0.0286  0.1322
 9859TIP3   OH251067   5.681   6.089   4.237 -0.1263 -0.1700  0.4369
 9859TIP3    H151068   5.675   6.095   4.142 -0.2880  2.5127  0.5550
 9859TIP3    H251069   5.628   6.012   4.260  0.5532 -1.3253 -1.6612
 9860TIP3   OH251070   5.920   4.551  11.784  0.0671 -0.0147 -0.2739
 9860TIP3    H151071   5.849   4.509  11.734  0.1755 -1.0710  0.4054
 9860TIP3    H251072   5.970   4.600  11.719  0.2279 -1.3708 -1.2206
 9861TIP3   OH251073   3.976   6.301  12.208 -0.5300  0.0908  0.5395
 9861TIP3    H151074   3.926   6.229  12.247 -0.7540 -0.2929 -0.4224
 9861TIP3    H251075   3.909   6.365  12.182 -0.6481 -0.7512 -1.4316
 9862TIP3   OH251076   3.772   5.808  14.760  0.2836 -0.2480 -0.8146
 9862TIP3    H151077   3.850   5.802  14.815 -0.0626  2.8228  0.2359
 9862TIP3    H251078   3.726   5.726  14.774  1.6446 -0.7529  1.2153
 9863TIP3   OH251079   4.913   1.314   5.146  0.3767 -0.0531 -0.0171
 9863TIP3    H151080   4.893   1.229   5.183  1.1642 -0.1295  0.2666
 9863TIP3    H251081   4.993   1.300   5.095  1.3816  0.7881  1.2379
 9864TIP3   OH251082   1.091   4.923   0.010 -0.4411 -0.0006  0.1228
 9864TIP3    H151083   1.080   4.828  -0.003  1.2232 -0.2461  0.2609
 9864TIP3    H251084   1.006   4.953   0.042 -1.6375 -1.0816 -1.8472
 9865TIP3   OH251085   2.642   6.023   1.667  0.4171  0.1497  0.2114
 9865TIP3    H151086   2.647   5.944   1.612 -0.9449  0.0810  0.1605
 9865TIP3    H251087   2.663   5.992   1.755  2.5047  0.2392 -0.2061
 9866TIP3   OH251088   1.723   3.573  14.348  0.2315  0.4498  0.3394
 9866TIP3    H151089   1.780   3.597  14.275 -1.6467  1.2581 -0.9551
 9866TIP3    H251090   1.742   3.481  14.365  1.2340  0.4537 -0.6777
 9867TIP3   OH251091   6.144   3.840   1.109  0.1990 -0.4821 -0.0527
 9867TIP3    H151092   6.196   3.763   1.133  2.2740  1.5868  2.7998
 9867TIP3    H251093   6.182   3.869   1.026  2.1314 -0.3688  0.8089
 9868TIP3   OH251094   1.497   2.726  15.754  0.5714 -0.3492 -0.2686
 9868TIP3    H151095   1.464   2.711  15.842 -0.2526  2.0812 -0.0741
 9868TIP3    H251096   1.588   2.697  15.757  0.1372 -1.6896  0.9254
 9869TIP3   OH251097   6.328   6.202  14.288  0.5464  0.0594  0.2833
 9869TIP3    H151098   6.327   6.218  14.382 -0.0483 -1.8317  0.6389
 9869TIP3    H251099   6.367   6.115  14.279  0.6273  0.2284 -1.2217
 9870TIP3   OH251100   4.484   6.046   6.257  0.3311 -0.3146  0.2454
 9870TIP3    H151101   4.489   6.141   6.245 -1.2964  0.0618  2.0175
 9870TIP3    H251102   4.506   6.032   6.349 -0.5868 -1.5179  0.3146
 9871TIP3   OH251103   5.579   4.849  13.043  0.2108  0.3134 -0.4160
 9871TIP3    H151104   5.651   4.792  13.016 -0.2977  0.0655 -1.2924
 9871TIP3    H251105   5.506   4.789  13.059 -0.1548  0.6620 -0.7532
 9872TIP3   OH251106   2.266   6.622   2.902  0.0142  0.0226  0.2066
 9872TIP3    H151107   2.322   6.635   2.825  0.7483  0.1655  0.7523
 9872TIP3    H251108   2.323   6.578   2.965 -0.3897  0.4816  0.9003
 9873TIP3   OH251109   3.610   0.077   0.841 -0.5149  0.0416 -0.2438
 9873TIP3    H151110   3.639   0.143   0.777  2.3525 -1.1649 -0.3148
 9873TIP3    H251111   3.681   0.074   0.905 -1.0339 -2.2738  0.2843
 9874TIP3   OH251112   5.328   6.527  14.571 -0.0373  0.3527  0.0536
 9874TIP3    H151113   5.327   6.606  14.625  0.1176 -0.7095  1.6565
 9874TIP3    H251114   5.371   6.461  14.625  0.7693 -0.5856 -1.6355
 9875TIP3   OH251115   6.422   2.943  16.031 -0.4362 -0.6068 -0.5037
 9875TIP3    H151116   6.372   3.001  16.089  1.2569  0.1171  0.3160
 9875TIP3    H251117   6.355   2.895  15.981 -1.9135  1.7660 -0.9667
 9876TIP3   OH251118   6.706   1.304   1.269  0.0068  0.4645 -0.3639
 9876TIP3    H151119   6.644   1.359   1.221  0.1032  1.8376  1.0196
 9876TIP3    H251120   6.677   1.309   1.360  1.4310  0.1414  0.1331
 9877TIP3   OH251121   0.371   2.809   3.379  0.2561  0.5322  0.3126
 9877TIP3    H151122   0.332   2.723   3.365  0.2448  0.4973  0.5455
 9877TIP3    H251123   0.461   2.801   3.347 -0.0415  0.7274 -0.5926
 9878TIP3   OH251124   1.561   4.437   1.946 -0.5228 -0.2944 -0.3652
 9878TIP3    H151125   1.571   4.532   1.940 -1.1763 -0.1501  0.6302
 9878TIP3    H251126   1.472   4.424   1.979 -0.7943 -1.2904 -1.4153
 9879TIP3   OH251127   3.679   4.228  15.880 -0.3911 -0.3757  0.3502
 9879TIP3    H151128   3.683   4.135  15.861  2.9535 -0.2874 -0.0469
 9879TIP3    H251129   3.630   4.266  15.807  0.8019 -1.5401 -1.1194
 9880TIP3   OH251130   1.384   1.361   0.778  0.3947 -0.4659  0.1656
 9880TIP3    H151131   1.393   1.375   0.684 -3.3250  1.5645 -0.0694
 9880TIP3    H251132   1.320   1.291   0.786  1.1880 -1.1000  1.2358
 9881TIP3   OH251133   1.236   2.778  15.297  0.0208  0.1695 -0.3003
 9881TIP3    H151134   1.217   2.862  15.339  1.5305 -0.1022  1.0393
 9881TIP3    H251135   1.201   2.713  15.357 -1.6420 -0.2147 -1.6001
 9882TIP3   OH251136   3.893   4.783  14.060  0.0322  0.1453 -0.1668
 9882TIP3    H151137   3.844   4.774  13.978 -0.6046 -0.6315  0.2714
 9882TIP3    H251138   3.863   4.708  14.113 -0.2600  1.1319  1.1131
 9883TIP3   OH251139   3.107   1.706   4.245  0.2813  0.1622 -0.5601
 9883TIP3    H151140   3.121   1.616   4.215  1.7236  0.3739 -0.6025
 9883TIP3    H251141   3.139   1.706   4.336 -0.5019  0.4326 -0.2805
 9884TIP3   OH251142   0.276   2.483  16.464 -0.6673 -0.1786  0.2468
 9884TIP3    H151143   0.254   2.557  16.407  0.4219 -0.3738 -0.4588
 9884TIP3    H251144   0.194   2.462  16.509 -1.6203 -0.1520 -1.4022
 9885TIP3   OH251145   1.994   3.574   1.541 -0.2303  0.2101  0.4617
 9885TIP3    H151146   1.971   3.658   1.500  0.8757  0.0575 -0.5164
 9885TIP3    H251147   1.929   3.513   1.507 -0.3840  0.4470  0.3222
 9886TIP3   OH251148   6.487   0.998  11.818 -0.3448 -0.3216 -0.3644
 9886TIP3    H151149   6.478   1.059  11.744 -2.7140  1.8706  1.5234
 9886TIP3    H251150   6.578   1.005  11.845  1.2121 -2.8008 -4.2120
 9887TIP3   OH251151   4.391   0.297  15.612  1.3001  0.1776 -0.5501
 9887TIP3    H151152   4.353   0.327  15.530 -2.2095 -1.8419  0.1000
 9887TIP3    H251153   4.329   0.325  15.679  3.4358  0.7016  1.3407
 9888TIP3   OH251154   5.500   2.852   2.743 -0.1012  0.0489 -0.1894
 9888TIP3    H151155   5.454   2.776   2.705 -1.4432  1.3075 -1.1889
 9888TIP3    H251156   5.443   2.882   2.813  0.7270 -0.2085  0.6112
 9889TIP3   OH251157   1.159   2.847  14.353 -0.0648 -0.1573 -0.6512
 9889TIP3    H151158   1.093   2.779  14.364  1.4632 -1.4021  1.3649
 9889TIP3    H251159   1.133   2.916  14.415 -1.4234  1.0629 -2.4556
 9890TIP3   OH251160   5.885   5.309  12.243 -0.4092 -0.0755  0.0137
 9890TIP3    H151161   5.848   5.397  12.238 -1.6781 -0.5502  0.7709
 9890TIP3    H251162   5.978   5.323  12.260 -0.9107  1.1236  1.9668
 9891TIP3   OH251163   6.026   6.609   6.586  0.0448  1.0032  0.7266
 9891TIP3    H151164   6.076   6.680   6.545  1.5467 -0.8303 -0.8220
 9891TIP3    H251165   6.091   6.554   6.628 -0.5202 -1.4360 -1.2974
 9892TIP3   OH251166   1.168   4.220   2.406 -0.7908  0.4738 -0.0257
 9892TIP3    H151167   1.172   4.127   2.381  1.7916  0.6921 -0.7897
 9892TIP3    H251168   1.098   4.225   2.470 -1.9047 -1.7557 -0.9509
 9893TIP3   OH251169   0.328   0.599  14.330  0.3681 -0.0324  0.1221
 9893TIP3    H151170   0.302   0.680  14.286 -0.9590  0.3482  1.5230
 9893TIP3    H251171   0.296   0.529  14.273  0.1118  0.4444 -0.3269
 9894TIP3   OH251172   6.255   5.457  15.221 -0.0149 -0.3354 -0.0461
 9894TIP3    H151173   6.241   5.550  15.204  0.0856 -0.2596  0.2666
 9894TIP3    H251174   6.177   5.414  15.186 -0.7613  0.0192  1.1235
 9895TIP3   OH251175   3.357   2.085  15.763  0.8016 -0.9464 -0.6021
 9895TIP3    H151176   3.263   2.064  15.762  0.8837 -1.3676 -2.0112
 9895TIP3    H251177   3.373   2.119  15.851 -0.8165 -0.2527 -0.5402
 9896TIP3   OH251178   6.122   3.083  15.755 -0.0539  0.1018 -0.3311
 9896TIP3    H151179   6.133   3.003  15.807  0.4746  0.3494 -0.0623
 9896TIP3    H251180   6.032   3.110  15.773 -0.9597 -1.5388 -1.9863
 9897TIP3   OH251181   1.494   4.254  13.287  0.4647 -0.1791  0.1518
 9897TIP3    H151182   1.572   4.305  13.309  0.3948  0.3667 -0.8230
 9897TIP3    H251183   1.460   4.224  13.371  0.7493  1.0208  0.7054
 9898TIP3   OH251184   3.151   4.094   3.979  0.8088  0.4314 -0.1535
 9898TIP3    H151185   3.118   4.006   4.000 -0.5756  0.7895 -0.7049
 9898TIP3    H251186   3.104   4.118   3.899  1.2340  1.6356 -0.0577
 9899TIP3   OH251187   0.401   0.948   1.396  0.0067 -0.5470 -0.1326
 9899TIP3    H151188   0.373   1.028   1.440  0.6206  1.2152 -2.7143
 9899TIP3    H251189   0.496   0.958   1.386 -0.0042 -1.2453 -1.1133
 9900TIP3   OH251190   3.701   4.072   2.524 -0.6016 -0.5238 -0.0727
 9900TIP3    H151191   3.630   4.016   2.555  0.1432 -0.1673  2.4993
 9900TIP3    H251192   3.695   4.150   2.579  1.2936 -0.1581 -0.3311
 9901TIP3   OH251193   3.501   5.420   2.036 -0.7307  0.4809 -0.4394
 9901TIP3    H151194   3.433   5.373   1.988 -0.8597 -0.3648  0.5575
 9901TIP3    H251195   3.524   5.363   2.108 -0.3303  1.6103  0.3523
 9902TIP3   OH251196   3.962   4.087  15.102  0.2493  0.2701 -0.4519
 9902TIP3    H151197   3.947   4.075  15.008  0.5942  0.3458 -0.5179
 9902TIP3    H251198   3.937   4.004  15.141 -0.9601  0.5988 -0.4797
 9903TIP3   OH251199   3.217   3.853   5.782  0.2077  0.3164 -0.0130
 9903TIP3    H151200   3.143   3.802   5.748  0.0111 -0.2903  1.2650
 9903TIP3    H251201   3.214   3.936   5.733 -1.3002  0.2866 -0.0160
 9904TIP3   OH251202   1.940   5.575   6.611 -0.2605 -0.0717 -0.2167
 9904TIP3    H151203   1.931   5.581   6.516 -3.4504 -0.9787 -0.0626
 9904TIP3    H251204   1.970   5.485   6.627 -1.1665 -0.4082 -0.3428
 9905TIP3   OH251205   1.080   0.033   6.094  0.3052  0.0558 -0.3048
 9905TIP3    H151206   1.000   0.034   6.147  1.5573  1.1214  1.7114
 9905TIP3    H251207   1.111   0.124   6.095  0.1362  0.2619 -3.4316
 9906TIP3   OH251208   4.530   1.505   1.702  0.0957  0.3221 -0.4174
 9906TIP3    H151209   4.532   1.437   1.634  0.9002  0.1772 -0.2616
 9906TIP3    H251210   4.570   1.581   1.660 -0.9811  0.7756 -0.6546
 9907TIP3   OH251211   3.909   4.461  12.357 -0.5524  0.4978 -0.0012
 9907TIP3    H151212   3.977   4.398  12.335  0.4412  0.4778  2.7243
 9907TIP3    H251213   3.910   4.524  12.285  0.5509 -0.8988 -1.2668
 9908TIP3   OH251214   5.965   3.485  13.812  0.1142  0.2806  0.1278
 9908TIP3    H151215   5.956   3.516  13.902  0.8716  2.6734 -0.5400
 9908TIP3    H251216   5.887   3.430  13.798 -0.6018  0.7640  1.8778
 9909TIP3   OH251217   6.303   6.495  13.120 -0.2054 -0.3855  0.2021
 9909TIP3    H151218   6.210   6.480  13.102  0.1883 -1.1002 -1.4272
 9909TIP3    H251219   6.305   6.568  13.181 -1.9152 -1.5535  1.7764
 9910TIP3   OH251220   2.516   3.346  10.492 -0.3475 -0.0875 -0.1334
 9910TIP3    H151221   2.599   3.300  10.476  0.6726  1.2358  1.0452
 9910TIP3    H251222   2.493   3.383  10.407 -0.7928 -2.0728 -0.9294
 9911TIP3   OH251223   3.182   3.072  11.717  0.2237 -1.0365 -0.3891
 9911TIP3    H151224   3.118   3.132  11.755  1.4857 -0.9652  1.8082
 9911TIP3    H251225   3.136   2.987  11.715 -0.5826 -0.6057 -0.7349
 9912TIP3   OH251226   5.622   0.690  13.932 -0.0726 -0.1505  0.0780
 9912TIP3    H151227   5.594   0.779  13.912  1.8936  0.4402 -0.3356
 9912TIP3    H251228   5.687   0.670  13.864 -1.1968 -2.3061 -0.4491
 9913TIP3   OH251229   6.091   0.081  16.499  0.3458  0.1308 -0.0342
 9913TIP3    H151230   6.073   0.005  16.555 -0.9690  0.9806  0.7409
 9913TIP3    H251231   6.038   0.067  16.421  0.7258 -0.1243 -0.2520
 9914TIP3   OH251232   2.468   3.247   0.895  0.0728 -0.3878  0.1562
 9914TIP3    H151233   2.476   3.317   0.959 -0.7875  0.6815 -0.8461
 9914TIP3    H251234   2.373   3.232   0.888  0.1571 -0.5527 -0.7739
 9915TIP3   OH251235   5.916   4.650   5.899 -0.4992 -0.2416  0.6043
 9915TIP3    H151236   5.966   4.626   5.977 -0.7055  0.7892  1.0802
 9915TIP3    H251237   5.824   4.643   5.926 -0.5740  1.2025  0.8422
 9916TIP3   OH251238   5.177   4.227   0.412 -0.6111  0.3704  0.4595
 9916TIP3    H151239   5.193   4.150   0.466  0.7828  0.6426  0.4571
 9916TIP3    H251240   5.189   4.301   0.472 -1.4520  0.6125  0.3425
 9917TIP3   OH251241   3.404   3.672  15.554  0.1277  0.0399  0.0878
 9917TIP3    H151242   3.373   3.616  15.625  0.6427 -0.7265 -0.2881
 9917TIP3    H251243   3.407   3.616  15.477  3.6724 -0.3554  0.3513
 9918TIP3   OH251244   3.256   0.382   4.441 -0.3371 -0.4967 -0.4996
 9918TIP3    H151245   3.226   0.390   4.350 -2.3825  0.1033  0.1846
 9918TIP3    H251246   3.241   0.469   4.478 -0.4606 -1.0127  0.6879
 9919TIP3   OH251247   1.558   0.935   4.976  0.4583 -0.0161 -0.0931
 9919TIP3    H151248   1.580   0.891   4.894  0.1957 -0.3273  0.0011
 9919TIP3    H251249   1.615   1.011   4.979  0.2629  0.1560 -0.7065
 9920TIP3   OH251250   4.475   5.505   0.465 -0.3684 -0.4080 -0.0149
 9920TIP3    H151251   4.478   5.587   0.417 -0.5247  0.5699  1.5686
 9920TIP3    H251252   4.562   5.497   0.504 -0.0074 -1.5492 -0.9753
 9921TIP3   OH251253   3.593   3.336  14.783 -0.0566  0.1604 -0.5420
 9921TIP3    H151254   3.666   3.275  14.769 -0.0141 -0.1109  0.7246
 9921TIP3    H251255   3.594   3.393  14.706  0.8253 -0.5119 -1.0488
 9922TIP3   OH251256   5.474   3.288   3.695  0.0498  0.3332 -0.2099
 9922TIP3    H151257   5.556   3.311   3.739 -0.3675 -1.6944  1.7813
 9922TIP3    H251258   5.440   3.372   3.664  0.6591  1.8556  2.8791
 9923TIP3   OH251259   2.227   2.030  11.757  0.3084 -0.3570  0.1083
 9923TIP3    H151260   2.209   1.941  11.729 -1.2183 -0.3380  0.9545
 9923TIP3    H251261   2.264   2.021  11.845  1.1284 -0.1939 -0.2084
 9924TIP3   OH251262   4.379   4.508  13.209  0.6676 -0.6531 -0.6562
 9924TIP3    H151263   4.433   4.503  13.287 -0.5180 -2.6684  0.1359
 9924TIP3    H251264   4.421   4.448  13.146  1.2926  0.5121 -1.3829
 9925TIP3   OH251265   5.263   5.686   4.734  0.3785 -0.0294 -0.0751
 9925TIP3    H151266   5.344   5.697   4.783  0.0826  1.7443  0.1031
 9925TIP3    H251267   5.202   5.647   4.796  0.2920  1.3040  0.7220
 9926TIP3   OH251268   2.984   3.732   5.300  0.0160 -0.1353 -0.5772
 9926TIP3    H151269   2.932   3.655   5.279 -2.8552  0.9422  1.9532
 9926TIP3    H251270   2.930   3.783   5.360  2.8196  2.6348 -0.1168
 9927TIP3   OH251271   0.986   4.053   5.600  0.2609  0.8666 -0.0051
 9927TIP3    H151272   1.057   3.990   5.595 -1.6173 -1.3672 -0.2392
 9927TIP3    H251273   1.007   4.106   5.677  2.6725  1.0325 -0.6868
 9928TIP3   OH251274   5.916   4.733   0.281  0.2537 -0.1582 -0.6438
 9928TIP3    H151275   5.827   4.742   0.313 -0.0210 -0.7192 -1.2136
 9928TIP3    H251276   5.921   4.642   0.251  1.2045 -0.3108 -0.0654
 9929TIP3   OH251277   5.913   0.109   1.745  0.0264  0.3438  0.2931
 9929TIP3    H151278   5.981   0.044   1.765 -0.9357 -0.6695  0.3799
 9929TIP3    H251279   5.909   0.111   1.649  0.6530  0.9249  0.2744
 9930TIP3   OH251280   5.135   2.087  11.049 -0.0205 -0.3400  0.1857
 9930TIP3    H151281   5.147   2.028  10.974  1.0469 -2.4712  1.9058
 9930TIP3    H251282   5.050   2.063  11.085  0.0045 -0.1635  0.3631
 9931TIP3   OH251283   1.902   3.468   1.110 -0.1809 -0.1226  0.4241
 9931TIP3    H151284   1.975   3.477   1.171 -1.7719  1.4723  2.2520
 9931TIP3    H251285   1.943   3.452   1.025  2.2621  0.4169  1.4220
 9932TIP3   OH251286   0.439   1.119   1.033  0.3545  0.8848 -0.1631
 9932TIP3    H151287   0.495   1.197   1.039 -0.9671  2.0972 -2.2128
 9932TIP3    H251288   0.463   1.078   0.951 -0.2281  0.1439  0.0240
 9933TIP3   OH251289   4.976   5.547   0.589  0.3152 -0.0805 -0.0911
 9933TIP3    H151290   4.982   5.587   0.676  1.0078  0.9528 -0.5899
 9933TIP3    H251291   5.067   5.537   0.561  0.0883  0.6243 -1.1405
 9934TIP3   OH251292   1.722   5.992   2.428 -0.0448 -0.0032 -0.0190
 9934TIP3    H151293   1.713   5.974   2.335  1.4016 -1.9590  0.1439
 9934TIP3    H251294   1.816   5.983   2.445 -0.3089  0.0758  1.6754
 9935TIP3   OH251295   3.176   4.707  14.243  0.0834  0.0913 -0.6993
 9935TIP3    H151296   3.146   4.626  14.203 -1.6122  0.5232 -0.3735
 9935TIP3    H251297   3.183   4.686  14.336  1.7964 -0.2657 -0.8721
 9936TIP3   OH251298   1.284   2.025  12.216 -0.0301 -0.3518  0.3017
 9936TIP3    H151299   1.290   1.931  12.229  2.7542 -0.2795  0.1157
 9936TIP3    H251300   1.331   2.042  12.134 -0.6291  1.1876  0.2265
 9937TIP3   OH251301   3.639   3.058  16.378  0.2699 -0.2664  0.2590
 9937TIP3    H151302   3.700   3.001  16.332 -1.2035 -0.3299 -1.7789
 9937TIP3    H251303   3.557   3.051  16.328 -0.5356  2.1069  1.0749
 9938TIP3   OH251304   5.178   3.768  13.780  0.4650 -0.1484  0.7136
 9938TIP3    H151305   5.148   3.795  13.693 -0.9328 -1.5297  0.7398
 9938TIP3    H251306   5.119   3.814  13.840 -0.0570 -0.9930  0.8501
 9939TIP3   OH251307   2.273   3.650   5.342 -0.6770 -0.6013 -0.5813
 9939TIP3    H151308   2.269   3.678   5.433 -0.3264  1.1425 -1.0677
 9939TIP3    H251309   2.264   3.731   5.291 -0.2124 -1.4506 -2.0906
 9940TIP3   OH251310   3.050   3.526  12.123 -0.0046  0.1241 -0.2768
 9940TIP3    H151311   2.965   3.504  12.084 -0.8462 -0.9460  1.9206
 9940TIP3    H251312   3.095   3.442  12.129  1.2136  0.6828 -1.3762
 9941TIP3   OH251313   5.184   4.106  17.112 -0.8448  0.2604  0.3661
 9941TIP3    H151314   5.118   4.079  17.175 -0.9590 -1.3895 -0.4160
 9941TIP3    H251315   5.267   4.100  17.160 -1.0160 -0.1749  0.6083
 9942TIP3   OH251316   5.320   0.277   5.222 -0.3175 -0.0100  0.0036
 9942TIP3    H151317   5.395   0.237   5.179 -0.3063 -1.7781  1.5546
 9942TIP3    H251318   5.265   0.307   5.149  0.5642 -1.2033 -1.2156
 9943TIP3   OH251319   6.835   2.901  11.490  0.0729 -0.4359  0.0823
 9943TIP3    H151320   6.756   2.944  11.522 -0.0577 -1.6882  1.5825
 9943TIP3    H251321   6.872   2.857  11.567  1.6213 -0.8159 -0.8166
 9944TIP3   OH251322   6.833   0.989  16.452  0.4093  0.1424 -0.2017
 9944TIP3    H151323   6.895   0.946  16.511  0.6508 -0.5743 -0.9601
 9944TIP3    H251324   6.802   0.920  16.394  0.6111  0.9146 -1.2868
 9945TIP3   OH251325   5.512   0.706   2.012  0.0179 -0.1381  0.4670
 9945TIP3    H151326   5.472   0.667   1.935  0.6351  0.5627 -0.2187
 9945TIP3    H251327   5.438   0.728   2.069 -0.5668  0.8384 -0.6441
 9946TIP3   OH251328   5.654   0.728   1.030 -0.1040 -0.3420 -0.0815
 9946TIP3    H151329   5.694   0.670   1.095 -0.6026  0.6805  1.1765
 9946TIP3    H251330   5.587   0.674   0.989  0.1422 -0.9826  0.3275
 9947TIP3   OH251331   0.203   2.719   2.109  0.1335  0.2072 -0.3387
 9947TIP3    H151332   0.284   2.688   2.069  0.3548  0.5495 -0.1580
 9947TIP3    H251333   0.191   2.663   2.186  0.3805  0.3801 -0.1738
 9948TIP3   OH251334   1.749   6.553   4.763 -0.1955 -0.8929 -0.3742
 9948TIP3    H151335   1.673   6.574   4.709  0.3216 -2.5547 -1.8341
 9948TIP3    H251336   1.717   6.558   4.853 -1.2720  1.2026 -0.8190
 9949TIP3   OH251337   2.009   2.788  12.485 -0.2340  0.2859 -0.4487
 9949TIP3    H151338   1.953   2.795  12.407 -2.2667 -2.1234  0.6468
 9949TIP3    H251339   2.092   2.755  12.452 -0.8625 -0.1416 -1.6692
 9950TIP3   OH251340   6.435   1.388   3.702  0.2717 -0.2559 -0.0472
 9950TIP3    H151341   6.413   1.460   3.760  0.6768 -0.6873  0.6511
 9950TIP3    H251342   6.417   1.422   3.614 -0.5532  0.3253  0.3315
 9951TIP3   OH251343   5.450   5.308  14.208 -0.0214  0.0371  0.3698
 9951TIP3    H151344   5.395   5.273  14.278  0.1792  0.6722  0.8521
 9951TIP3    H251345   5.537   5.316  14.247  0.0247  0.6802  0.1458
 9952TIP3   OH251346   4.624   0.972  16.272 -0.1598 -0.4409 -0.0625
 9952TIP3    H151347   4.665   1.029  16.337  1.6737 -0.7461 -0.8760
 9952TIP3    H251348   4.588   0.899  16.323  0.9738 -0.5224  0.6643
 9953TIP3   OH251349   6.107   6.288   0.775  0.6831  0.4445 -0.4946
 9953TIP3    H151350   6.094   6.300   0.681 -0.9610  0.8548 -0.2327
 9953TIP3    H251351   6.175   6.352   0.797 -0.3834  1.8151 -1.0477
 9954TIP3   OH251352   6.491   4.444  14.999  0.4787  0.3487 -0.3765
 9954TIP3    H151353   6.532   4.518  14.956  2.5588  0.1465  1.1240
 9954TIP3    H251354   6.561   4.379  15.007 -0.3686 -0.4001  1.4435
 9955TIP3   OH251355   5.561   6.046  16.132  0.1013 -0.4916 -0.5269
 9955TIP3    H151356   5.520   5.979  16.077  0.5402 -0.6619 -0.6502
 9955TIP3    H251357   5.498   6.118  16.134 -1.3242 -1.6943  1.2657
 9956TIP3   OH251358   0.181   1.514  14.791 -0.2833  0.0122 -0.0679
 9956TIP3    H151359   0.237   1.437  14.779 -4.3021 -3.2205 -0.4447
 9956TIP3    H251360   0.225   1.584  14.743  3.1455 -2.2619 -0.6100
 9957TIP3   OH251361   0.445   5.937  13.627 -0.2072 -0.1407  0.2492
 9957TIP3    H151362   0.368   5.942  13.684 -0.4729 -0.0359 -0.1161
 9957TIP3    H251363   0.507   5.882  13.675 -0.0860  0.6605  1.0353
 9958TIP3   OH251364   0.843   3.159  14.886 -0.1755  0.8195  0.0262
 9958TIP3    H151365   0.828   3.207  14.804 -0.5336 -0.5588 -0.7412
 9958TIP3    H251366   0.865   3.070  14.858 -3.9223 -0.7315  1.4502
 9959TIP3   OH251367   2.246   4.464  13.999 -0.0264 -0.1404  0.0955
 9959TIP3    H151368   2.192   4.408  14.054 -0.8834 -0.2555 -0.8258
 9959TIP3    H251369   2.251   4.417  13.915 -1.0832  1.2967 -0.8349
 9960TIP3   OH251370   5.367   3.870  11.237  0.8075 -0.5976  0.0009
 9960TIP3    H151371   5.334   3.780  11.230  0.2329 -0.2871 -2.6709
 9960TIP3    H251372   5.289   3.924  11.243  1.1641 -0.2344  2.5589
 9961TIP3   OH251373   5.124   5.178   5.611 -0.0044  0.1627  0.1747
 9961TIP3    H151374   5.190   5.247   5.609  1.1666 -0.7764  2.4693
 9961TIP3    H251375   5.175   5.097   5.610 -1.3172 -0.7270 -1.7885
 9962TIP3   OH251376   3.992   6.433  13.339 -1.1407 -0.0273  0.1557
 9962TIP3    H151377   4.041   6.514  13.346 -0.8445 -0.2553  0.8199
 9962TIP3    H251378   4.054   6.369  13.303 -0.9329 -0.3206  1.0150
 9963TIP3   OH251379   5.246   3.902  16.472  0.5123  0.0800 -0.6470
 9963TIP3    H151380   5.211   3.947  16.549 -1.9498  0.5529 -1.9537
 9963TIP3    H251381   5.279   3.973  16.416 -1.7613  0.2041 -1.9261
 9964TIP3   OH251382   0.589   2.914   1.078  0.7847 -0.2363  0.0080
 9964TIP3    H151383   0.672   2.933   1.120  1.3080 -1.7298 -0.2831
 9964TIP3    H251384   0.596   2.956   0.992  1.0895 -0.0393  0.1277
 9965TIP3   OH251385   4.929   0.177   6.492  0.1099 -0.5803  0.6195
 9965TIP3    H151386   4.847   0.221   6.473  0.8734  0.1596 -1.1644
 9965TIP3    H251387   4.967   0.159   6.406  2.4488  0.3605  1.3776
 9966TIP3   OH251388   0.538   3.672   1.264 -0.7642  0.1280  0.2584
 9966TIP3    H151389   0.558   3.636   1.178  1.0763 -0.4541  0.8821
 9966TIP3    H251390   0.453   3.632   1.287 -0.4813 -1.0086 -0.5828
 9967TIP3   OH251391   2.198   6.129  11.622  0.3504  0.2446 -0.0426
 9967TIP3    H151392   2.264   6.165  11.562  0.3588 -0.3910 -0.4317
 9967TIP3    H251393   2.115   6.144  11.577  0.3766 -0.4594 -0.3466
 9968TIP3   OH251394   3.107   1.938   3.721  0.1666  0.3641 -0.0343
 9968TIP3    H151395   3.179   1.877   3.708 -1.0565 -1.2997  0.6666
 9968TIP3    H251396   3.143   2.006   3.777  0.7649 -1.3527  1.7633
 9969TIP3   OH251397   3.379   0.812   2.887 -0.6535 -0.0805 -0.1124
 9969TIP3    H151398   3.319   0.886   2.890  1.1418  1.4223  0.6449
 9969TIP3    H251399   3.370   0.779   2.797 -2.4294  0.2022 -0.0798
 9970TIP3   OH251400   1.998   2.867   0.841  0.4239 -0.3380  0.3693
 9970TIP3    H151401   1.981   2.808   0.768  1.5040 -0.5911  0.3023
 9970TIP3    H251402   2.088   2.848   0.866 -0.4040 -1.4522  2.8550
 9971TIP3   OH251403   3.604   6.203   3.946  0.1407 -0.8916 -0.1451
 9971TIP3    H151404   3.658   6.143   3.998 -0.7941 -1.6734 -0.0367
 9971TIP3    H251405   3.573   6.150   3.873  0.0276 -0.2800 -0.5503
 9972TIP3   OH251406   0.695   3.030   2.676 -0.7177  0.0165  0.0550
 9972TIP3    H151407   0.610   3.061   2.707 -0.7367  0.0677 -0.0496
 9972TIP3    H251408   0.721   3.092   2.608  0.5358  1.4337  1.7449
 9973TIP3   OH251409   4.743   3.846   3.465  0.1245 -0.5681 -0.4951
 9973TIP3    H151410   4.782   3.914   3.520  0.0429 -1.2851  0.4802
 9973TIP3    H251411   4.664   3.820   3.513 -0.6856 -0.2731 -1.6330
 9974TIP3   OH251412   4.112   4.108   3.270 -0.1895  0.0121 -0.0460
 9974TIP3    H151413   4.193   4.083   3.313 -0.7397 -1.3159  0.2754
 9974TIP3    H251414   4.111   4.204   3.273  0.4457 -0.0081  1.6445
 9975TIP3   OH251415   2.798   4.028   5.129 -1.0533  0.3599  0.6803
 9975TIP3    H151416   2.815   4.058   5.040 -1.9339 -0.7713  0.1093
 9975TIP3    H251417   2.798   4.107   5.182  0.3272  0.9586 -0.1816
 9976TIP3   OH251418   1.009   0.183   3.765  0.2689  0.5249  0.3151
 9976TIP3    H151419   0.972   0.096   3.778  0.5173  0.6108  1.7888
 9976TIP3    H251420   1.067   0.174   3.689 -0.6533 -0.2728 -0.3054
 9977TIP3   OH251421   0.382   1.300   0.388  0.6036  0.2547 -0.1512
 9977TIP3    H151422   0.369   1.273   0.297  1.4385 -2.6413  0.4963
 9977TIP3    H251423   0.473   1.280   0.406  0.1668 -0.3140  1.6392
 9978TIP3   OH251424   1.984   2.373   3.151 -0.1958 -0.8260 -0.2363
 9978TIP3    H151425   2.000   2.326   3.233  0.0341 -0.1456  0.1121
 9978TIP3    H251426   2.068   2.373   3.107  0.1926  0.5863  0.4660
 9979TIP3   OH251427   0.557   1.717   0.945  0.4279 -0.0425 -0.3185
 9979TIP3    H151428   0.526   1.779   0.879  0.0025  1.9368  1.6096
 9979TIP3    H251429   0.531   1.756   1.028  1.6356 -2.0307  1.0848
 9980TIP3   OH251430   3.988   2.974  11.285  0.3968 -0.1112 -0.1333
 9980TIP3    H151431   4.020   2.884  11.276  0.7178 -0.0522  0.3345
 9980TIP3    H251432   3.943   2.993  11.203 -0.6084 -1.0678  0.1734
 9981TIP3   OH251433   3.273   5.252   6.619  0.0475 -0.1792  0.0397
 9981TIP3    H151434   3.329   5.329   6.615  1.8097 -1.3896  0.1313
 9981TIP3    H251435   3.332   5.178   6.602 -1.6778 -1.4739 -0.7250
 9982TIP3   OH251436   4.916   3.587  15.429 -0.0972 -0.3701 -0.8152
 9982TIP3    H151437   4.915   3.513  15.368  1.7645 -0.6605 -0.5508
 9982TIP3    H251438   4.868   3.555  15.505 -2.0364 -0.1682 -1.8839
 9983TIP3   OH251439   1.386   6.797   0.801 -0.3673  0.0560  0.2104
 9983TIP3    H151440   1.372   6.843   0.884 -0.7303  1.5181 -0.6213
 9983TIP3    H251441   1.431   6.861   0.745 -0.9619 -0.5617 -1.0136
 9984TIP3   OH251442   5.288   3.695   2.743  0.2970  0.2573 -0.1253
 9984TIP3    H151443   5.261   3.608   2.772  0.7956 -0.0044 -0.4361
 9984TIP3    H251444   5.254   3.754   2.810 -3.0389  0.2081 -1.5634
 9985TIP3   OH251445   5.001   5.892   3.668 -0.1819  0.2240 -0.2747
 9985TIP3    H151446   5.042   5.949   3.603  0.2905 -0.0066 -0.1814
 9985TIP3    H251447   4.917   5.867   3.629  0.6286 -0.9262 -1.3574
 9986TIP3   OH251448   0.984   0.588   3.620 -0.0296 -0.1345 -1.0823
 9986TIP3    H151449   0.975   0.630   3.535 -1.3385 -0.7437 -1.2617
 9986TIP3    H251450   0.926   0.637   3.679 -2.0262 -1.9271 -1.4241
 9987TIP3   OH251451   4.426   0.024  14.435  0.2554 -0.4056  0.5242
 9987TIP3    H151452   4.340  -0.019  14.430 -0.4994  1.0052  0.7750
 9987TIP3    H251453   4.405   0.115  14.453  1.8036  0.0962 -0.1157
 9988TIP3   OH251454   2.395   5.764   2.872  0.0005  0.7038 -0.0205
 9988TIP3    H151455   2.439   5.715   2.803  0.1205 -1.7270  1.6393
 9988TIP3    H251456   2.306   5.729   2.874 -1.6477  4.2611 -2.1076
 9989TIP3   OH251457   4.297   0.934  13.692 -0.2624  0.0227  0.0699
 9989TIP3    H151458   4.375   0.906  13.740 -0.8549  0.9460  1.6762
 9989TIP3    H251459   4.226   0.883  13.730 -0.5373 -0.3330 -0.9158
 9990TIP3   OH251460   6.790   3.128  15.644  0.5042 -0.1026  0.5401
 9990TIP3    H151461   6.720   3.143  15.580 -1.2374 -1.5213  1.9693
 9990TIP3    H251462   6.783   3.201  15.705  1.5459  0.7496 -0.3285
 9991TIP3   OH251463   6.689   4.348   3.120  0.4026  0.3888 -0.4861
 9991TIP3    H151464   6.632   4.345   3.044  0.2825 -0.2403 -0.3804
 9991TIP3    H251465   6.766   4.297   3.094 -0.1323 -0.8135  0.1933
 9992TIP3   OH251466   2.692   4.914  16.987  0.2320 -0.0654 -0.4008
 9992TIP3    H151467   2.771   4.966  16.970 -0.6062  1.0077 -1.0979
 9992TIP3    H251468   2.623   4.978  16.998 -0.7796 -1.0298 -0.9737
 9993TIP3   OH251469   0.785   0.119  10.654 -0.3538 -0.4863  0.0905
 9993TIP3    H151470   0.702   0.136  10.610 -1.1348  2.6026  2.4559
 9993TIP3    H251471   0.839   0.196  10.636  1.1066 -1.3279  0.6202
 9994TIP3   OH251472   3.172   4.558  15.231  0.3443  0.4075 -0.2502
 9994TIP3    H151473   3.263   4.565  15.258 -0.0091 -0.8067  1.3819
 9994TIP3    H251474   3.160   4.631  15.169  2.7217 -0.1553 -1.4880
 9995TIP3   OH251475   5.963   4.448  10.845 -0.3258 -0.8797  0.0052
 9995TIP3    H151476   6.051   4.484  10.853 -1.2561  1.3228  1.1044
 9995TIP3    H251477   5.975   4.365  10.799  2.2533 -0.4314 -0.2574
 9996TIP3   OH251478   4.024   4.834  11.878  0.1062 -0.3873 -0.3833
 9996TIP3    H151479   4.037   4.741  11.858 -0.2341 -0.3858 -0.6080
 9996TIP3    H251480   3.984   4.870  11.799 -0.4815 -0.2115 -0.0086
 9997TIP3   OH251481   0.371   5.315  10.582 -0.4489  0.0156  0.3604
 9997TIP3    H151482   0.416   5.260  10.645 -0.2266 -1.7779 -1.2778
 9997TIP3    H251483   0.305   5.361  10.633 -1.7998 -3.0525  1.5919
 9998TIP3   OH251484   5.768   4.784   2.272 -0.0937 -0.0784 -0.1264
 9998TIP3    H151485   5.794   4.873   2.293  0.9080 -0.8225  2.1293
 9998TIP3    H251486   5.719   4.754   2.349  1.1089 -2.0396 -0.0493
 9999TIP3   OH251487   2.625   3.165   4.345  0.3635 -0.2839  0.4202
 9999TIP3    H151488   2.596   3.232   4.408 -0.2547 -1.7846  1.7961
 9999TIP3    H251489   2.546   3.142   4.297  1.0393  1.6355 -1.7592
10000TIP3   OH251490   0.066   3.009   1.897 -0.8145  0.2145  0.6872
10000TIP3    H151491   0.109   3.001   1.811  1.9878 -0.7112  2.0518
10000TIP3    H251492   0.078   3.101   1.920  3.4699 -0.5034  2.3045
10001TIP3   OH251493   3.890   3.138   4.503 -0.6213  0.0430  0.3828
10001TIP3    H151494   3.869   3.201   4.434  1.3274  0.5094  0.1624
10001TIP3    H251495   3.925   3.062   4.457 -1.0801 -0.4082  0.7646
10002TIP3   OH251496   0.442   6.719  12.193  0.1250  0.0133 -0.5180
10002TIP3    H151497   0.389   6.741  12.270  1.4842  1.8733 -0.0371
10002TIP3    H251498   0.432   6.794  12.135  2.5319  0.6617 -0.2109
10003TIP3   OH251499   0.800   6.669  14.884  0.1932 -0.5181 -0.7457
10003TIP3    H151500   0.755   6.620  14.953 -0.8265 -0.6185 -1.4542
10003TIP3    H251501   0.785   6.761  14.906  1.2096 -0.5292  0.0126
10004TIP3   OH251502   3.957   1.614   4.920  0.0305  0.7838  0.4317
10004TIP3    H151503   3.944   1.708   4.937 -1.4913  0.9013 -1.1036
10004TIP3    H251504   4.015   1.612   4.845  0.7229  0.4605  0.9704
10005TIP3   OH251505   3.652   5.188   4.934  0.2262 -0.5857  0.0713
10005TIP3    H151506   3.715   5.255   4.962  0.4628 -0.7856  0.0218
10005TIP3    H251507   3.638   5.134   5.013  0.5643 -0.8904 -0.0738
10006TIP3   OH251508   6.635   6.450  12.798 -0.1760 -0.2295  0.2335
10006TIP3    H151509   6.659   6.429  12.888  1.5844 -0.7308 -0.3247
10006TIP3    H251510   6.553   6.403  12.784 -0.1249 -0.6916  1.3535
10007TIP3   OH251511   5.561   1.054  16.614 -0.1328 -0.2923 -0.2309
10007TIP3    H151512   5.631   1.119  16.612  0.8132 -1.3059 -0.8480
10007TIP3    H251513   5.606   0.970  16.627 -1.3701 -0.7826  1.3035
10008TIP3   OH251514   2.183   6.357  13.157  0.0897 -0.1548 -0.1070
10008TIP3    H151515   2.120   6.371  13.087 -2.6119  1.5453  2.4062
10008TIP3    H251516   2.268   6.375  13.117 -1.1061 -0.8464 -3.2544
10009TIP3   OH251517   4.733   2.074  14.379  0.5714 -0.1452  0.0530
10009TIP3    H151518   4.694   2.157  14.350  1.5965 -0.0139 -1.0008
10009TIP3    H251519   4.727   2.017  14.303 -0.9677 -1.3962  1.0322
10010TIP3   OH251520   0.028   1.427  15.516 -0.0569  0.3759 -0.0872
10010TIP3    H151521   0.086   1.437  15.592 -2.1814  2.1068  1.4704
10010TIP3    H251522  -0.025   1.350  15.536 -0.8789  1.0553  0.4299
10011TIP3   OH251523   5.927   2.022  16.134 -0.2534  0.5984 -0.2564
10011TIP3    H151524   6.003   1.976  16.170  0.1025  0.6065 -0.9755
10011TIP3    H251525   5.858   1.955  16.133  0.3196 -0.0110 -1.4869
10012TIP3   OH251526   0.481   0.689   6.009 -0.2921  0.5101 -0.0646
10012TIP3    H151527   0.426   0.740   6.068 -0.2654  0.2801  0.1617
10012TIP3    H251528   0.488   0.603   6.051 -1.2782 -0.0576 -1.0084
10013TIP3   OH251529   0.276   3.234  13.328 -0.0335 -0.1177 -0.0757
10013TIP3    H151530   0.290   3.306  13.390  1.0092  1.0185 -1.5583
10013TIP3    H251531   0.333   3.255  13.254  0.3432 -2.5199 -0.5405
10014TIP3   OH251532   5.854   2.511   0.001  0.0974  0.2263  0.1733
10014TIP3    H151533   5.940   2.546  -0.023  0.6463 -0.7185  0.6999
10014TIP3    H251534   5.874   2.439   0.061 -1.0123 -0.6590 -0.4914
10015TIP3   OH251535   1.305   6.168  10.890 -0.8885  0.4807 -0.2162
10015TIP3    H151536   1.362   6.242  10.869  1.8506 -1.6166 -0.8257
10015TIP3    H251537   1.229   6.179  10.833 -0.4045  2.5676 -0.5524
10016TIP3   OH251538   4.953   1.864   1.744  0.1827  0.2331  0.2096
10016TIP3    H151539   4.970   1.842   1.652  0.9028  0.3465  0.3050
10016TIP3    H251540   4.939   1.958   1.744  1.0608  0.3736  0.3235
10017TIP3   OH251541   0.584   5.964  14.790  0.6314  0.2862 -0.2592
10017TIP3    H151542   0.596   5.988  14.698  0.4159  0.9580 -0.1202
10017TIP3    H251543   0.549   6.043  14.831 -0.2124 -0.2970  0.1983
10018TIP3   OH251544   4.670   1.349   1.386  0.2001 -0.0009  0.1584
10018TIP3    H151545   4.601   1.403   1.350 -0.6074 -1.4464 -0.5464
10018TIP3    H251546   4.630   1.306   1.462 -0.0061 -1.5056 -0.7511
10019TIP3   OH251547   1.506   4.549  14.650  0.7133 -0.3339  0.1970
10019TIP3    H151548   1.597   4.574  14.662  0.6260  1.6389 -2.4054
10019TIP3    H251549   1.487   4.568  14.558 -2.4751 -0.1562  0.7659
10020TIP3   OH251550   5.556   3.701   3.211 -0.1776  0.1192 -0.5605
10020TIP3    H151551   5.520   3.721   3.125  0.8004 -0.9569 -1.2576
10020TIP3    H251552   5.585   3.610   3.204  0.3738  0.1666  0.7526
10021TIP3   OH251553   4.289   5.359   5.762 -0.5288  0.4610 -0.6374
10021TIP3    H151554   4.309   5.440   5.810 -3.3474  1.3849 -0.8583
10021TIP3    H251555   4.346   5.362   5.686 -0.5257  2.2316 -0.6075
10022TIP3   OH251556   4.909   3.082  16.230 -0.2490  0.0845  0.2838
10022TIP3    H151557   4.941   3.042  16.311  0.6946 -2.9823 -1.4335
10022TIP3    H251558   4.813   3.085  16.241 -0.3949 -2.7821  0.5966
10023TIP3   OH251559   0.511   3.997  14.622  0.1036 -0.0724 -0.8800
10023TIP3    H151560   0.544   4.069  14.675  0.9231 -1.2458  0.2668
10023TIP3    H251561   0.586   3.969  14.570 -0.6440  0.9506 -2.6114
10024TIP3   OH251562   6.673   6.774   0.615 -0.4095 -0.0382 -0.3866
10024TIP3    H151563   6.768   6.769   0.613 -0.4703 -1.3467 -0.5395
10024TIP3    H251564   6.644   6.684   0.626 -1.6738  0.1686 -1.7353
10025TIP3   OH251565   2.871   5.773  16.523 -0.6942  0.1778 -0.0138
10025TIP3    H151566   2.796   5.825  16.494 -1.0636  0.8159  1.9522
10025TIP3    H251567   2.942   5.837  16.534  0.8880 -0.6654 -3.8517
10026TIP3   OH251568   5.010   2.291   6.556  0.1313 -0.2587  0.5885
10026TIP3    H151569   5.045   2.255   6.637  0.9816  0.2145  0.4405
10026TIP3    H251570   5.087   2.309   6.502 -0.3526  0.4732  0.1182
10027TIP3   OH251571   3.546   6.844  15.923 -0.5642  0.2039  0.2805
10027TIP3    H151572   3.474   6.898  15.890 -0.5572 -0.4674 -0.9001
10027TIP3    H251573   3.545   6.767  15.867 -0.9905 -1.3759  2.3168
10028TIP3   OH251574   4.521   6.560   4.515 -0.0335  0.2467 -0.1839
10028TIP3    H151575   4.442   6.565   4.461 -1.9591 -0.7109  2.3112
10028TIP3    H251576   4.551   6.651   4.523 -1.0494  0.6642 -0.9252
10029TIP3   OH251577   1.392   1.092  15.319 -0.4072 -0.0653  0.1211
10029TIP3    H151578   1.318   1.150  15.303  0.6897  1.3085 -0.2055
10029TIP3    H251579   1.445   1.137  15.385  0.1533 -1.0101  0.3479
10030TIP3   OH251580   3.697   0.398   4.017  0.1430  0.2510  0.2773
10030TIP3    H151581   3.718   0.390   3.924 -1.6173  0.2496 -0.1516
10030TIP3    H251582   3.759   0.339   4.061 -0.0421 -0.9687 -1.0361
10031TIP3   OH251583   5.936   2.128  13.277 -0.2987  0.0791 -0.3118
10031TIP3    H151584   5.993   2.204  13.267 -0.9488  0.3868 -2.0362
10031TIP3    H251585   5.996   2.054  13.286  0.3843  0.4613 -1.5097
10032TIP3   OH251586   2.132   0.783  16.756  0.4812 -0.0638 -0.3456
10032TIP3    H151587   2.177   0.841  16.696  1.8721 -2.7769 -2.1111
10032TIP3    H251588   2.056   0.751  16.707 -0.6079  0.6239  0.8140
10033TIP3   OH251589   6.370   1.462   3.004  0.4791 -0.1208  0.8654
10033TIP3    H151590   6.430   1.493   2.936  0.2065 -0.1907  0.5895
10033TIP3    H251591   6.350   1.372   2.978 -2.2202  0.8263 -0.8461
10034TIP3   OH251592   5.865   5.248  12.589 -0.1262 -0.2200 -0.0233
10034TIP3    H151593   5.902   5.336  12.594  0.1998 -0.3910  0.8432
10034TIP3    H251594   5.888   5.209  12.673 -0.2621 -1.1356 -0.4087
10035TIP3   OH251595   4.459   5.077  12.931 -0.4897  0.1380 -0.1954
10035TIP3    H151596   4.378   5.114  12.894 -0.7029 -1.1976 -1.1273
10035TIP3    H251597   4.428   5.010  12.992 -0.1111  1.5976  1.7064
10036TIP3   OH251598   5.570   4.719  14.246  0.3142  0.0717  0.5591
10036TIP3    H151599   5.597   4.760  14.164 -0.0668 -1.0559 -0.1572
10036TIP3    H251600   5.505   4.654  14.220 -1.3191  1.0549  1.9729
10037TIP3   OH251601   2.061   4.407  16.505  0.2043  0.1149 -0.1667
10037TIP3    H151602   2.101   4.337  16.451  0.8065  0.7394 -0.5467
10037TIP3    H251603   2.115   4.484  16.487  0.1100  0.4565  0.9686
10038TIP3   OH251604   0.016   2.818  16.077  0.8436  0.1539  0.3456
10038TIP3    H151605  -0.062   2.850  16.032  0.2926 -1.9514 -0.3419
10038TIP3    H251606   0.056   2.758  16.014  0.9618 -1.6273  2.0324
10039TIP3   OH251607   3.265   3.510  15.709 -0.1645  0.4315  0.3247
10039TIP3    H151608   3.221   3.441  15.660  0.7074 -0.6705  1.0701
10039TIP3    H251609   3.195   3.554  15.757 -0.6450 -0.3523  0.3496
10040TIP3   OH251610   4.563   5.702  14.642 -0.2239  0.1608  0.3197
10040TIP3    H151611   4.556   5.609  14.664 -0.8870  0.1239 -0.0290
10040TIP3    H251612   4.647   5.729  14.680  0.4798 -0.8234 -0.4679
10041TIP3   OH251613   0.027   6.216   1.837  0.0313  0.1658 -0.3819
10041TIP3    H151614  -0.053   6.262   1.810  0.2511  1.5910  1.2073
10041TIP3    H251615   0.091   6.286   1.851  0.5464 -0.6352  1.6088
10042TIP3   OH251616   4.466   5.412  15.262 -0.1811 -1.1539 -0.2546
10042TIP3    H151617   4.438   5.453  15.343  1.0779 -0.0941 -0.3205
10042TIP3    H251618   4.385   5.396  15.213 -0.8133 -0.1747  0.4458
10043TIP3   OH251619   6.502   4.385  14.187  0.4112  0.2808  0.2654
10043TIP3    H151620   6.490   4.473  14.150 -0.1184  0.2268  0.3061
10043TIP3    H251621   6.577   4.395  14.246  0.3207  0.7230  0.3136
10044TIP3   OH251622   3.232   4.431  13.131  0.1847 -0.8596 -0.1575
10044TIP3    H151623   3.264   4.366  13.068 -1.2000 -1.6818 -0.0406
10044TIP3    H251624   3.294   4.426  13.204 -0.0500 -2.2359 -0.0426
10045TIP3   OH251625   6.531   5.362   4.513  0.0307  0.6258 -0.3049
10045TIP3    H151626   6.594   5.302   4.554 -0.1161 -0.4608 -1.5990
10045TIP3    H251627   6.501   5.418   4.585  1.0391 -0.0971  0.7151
10046TIP3   OH251628   5.169   4.356  11.233  0.4018 -0.0741 -0.0192
10046TIP3    H151629   5.219   4.411  11.174 -1.4653  1.6079 -0.1314
10046TIP3    H251630   5.220   4.356  11.315  1.1223  0.6594 -0.4550
10047TIP3   OH251631   1.917   5.250   1.450 -0.4989  0.2398  0.3322
10047TIP3    H151632   1.882   5.240   1.362 -4.2335 -0.7941  1.7421
10047TIP3    H251633   1.959   5.166   1.469 -0.3704  0.1829 -0.1898
10048TIP3   OH251634   4.847   2.332   5.363 -0.0606  0.2154  0.0116
10048TIP3    H151635   4.771   2.327   5.304 -0.1836 -1.7589  0.2829
10048TIP3    H251636   4.816   2.295   5.446  1.4780 -1.7341 -0.2156
10049TIP3   OH251637   3.281   3.413   0.661  0.5753  1.0885  0.3000
10049TIP3    H151638   3.224   3.474   0.708  0.1560  0.2600  0.9010
10049TIP3    H251639   3.223   3.367   0.601  0.8045  0.9578  0.1775
10050TIP3   OH251640   4.480   4.666  11.119  0.3752  0.2097  0.1314
10050TIP3    H151641   4.433   4.702  11.194 -1.0260 -0.1052 -0.5493
10050TIP3    H251642   4.522   4.742  11.078  1.6483  0.2973  1.5304
10051TIP3   OH251643   3.072   1.268  11.605  0.0999  0.1771  0.1289
10051TIP3    H151644   2.977   1.257  11.609  0.2238 -1.5867 -1.0000
10051TIP3    H251645   3.086   1.334  11.537 -0.3138  0.6670  0.5151
10052TIP3   OH251646   6.023   5.692   2.392  0.4285  0.0262  0.4333
10052TIP3    H151647   6.028   5.702   2.297 -1.2162  1.6281  0.4576
10052TIP3    H251648   6.020   5.598   2.406 -0.3956 -0.2301 -1.1963
10053TIP3   OH251649   6.147   2.784  15.510  0.1153 -0.4779  0.1320
10053TIP3    H151650   6.178   2.694  15.505 -1.9352 -1.1700 -0.8667
10053TIP3    H251651   6.072   2.781  15.569 -1.0471  0.2195 -1.2556
10054TIP3   OH251652   3.005   6.518  12.819  0.7371 -0.0843  0.0279
10054TIP3    H151653   2.932   6.522  12.757  1.1927  0.2222 -0.5025
10054TIP3    H251654   2.995   6.597  12.873  0.2299 -0.4499  0.4793
10055TIP3   OH251655   5.840   2.677   3.006  0.1855  0.2891  0.0338
10055TIP3    H151656   5.746   2.683   2.993  0.1676  1.2168  0.5413
10055TIP3    H251657   5.871   2.621   2.934 -0.5023  1.5393 -1.2751
10056TIP3   OH251658   1.719   4.681  15.632 -0.7485 -0.3415  0.9938
10056TIP3    H151659   1.722   4.601  15.578  0.6428  0.8598 -0.8107
10056TIP3    H251660   1.641   4.727  15.601 -0.6799 -0.2620  0.9408
10057TIP3   OH251661   0.033   5.697   5.060 -0.0525  0.1681 -0.1652
10057TIP3    H151662  -0.002   5.675   5.147  1.6201  0.5261  0.6390
10057TIP3    H251663   0.125   5.718   5.076 -0.2048  2.3339 -1.6853
10058TIP3   OH251664   2.834   2.849   4.647 -0.4645 -0.1537 -0.3873
10058TIP3    H151665   2.922   2.884   4.658 -0.9853  1.9406 -2.0950
10058TIP3    H251666   2.829   2.775   4.707  2.2808 -0.0386  0.0810
10059TIP3   OH251667   0.661   5.341   1.948  0.0583  0.3354 -0.3456
10059TIP3    H151668   0.745   5.378   1.920  0.5896 -0.2780  0.3886
10059TIP3    H251669   0.603   5.352   1.872  1.4531 -1.3341 -1.7297
10060TIP3   OH251670   6.363   2.176   4.816  0.1210 -0.5533 -0.0494
10060TIP3    H151671   6.307   2.132   4.880  0.9834 -1.9013 -0.1880
10060TIP3    H251672   6.409   2.244   4.866  1.6153 -2.2898  1.0607
10061TIP3   OH251673   0.236   3.756   1.774  0.2374  0.0950  0.5412
10061TIP3    H151674   0.159   3.701   1.767 -0.0616  0.5704 -0.0556
10061TIP3    H251675   0.284   3.741   1.692  1.0453 -0.5847  1.1275
10062TIP3   OH251676   4.733   0.374  14.018  0.4674 -0.0791  0.0714
10062TIP3    H151677   4.754   0.467  14.012 -0.0267  0.0300  0.0337
10062TIP3    H251678   4.818   0.330  14.008  0.7187  0.3679  0.2244
10063TIP3   OH251679   5.599   1.017   0.716  0.3016  0.5843 -0.3117
10063TIP3    H151680   5.675   1.024   0.657 -0.1675 -0.2232 -1.0351
10063TIP3    H251681   5.525   1.044   0.662  0.0530  1.2711  0.3644
10064TIP3   OH251682   1.873   1.525   5.354 -0.0238 -0.4160  0.8474
10064TIP3    H151683   1.860   1.565   5.440  0.9309 -1.1116  1.3356
10064TIP3    H251684   1.951   1.471   5.364  2.6556  2.6013 -1.5141
10065TIP3   OH251685   1.899   3.240   0.180  0.0604 -0.2990  0.3038
10065TIP3    H151686   1.945   3.271   0.258 -0.4798 -0.8128  0.8424
10065TIP3    H251687   1.806   3.246   0.203 -0.1096 -0.4467 -0.3094
10066TIP3   OH251688   5.196   2.562   1.551  0.3008  0.8016 -0.6287
10066TIP3    H151689   5.215   2.654   1.533  0.5041  0.3856 -2.9568
10066TIP3    H251690   5.279   2.517   1.533 -0.4391 -0.0748 -2.0259
10067TIP3   OH251691   1.372   4.739   0.466 -0.3581  0.2016 -0.1998
10067TIP3    H151692   1.375   4.749   0.371 -0.0668  1.8385 -0.0502
10067TIP3    H251693   1.401   4.649   0.482 -1.2743 -0.3840 -1.6950
10068TIP3   OH251694   2.843   5.096  11.431  0.0838 -0.6779  0.1786
10068TIP3    H151695   2.774   5.080  11.366 -1.8598 -0.0950  1.9888
10068TIP3    H251696   2.814   5.174  11.479  1.3931 -1.1246  1.8071
10069TIP3   OH251697   1.574   1.563  13.407 -0.0302 -0.2682  0.6296
10069TIP3    H151698   1.615   1.642  13.372 -2.9552  1.4484  0.7061
10069TIP3    H251699   1.639   1.527  13.468  2.6671  0.1817 -1.8024
10070TIP3   OH251700   1.163   2.575   3.048  0.6023  0.5901 -0.0772
10070TIP3    H151701   1.153   2.667   3.074 -0.7241  0.6740 -0.7761
10070TIP3    H251702   1.250   2.550   3.080  1.4486  2.4038 -0.8255
10071TIP3   OH251703   5.615   0.978  10.638  0.3488 -0.1160  0.0956
10071TIP3    H151704   5.547   0.971  10.571  2.8070  1.9036 -2.8584
10071TIP3    H251705   5.676   0.908  10.618  2.2406  1.8173 -1.3633
10072TIP3   OH251706   6.040   4.131   1.567 -0.7122  0.0277  0.1694
10072TIP3    H151707   5.971   4.153   1.630 -0.6737  0.9051 -0.0788
10072TIP3    H251708   6.121   4.163   1.608 -0.6674  0.4511 -0.2438
10073TIP3   OH251709   0.512   5.253   5.516 -0.0817 -0.1794  0.3537
10073TIP3    H151710   0.418   5.248   5.505 -0.0753 -0.7777  0.5354
10073TIP3    H251711   0.525   5.315   5.588 -0.3474 -0.2993  0.5048
10074TIP3   OH251712   3.697   0.482   1.369 -0.3525  0.2582 -0.7059
10074TIP3    H151713   3.670   0.530   1.448  0.2246 -0.6340  0.0560
10074TIP3    H251714   3.693   0.547   1.299 -2.2433  0.7414 -0.2277
10075TIP3   OH251715   4.355   4.013   2.382 -0.4429 -0.5063  0.0564
10075TIP3    H151716   4.310   3.928   2.384 -2.6788  0.5851  1.0291
10075TIP3    H251717   4.313   4.061   2.310  0.1220  0.0875  0.1128
10076TIP3   OH251718   5.216   1.430  13.912  0.4815 -0.0445 -0.0491
10076TIP3    H151719   5.309   1.438  13.932  0.6192  0.7208 -0.9724
10076TIP3    H251720   5.213   1.378  13.832  0.0990 -0.2367  0.0878
10077TIP3   OH251721   0.294   6.201  11.302 -0.0844  0.2784  0.0187
10077TIP3    H151722   0.359   6.132  11.308 -0.0099  0.4163  1.0587
10077TIP3    H251723   0.212   6.159  11.327 -0.5950 -0.1080 -2.1211
10078TIP3   OH251724   3.967   5.797  15.630  0.1071 -0.9869  0.2277
10078TIP3    H151725   3.998   5.880  15.665  3.0059 -1.8917  0.0062
10078TIP3    H251726   3.911   5.822  15.557 -0.2563  0.7670  1.0412
10079TIP3   OH251727   2.494   1.493  14.592 -0.5108 -0.3328 -0.1454
10079TIP3    H151728   2.520   1.423  14.533  0.3074  0.3941 -0.6717
10079TIP3    H251729   2.402   1.508  14.573 -0.2774 -0.1693 -1.1661
10080TIP3   OH251730   5.399   6.246   5.580 -0.1711  0.1727  0.6712
10080TIP3    H151731   5.433   6.190   5.510  0.5183  1.8017 -0.3422
10080TIP3    H251732   5.309   6.215   5.593 -0.2771 -0.2504 -0.8423
10081TIP3   OH251733   1.781   6.830  11.450 -0.1854 -0.2352 -0.3036
10081TIP3    H151734   1.798   6.909  11.502  0.0244  0.5723 -1.5391
10081TIP3    H251735   1.714   6.782  11.499 -0.6293  0.9301  0.2701
10082TIP3   OH251736   1.642   5.402  16.663 -0.0527  0.0395 -0.2364
10082TIP3    H151737   1.551   5.433  16.669 -0.5865 -1.3836 -0.5889
10082TIP3    H251738   1.639   5.312  16.696  0.4607 -1.4243 -3.7113
10083TIP3   OH251739   3.994   1.274  14.568  0.0170  0.7050  0.1195
10083TIP3    H151740   3.957   1.274  14.657  0.4879  0.4993  0.3221
10083TIP3    H251741   3.937   1.215  14.519  0.4821 -0.1770  0.6135
10084TIP3   OH251742   2.061   4.420   1.745  0.2077  0.1329  0.6024
10084TIP3    H151743   1.969   4.400   1.727  0.5151 -1.5815  0.7295
10084TIP3    H251744   2.087   4.477   1.673 -0.8923  0.4637  0.4409
10085TIP3   OH251745   6.053   0.081  15.302 -0.4596 -0.3333 -0.1238
10085TIP3    H151746   6.049   0.007  15.363  1.7275  0.0194  0.5078
10085TIP3    H251747   6.146   0.096  15.288 -0.8804  1.3120 -1.4947
10086TIP3   OH251748   0.110   1.711   3.284  0.5907  0.3307  0.2213
10086TIP3    H151749   0.047   1.642   3.304  0.9940 -0.3501 -0.7619
10086TIP3    H251750   0.097   1.776   3.352  0.1848 -0.7060  1.1619
10087TIP3   OH251751   5.297   0.378  15.644  0.5085 -0.2395 -0.4990
10087TIP3    H151752   5.286   0.422  15.560 -1.9834 -1.7475 -1.0331
10087TIP3    H251753   5.347   0.299  15.624  0.5586 -0.2329 -0.4061
10088TIP3   OH251754   6.382   5.575  12.317  0.3964 -0.3724 -0.0596
10088TIP3    H151755   6.391   5.533  12.403 -0.3704 -2.2425 -0.8389
10088TIP3    H251756   6.465   5.557  12.273  0.0731 -1.1174 -0.3883
10089TIP3   OH251757   5.580   1.636   0.539 -0.5123  0.1547 -0.4150
10089TIP3    H151758   5.504   1.619   0.594 -0.9105 -1.5036 -1.4144
10089TIP3    H251759   5.610   1.723   0.566 -1.8332  0.1983  1.0501
10090TIP3   OH251760   1.898   3.308   0.851  0.7363  0.2605 -0.2073
10090TIP3    H151761   1.906   3.236   0.913  0.9469  0.1427 -0.3711
10090TIP3    H251762   1.957   3.286   0.779 -1.1489 -0.7294 -1.5593
10091TIP3   OH251763   6.587   0.050  15.823 -0.3789  0.1997  0.3586
10091TIP3    H151764   6.522   0.019  15.760  0.0803 -1.8521  0.8202
10091TIP3    H251765   6.651   0.098  15.770  0.2940 -1.9359 -0.8942
10092TIP3   OH251766   2.531   3.243  16.283 -0.1129  0.1435 -0.0771
10092TIP3    H151767   2.573   3.281  16.359 -0.2755 -0.7703  0.4841
10092TIP3    H251768   2.439   3.268  16.291 -0.0645  0.3509 -0.1671
10093TIP3   OH251769   3.324   1.731   1.362 -0.7879 -0.3241  0.5538
10093TIP3    H151770   3.417   1.708   1.370 -0.6212  0.6429  1.7492
10093TIP3    H251771   3.319   1.784   1.283 -0.6543 -1.8335 -0.5124
10094TIP3   OH251772   6.480   1.136   3.594  0.0156  0.0557  0.5704
10094TIP3    H151773   6.430   1.207   3.634  2.4479  2.3835 -0.2564
10094TIP3    H251774   6.531   1.098   3.665 -1.9864 -1.6516  1.2090
10095TIP3   OH251775   0.454   2.821  14.703  0.0803 -0.2034 -0.3967
10095TIP3    H151776   0.395   2.890  14.672  1.0433  0.6734 -0.3402
10095TIP3    H251777   0.431   2.744  14.651  1.0650  0.9899 -2.7133
10096TIP3   OH251778   4.908   2.291  15.984  0.5283  0.1426  0.3454
10096TIP3    H151779   4.958   2.368  16.011  1.4858 -0.2816 -0.1597
10096TIP3    H251780   4.936   2.222  16.044  0.2391 -0.0048  0.3124
10097TIP3   OH251781   3.359   0.482   2.871  0.2104  0.6314  0.5821
10097TIP3    H151782   3.416   0.558   2.857 -0.8416  1.4344  0.5081
10097TIP3    H251783   3.376   0.426   2.796  1.0628  0.7523  0.6755
10098TIP3   OH251784   1.420   2.184  10.538  0.1602 -1.3612  0.1046
10098TIP3    H151785   1.454   2.098  10.562  1.9245 -0.2491  1.9157
10098TIP3    H251786   1.493   2.228  10.494 -0.6875 -0.7551 -0.7385
10099TIP3   OH251787   2.470   3.331   4.583  0.7053  0.6293  0.7011
10099TIP3    H151788   2.476   3.406   4.524 -0.0490 -0.4340 -0.8106
10099TIP3    H251789   2.376   3.322   4.601  0.5710 -0.9405 -0.5553
10100TIP3   OH251790   6.630   0.399  13.025 -0.2932  0.2093 -0.1991
10100TIP3    H151791   6.562   0.457  12.989 -0.1562  0.3598 -0.2143
10100TIP3    H251792   6.712   0.446  13.012 -0.3359  0.7601  1.2582
10101TIP3   OH251793   3.408   0.889  12.804 -0.2514 -1.0085  0.2044
10101TIP3    H151794   3.490   0.926  12.770  0.4554 -0.4443  2.3421
10101TIP3    H251795   3.436   0.831  12.875 -1.6968 -0.1599  1.5465
10102TIP3   OH251796   3.400   4.494  13.348  0.5347 -0.4392  0.1672
10102TIP3    H151797   3.356   4.579  13.345 -1.1484 -1.2921 -2.2421
10102TIP3    H251798   3.472   4.506  13.409 -1.1391  1.9829  1.8489
10103TIP3   OH251799   0.254   3.226  12.635  0.1943  0.6950  0.1717
10103TIP3    H151800   0.244   3.309  12.682 -0.3855  1.0875 -0.6253
10103TIP3    H251801   0.165   3.203  12.607  0.6305  0.9431 -1.5203
10104TIP3   OH251802   0.014   6.602  13.417  0.1837 -0.4106 -0.0601
10104TIP3    H151803   0.094   6.655  13.424  0.9134 -1.4030 -0.5681
10104TIP3    H251804  -0.001   6.571  13.506  0.1025  0.1285  0.1212
10105TIP3   OH251805   2.921   3.664  17.086 -0.1581  0.3306  0.5688
10105TIP3    H151806   2.962   3.746  17.114 -1.4081  0.7951  1.1104
10105TIP3    H251807   2.900   3.678  16.994  0.7089  0.1543  0.3337
10106TIP3   OH251808   4.729   2.153  15.225 -0.6065  0.0424  0.3985
10106TIP3    H151809   4.817   2.176  15.197 -0.9155 -0.6414 -1.2302
10106TIP3    H251810   4.730   2.057  15.230 -1.7372 -0.1006 -1.4184
10107TIP3   OH251811   5.472   0.787  13.533  1.0356 -0.1770 -0.1560
10107TIP3    H151812   5.512   0.849  13.593  0.9627 -1.0581  0.8346
10107TIP3    H251813   5.545   0.735  13.500  0.8306 -1.2758  1.0547
10108TIP3   OH251814   2.013   0.340  14.912 -0.0793  0.5672 -0.0686
10108TIP3    H151815   1.972   0.416  14.870 -1.2350 -0.8810 -1.6640
10108TIP3    H251816   1.952   0.318  14.983  0.3462  1.2057  0.5086
10109TIP3   OH251817   3.750   2.655  12.051 -0.3864  0.0782 -0.1752
10109TIP3    H151818   3.799   2.646  12.133 -0.6258  0.6037  0.0305
10109TIP3    H251819   3.736   2.749  12.042 -0.8341 -0.0213 -0.5438
10110TIP3   OH251820   5.670   4.692   5.329 -0.3124 -0.8668 -0.2633
10110TIP3    H151821   5.709   4.625   5.385  0.2428 -0.7831 -0.5450
10110TIP3    H251822   5.648   4.764   5.388 -1.0731 -1.3536  0.0679
10111TIP3   OH251823   1.592   3.918  11.515 -0.1207  0.0487 -0.5667
10111TIP3    H151824   1.652   3.844  11.512  0.3305  0.4421 -2.2482
10111TIP3    H251825   1.532   3.897  11.587  1.3541 -0.8555  0.4487
10112TIP3   OH251826   2.102   2.498   0.795 -0.0143  1.3535  0.0338
10112TIP3    H151827   2.066   2.538   0.874 -0.2893 -0.8315  1.0695
10112TIP3    H251828   2.053   2.417   0.784  2.3377 -0.1179 -0.3633
10113TIP3   OH251829   6.694   2.848  13.246  0.3123 -0.0466 -0.2702
10113TIP3    H151830   6.715   2.759  13.218  0.2127  0.2959 -1.5268
10113TIP3    H251831   6.748   2.864  13.323 -0.9829 -1.8210  1.0904
10114TIP3   OH251832   1.518   0.231  14.210  0.4065 -0.1920  0.0959
10114TIP3    H151833   1.552   0.150  14.172 -0.0885  0.0128 -0.8192
10114TIP3    H251834   1.429   0.209  14.238  0.7634 -0.3385  1.1622
10115TIP3   OH251835   3.940   0.488  11.159  0.6993 -0.5819 -0.1063
10115TIP3    H151836   3.976   0.572  11.185 -0.8969  0.1383 -0.0739
10115TIP3    H251837   3.893   0.506  11.078  0.9020 -1.5933 -0.4670
10116TIP3   OH251838   1.261   4.499   2.452 -0.2933  0.1251 -0.1534
10116TIP3    H151839   1.201   4.511   2.526 -0.8487  0.3388 -0.6256
10116TIP3    H251840   1.237   4.415   2.414  0.1731 -0.1115  0.0680
10117TIP3   OH251841   5.211   5.204  15.698  0.9286  0.1080 -0.0385
10117TIP3    H151842   5.129   5.193  15.650 -0.6650 -1.2758  2.7449
10117TIP3    H251843   5.252   5.281  15.658 -1.1037  0.1448 -2.3080
10118TIP3   OH251844   0.767   1.934   2.666  0.4852 -0.2740 -0.1570
10118TIP3    H151845   0.857   1.923   2.697  0.8993  1.8307 -0.4638
10118TIP3    H251846   0.774   1.929   2.571  0.5552  1.3031 -0.2650
10119TIP3   OH251847   4.305   5.306  14.050 -0.5045 -0.1284  0.5106
10119TIP3    H151848   4.220   5.268  14.074 -0.3542 -0.4287  0.5738
10119TIP3    H251849   4.284   5.395  14.021 -0.7958 -0.0639  0.9026
10120TIP3   OH251850   1.884   3.836   0.336  0.0611 -0.0194  0.0019
10120TIP3    H151851   1.860   3.833   0.243  0.3018  0.4744 -0.0813
10120TIP3    H251852   1.870   3.746   0.367 -0.2683 -0.1314 -0.4461
10121TIP3   OH251853   2.703   0.241  13.795  0.1555 -0.8700 -0.1278
10121TIP3    H151854   2.725   0.330  13.824  0.3295 -1.1515  0.6139
10121TIP3    H251855   2.608   0.239  13.793  0.1470 -0.8034  0.2813
10122TIP3   OH251856   5.394   1.741  14.188  0.2934  0.5994 -0.5967
10122TIP3    H151857   5.309   1.761  14.228 -0.0510 -0.4626 -0.7691
10122TIP3    H251858   5.376   1.668  14.129  1.5725 -0.4891  0.3187
10123TIP3   OH251859   3.490   2.630  11.097 -0.0579  0.1830  0.4873
10123TIP3    H151860   3.582   2.650  11.079  0.1569 -1.2003 -0.0711
10123TIP3    H251861   3.472   2.675  11.179  1.0196  0.7549  0.4387
10124TIP3   OH251862   3.096   1.722  12.411 -0.6200  0.0334  0.6657
10124TIP3    H151863   3.174   1.668  12.403  0.1824  1.1787  0.5579
10124TIP3    H251864   3.024   1.662  12.392  0.3316 -0.6578 -0.9634
10125TIP3   OH251865   4.145   2.285  11.583 -0.1756  0.1754  0.6721
10125TIP3    H151866   4.061   2.244  11.603  0.1589  0.4061  2.7861
10125TIP3    H251867   4.137   2.374  11.617  0.5264  0.5806 -0.1758
10126TIP3   OH251868   2.824   0.274   6.177  0.3144  0.2602 -0.7442
10126TIP3    H151869   2.806   0.219   6.101 -3.1497 -1.6843  1.2539
10126TIP3    H251870   2.765   0.242   6.244  1.0845  3.8261  1.9027
10127TIP3   OH251871   6.653   3.448  15.504  0.1142  0.4645 -0.0274
10127TIP3    H151872   6.618   3.531  15.472 -1.8339  0.3060  1.4894
10127TIP3    H251873   6.630   3.385  15.436  0.1561  0.8924 -0.4444
10128TIP3   OH251874   2.909   1.823   1.663 -0.2168  0.3096  0.0467
10128TIP3    H151875   2.991   1.871   1.655  0.2934 -0.2128  1.6814
10128TIP3    H251876   2.866   1.862   1.740 -0.8104 -0.4070  0.0899
10129TIP3   OH251877   6.195   6.411  15.944 -0.4934  0.3202  0.3794
10129TIP3    H151878   6.120   6.393  16.000  0.4720 -1.0565  1.2786
10129TIP3    H251879   6.268   6.425  16.004  0.4192 -0.5138 -0.4890
10130TIP3   OH251880   0.571   1.623  10.695  0.2607  0.1408  0.2920
10130TIP3    H151881   0.624   1.703  10.695  1.3661 -0.5782  0.5945
10130TIP3    H251882   0.606   1.572  10.622 -1.6544  0.6823 -1.1014
10131TIP3   OH251883   5.334   1.453  15.670 -0.3072  0.4481  0.2418
10131TIP3    H151884   5.319   1.482  15.760  0.3256 -3.3623  1.8063
10131TIP3    H251885   5.250   1.416  15.643 -0.6676  2.1127 -1.0516
10132TIP3   OH251886   2.752   4.254   6.421  0.0457  0.1548 -0.3757
10132TIP3    H151887   2.846   4.270   6.435  0.2530 -0.4740 -0.9582
10132TIP3    H251888   2.726   4.200   6.495  0.7471 -1.7752 -1.4651
10133TIP3   OH251889   1.076   2.316   1.782 -0.3273  0.4977 -0.1468
10133TIP3    H151890   1.047   2.229   1.809 -1.0078 -0.0428 -2.4063
10133TIP3    H251891   1.069   2.369   1.861  0.9295 -1.6523  1.5306
10134TIP3   OH251892   4.368   3.270   0.815  0.0769  0.2038 -0.1008
10134TIP3    H151893   4.437   3.220   0.858  1.4384  1.4376 -0.7812
10134TIP3    H251894   4.399   3.360   0.816 -1.7431  0.8723 -0.0369
10135TIP3   OH251895   2.983   4.501   2.583  0.7327 -0.9927 -0.3763
10135TIP3    H151896   3.073   4.516   2.554  0.3255  2.2856 -0.2737
10135TIP3    H251897   2.986   4.512   2.678  0.3650 -1.7778 -0.2685
10136TIP3   OH251898   3.803   1.899   0.758  0.0110  0.2173  0.9223
10136TIP3    H151899   3.851   1.890   0.840  2.7750  1.5784 -0.4144
10136TIP3    H251900   3.843   1.835   0.699 -0.9744  0.2150  0.2365
10137TIP3   OH251901   6.635   5.568  15.367 -0.7831  0.0542  0.3652
10137TIP3    H151902   6.708   5.574  15.305 -0.5535  1.0662  0.7155
10137TIP3    H251903   6.607   5.476  15.362 -0.2489 -0.0738 -0.6318
10138TIP3   OH251904   1.377   4.095   5.844  0.0675 -0.0278  0.8309
10138TIP3    H151905   1.335   4.093   5.930 -1.4820 -0.1138  0.1026
10138TIP3    H251906   1.324   4.157   5.793  0.3686 -0.7156 -0.3516
10139TIP3   OH251907   2.113   6.132  10.951 -0.5338 -0.2486  0.0662
10139TIP3    H151908   2.081   6.178  11.028  0.0188  0.6227 -0.2160
10139TIP3    H251909   2.068   6.173  10.877  1.0633  0.9108 -0.3263
10140TIP3   OH251910   0.173   0.671   0.764  0.9389  0.1004  0.4459
10140TIP3    H151911   0.137   0.662   0.676 -0.5951 -2.0951  1.2222
10140TIP3    H251912   0.154   0.761   0.789 -1.7284 -0.1854 -0.2351
10141TIP3   OH251913   0.954   6.361   1.894  0.8314  0.1529  0.2553
10141TIP3    H151914   0.917   6.431   1.840 -0.7372 -0.5800  0.3360
10141TIP3    H251915   1.036   6.398   1.928 -0.5864  2.4706  1.3769
10142TIP3   OH251916   6.307   0.329  15.752  0.8542  0.1230  0.2676
10142TIP3    H151917   6.394   0.369  15.754  1.6493 -1.4286 -1.0500
10142TIP3    H251918   6.307   0.267  15.826  1.1639 -0.4148 -0.1748
10143TIP3   OH251919   4.278   6.716   5.598 -0.1604 -0.0133  0.4657
10143TIP3    H151920   4.189   6.725   5.565 -0.1075  0.4083  0.4293
10143TIP3    H251921   4.322   6.659   5.535 -0.9769 -2.0030  1.6080
10144TIP3   OH251922   6.288   1.880   2.218  0.9591  0.6866  0.0085
10144TIP3    H151923   6.317   1.902   2.129  0.7202  1.9208  0.2189
10144TIP3    H251924   6.196   1.856   2.208  1.1561 -0.0127 -0.1885
10145TIP3   OH251925   3.679   6.242   1.725 -0.2823 -0.1332 -0.1650
10145TIP3    H151926   3.723   6.223   1.642  0.0243 -0.3157  0.0380
10145TIP3    H251927   3.733   6.200   1.791 -1.8480 -2.1452 -0.0748
10146TIP3   OH251928   2.697   5.852  11.588  0.3865 -0.1411 -0.1068
10146TIP3    H151929   2.741   5.923  11.634  0.8447 -0.6021  0.1679
10146TIP3    H251930   2.673   5.890  11.503 -1.4651  1.0747  0.8834
10147TIP3   OH251931   1.563   3.926   4.196 -0.3668 -0.1541  0.0200
10147TIP3    H151932   1.508   3.960   4.125 -1.2123  1.5668  1.4073
10147TIP3    H251933   1.547   3.987   4.269  2.8305 -0.0279  0.7407
10148TIP3   OH251934   0.902   6.228   5.109  0.5088 -0.0100 -0.6527
10148TIP3    H151935   0.906   6.317   5.075 -0.0464 -0.1680 -1.1421
10148TIP3    H251936   0.979   6.185   5.071 -0.3021 -0.2921 -2.0659
10149TIP3   OH251937   6.545   2.794   1.201 -0.3029 -0.3969  0.0176
10149TIP3    H151938   6.559   2.888   1.213 -2.4369 -0.0116 -0.0583
10149TIP3    H251939   6.592   2.773   1.120  0.8799  0.4108  0.4675
10150TIP3   OH251940   3.181   1.597   0.080  0.5446 -0.5065  0.2869
10150TIP3    H151941   3.118   1.565   0.017 -0.1001  0.9235  0.1691
10150TIP3    H251942   3.263   1.551   0.059  1.0677  1.6872 -3.2472
10151TIP3   OH251943   3.224   0.264  11.832 -0.8608 -0.1329 -0.2090
10151TIP3    H151944   3.224   0.317  11.912  1.1344  1.2775 -1.0820
10151TIP3    H251945   3.207   0.326  11.761  1.9393 -0.4892 -1.2998
10152TIP3   OH251946   6.295   0.224   5.212 -0.0593  0.1199 -0.0595
10152TIP3    H151947   6.249   0.299   5.249  0.3428  0.7099 -0.7419
10152TIP3    H251948   6.235   0.189   5.146  0.5351  1.0330 -1.1181
10153TIP3   OH251949   6.304   3.311  13.692 -0.0916 -0.1390  0.3122
10153TIP3    H151950   6.384   3.274  13.730  1.0413  1.0380 -0.8131
10153TIP3    H251951   6.275   3.244  13.630 -0.3877 -0.8633  1.1968
10154TIP3   OH251952   5.580   3.000   0.793 -0.2498 -0.2805  0.2160
10154TIP3    H151953   5.555   3.080   0.746 -1.9490  0.4664  2.2778
10154TIP3    H251954   5.537   2.930   0.745  0.5705  0.0778 -1.1162
10155TIP3   OH251955   4.663   2.380  12.421 -0.5591 -0.2323  0.1549
10155TIP3    H151956   4.740   2.362  12.476 -0.8288 -1.6851  0.0856
10155TIP3    H251957   4.611   2.441  12.473 -0.0549 -0.3562  0.8248
10156TIP3   OH251958   5.116   2.089  13.927  0.1151  0.4405  0.9314
10156TIP3    H151959   5.047   2.110  13.864  0.7455 -1.5270 -0.5007
10156TIP3    H251960   5.097   2.000  13.955  2.1433 -0.2490  0.3009
10157TIP3   OH251961   3.272   5.731  15.249  0.1129 -0.3860 -0.0979
10157TIP3    H151962   3.339   5.742  15.182 -0.6485  1.2619 -0.6257
10157TIP3    H251963   3.211   5.667  15.212 -0.4250  0.6842 -1.1058
10158TIP3   OH251964   3.141   0.068  13.929 -0.4299  0.3600 -0.3031
10158TIP3    H151965   3.093   0.063  13.846  1.0188  2.3830 -1.3526
10158TIP3    H251966   3.229   0.038  13.908 -0.3792 -0.3921  0.8648
10159TIP3   OH251967   2.740   1.048  13.074 -0.0367 -0.5161  0.2317
10159TIP3    H151968   2.807   0.998  13.120  2.0314 -1.4040 -3.3987
10159TIP3    H251969   2.665   0.989  13.069  0.4054 -1.1293  0.7565
10160TIP3   OH251970   2.791   0.473  13.918  0.1387 -0.7309  0.7823
10160TIP3    H151971   2.753   0.560  13.901 -0.5854 -0.7560  2.1798
10160TIP3    H251972   2.806   0.471  14.012 -0.4130 -2.3540  0.8672
10161TIP3   OH251973   5.252   3.507  11.707  0.2254  0.2884  0.7425
10161TIP3    H151974   5.293   3.424  11.684  0.5417  0.7682 -0.5128
10161TIP3    H251975   5.324   3.559  11.745 -0.0113 -0.0631  1.6860
10162TIP3   OH251976   3.219   5.780  11.779 -0.0882  0.1664 -0.1872
10162TIP3    H151977   3.296   5.769  11.836  0.0490 -0.5839 -0.5021
10162TIP3    H251978   3.150   5.731  11.822 -0.2801  0.5011 -0.1144
10163TIP3   OH251979   5.120   6.013   4.145  0.4660 -0.1221  0.6781
10163TIP3    H151980   5.098   6.006   4.052  2.0500 -1.7986  0.3623
10163TIP3    H251981   5.091   5.931   4.183  1.8878 -0.4240  1.1661
10164TIP3   OH251982   3.508   5.096  14.853 -0.3729 -0.8993 -0.3464
10164TIP3    H151983   3.513   5.014  14.902  0.3779 -1.0539 -0.6656
10164TIP3    H251984   3.488   5.069  14.764 -1.7158 -0.6196 -0.1567
10165TIP3   OH251985   5.505   1.905   2.707 -0.0539 -0.3390 -0.7404
10165TIP3    H151986   5.531   1.914   2.799  1.0346  0.9382 -1.1502
10165TIP3    H251987   5.557   1.971   2.661 -0.7443 -0.8213 -2.2492
10166TIP3   OH251988   0.464   5.796  13.238  0.0135  0.2551  0.9483
10166TIP3    H151989   0.420   5.723  13.194  0.6926 -0.3190  1.1902
10166TIP3    H251990   0.516   5.754  13.307  0.6690  0.9354  0.8835
10167TIP3   OH251991   4.293   4.662   3.569  0.1794 -0.2033  0.5339
10167TIP3    H151992   4.213   4.652   3.620  1.1603  1.2997  2.5376
10167TIP3    H251993   4.364   4.650   3.633  1.4749  2.0135 -0.3460
10168TIP3   OH251994   1.828   3.385   1.461 -0.2613  0.6677  0.2038
10168TIP3    H151995   1.756   3.408   1.403 -0.2043  0.6135  0.1113
10168TIP3    H251996   1.788   3.326   1.525 -0.1862  0.2277 -0.1526
10169TIP3   OH251997   5.009   1.896   5.026 -0.4454 -0.1863  0.0572
10169TIP3    H151998   4.978   1.948   5.100  0.0275 -1.2436  1.0303
10169TIP3    H251999   4.934   1.840   5.004 -1.1835  1.2745 -1.4100
10170TIP3   OH252000   5.559   1.775  13.292  0.0480  0.0198  0.8233
10170TIP3    H152001   5.512   1.694  13.272 -0.0998 -0.1324  1.7340
10170TIP3    H252002   5.502   1.845  13.262 -0.5574 -0.1774  1.4757
10171TIP3   OH252003   6.460   0.752  14.653  0.0941 -0.4579  0.2098
10171TIP3    H152004   6.451   0.704  14.571 -1.2177  2.1076 -1.2447
10171TIP3    H252005   6.373   0.749  14.692 -0.5004  2.0671 -0.7619
10172TIP3   OH252006   4.320   3.396  10.462  0.1746  0.0916  0.2493
10172TIP3    H152007   4.356   3.461  10.523  2.3867 -0.5265 -0.2994
10172TIP3    H252008   4.226   3.414  10.461  0.2936  1.2190  2.5078
10173TIP3   OH252009   5.187   2.050   5.423 -0.0421 -0.1735  0.1025
10173TIP3    H152010   5.199   2.030   5.516 -0.8375 -0.4659  0.1580
10173TIP3    H252011   5.187   2.146   5.419 -0.9361 -0.1404  0.5549
10174TIP3   OH252012   5.728   0.291  13.522 -0.6554  0.1100  0.0378
10174TIP3    H152013   5.737   0.251  13.608  0.0035  0.8312  0.3182
10174TIP3    H252014   5.805   0.263  13.474 -1.4620 -1.0216 -0.6443
10175TIP3   OH252015   5.862   4.223   0.938 -0.1214  0.5279  0.2797
10175TIP3    H152016   5.936   4.168   0.912 -0.0757  0.3802  0.7177
10175TIP3    H252017   5.902   4.301   0.975 -0.1625  0.0252  1.4349
10176TIP3   OH252018   4.915   5.332  14.199  0.0593  0.3065  0.5037
10176TIP3    H152019   4.931   5.379  14.280  0.1690  0.5271  0.3547
10176TIP3    H252020   4.831   5.365  14.167  0.8787  1.5860 -0.4239
10177TIP3   OH252021   0.366   2.058  13.986  0.4548  0.5986 -0.3271
10177TIP3    H152022   0.390   2.013  13.905  1.6665 -1.1902  0.9370
10177TIP3    H252023   0.270   2.053  13.989  0.5043 -1.4001 -0.5660
10178TIP3   OH252024   4.614   3.726  12.146 -0.3849  0.1303 -0.1223
10178TIP3    H152025   4.615   3.645  12.094  0.8303 -0.0764  0.1974
10178TIP3    H252026   4.550   3.781  12.102  0.4772 -0.1086 -1.7516
10179TIP3   OH252027   4.712   5.951  16.360 -0.4283  0.6097 -0.1186
10179TIP3    H152028   4.778   5.882  16.360  1.7266  2.5314 -1.1229
10179TIP3    H252029   4.697   5.971  16.268 -0.0588  2.3030  0.1537
10180TIP3   OH252030   2.324   3.982   6.291 -0.3792 -0.1072 -0.4041
10180TIP3    H152031   2.363   3.894   6.296 -0.0295  0.0768  0.1435
10180TIP3    H252032   2.230   3.966   6.294 -0.3522 -0.5436 -1.5201
10181TIP3   OH252033   6.001   6.092  15.568  0.7132 -0.3218 -0.9459
10181TIP3    H152034   6.061   6.078  15.494  0.8088  1.9236 -1.3808
10181TIP3    H252035   6.057   6.128  15.637 -0.0927  2.1932 -1.4918
10182TIP3   OH252036   4.360   2.259  11.403  0.1424 -0.0095  0.1765
10182TIP3    H152037   4.283   2.238  11.457  1.7574  0.1234  2.6883
10182TIP3    H252038   4.434   2.250  11.462  1.9686  1.3910 -1.7515
10183TIP3   OH252039   2.637   1.030  14.539  0.7152  0.2394  0.0579
10183TIP3    H152040   2.606   1.047  14.450 -0.6634  1.2457  0.6943
10183TIP3    H252041   2.641   0.935  14.546 -2.7094 -0.0394  0.0125
10184TIP3   OH252042   1.711   4.023  11.003 -0.3479 -0.0097 -0.0432
10184TIP3    H152043   1.743   4.093  11.059  0.6095 -0.0322 -0.5380
10184TIP3    H252044   1.643   3.980  11.054  0.0558  0.3777  0.8377
10185TIP3   OH252045   0.903   0.067   2.027  0.3170  0.9306 -0.0927
10185TIP3    H152046   0.917   0.053   1.933  0.1809 -0.7169  0.1062
10185TIP3    H252047   0.850   0.147   2.031 -0.7822  0.3258 -1.5115
10186TIP3   OH252048   2.113   5.211   2.750  0.0679 -0.5321  0.3020
10186TIP3    H152049   2.130   5.297   2.789 -1.5494  0.7007 -1.5299
10186TIP3    H252050   2.169   5.151   2.800  2.4869  1.7901  0.6138
10187TIP3   OH252051   2.299   6.305  12.720 -0.0242  0.0421 -0.1477
10187TIP3    H152052   2.303   6.358  12.800  0.0593  0.2104 -0.2645
10187TIP3    H252053   2.352   6.228  12.740 -0.2692 -0.0710  0.0750
10188TIP3   OH252054   6.588   0.838   4.501 -0.0732 -0.7703 -0.3945
10188TIP3    H152055   6.588   0.934   4.504  0.5859 -0.7576  3.0127
10188TIP3    H252056   6.509   0.816   4.453 -0.2717  1.4759 -1.2278
10189TIP3   OH252057   5.568   3.208  13.551  0.1500 -0.8826 -0.0571
10189TIP3    H152058   5.476   3.189  13.532 -1.4069  4.2272  0.6703
10189TIP3    H252059   5.602   3.245  13.469  1.2765 -1.7312  0.0038
10190TIP3   OH252060   1.427   1.628  10.864 -0.0295 -0.3645 -0.1459
10190TIP3    H152061   1.486   1.574  10.916 -2.7413 -2.9398  0.5358
10190TIP3    H252062   1.468   1.633  10.778  1.6446 -1.1979  0.5675
10191TIP3   OH252063   1.246   0.457   4.680  0.3002  0.4182  0.6854
10191TIP3    H152064   1.168   0.496   4.718 -1.7582 -1.4385 -1.3845
10191TIP3    H252065   1.309   0.529   4.676 -0.9302  1.7703  3.1780
10192TIP3   OH252066   2.426   3.938   0.506  0.2557  0.0428 -0.2250
10192TIP3    H152067   2.354   3.875   0.506  0.0375  0.2896  0.0302
10192TIP3    H252068   2.504   3.885   0.522 -0.0888 -0.0122  1.5473
10193TIP3   OH252069   4.370   1.175   4.890 -0.1571  0.0487 -0.2529
10193TIP3    H152070   4.391   1.234   4.818  0.0535  0.5876  0.2477
10193TIP3    H252071   4.310   1.110   4.852 -0.7934  0.8748 -0.6732
10194TIP3   OH252072   0.106   5.684  14.505  0.2500  0.5063  0.3202
10194TIP3    H152073   0.155   5.602  14.515 -0.2359 -0.0148 -1.1779
10194TIP3    H252074   0.150   5.729  14.433  0.0624  1.2330  0.6504
10195TIP3   OH252075   5.517   3.827   1.006 -0.4086  0.1727 -0.2038
10195TIP3    H152076   5.430   3.826   1.046 -0.3074 -0.2001  0.0068
10195TIP3    H252077   5.571   3.771   1.063  0.0707  0.7271 -0.0957
10196TIP3   OH252078   3.398   4.786  13.968  0.2056  0.0059 -0.3325
10196TIP3    H152079   3.359   4.700  13.982 -1.1765  0.2869 -2.1183
10196TIP3    H252080   3.398   4.827  14.054  1.3037 -1.8915  0.6602
10197TIP3   OH252081   5.664   3.403  15.490 -0.7188  0.3607 -0.4224
10197TIP3    H152082   5.590   3.352  15.457 -0.2120 -3.3445  3.3264
10197TIP3    H252083   5.647   3.411  15.584  3.3006 -0.2925  0.5318
10198TIP3   OH252084   1.211   2.044   1.372 -0.2840  0.1349 -0.2626
10198TIP3    H152085   1.187   2.136   1.381 -0.0401  0.1247  0.5701
10198TIP3    H252086   1.155   2.012   1.301  0.1937  1.1115 -1.1148
10199TIP3   OH252087   3.818   5.364  14.255 -0.2017 -0.0818 -0.0303
10199TIP3    H152088   3.861   5.282  14.280 -0.9469 -0.9863 -1.6268
10199TIP3    H252089   3.869   5.431  14.302  1.6880 -1.2664 -0.2467
10200TIP3   OH252090   1.681   4.023  14.303  0.1072 -0.2601 -0.3743
10200TIP3    H152091   1.715   4.099  14.350  2.8921 -0.4907 -1.8634
10200TIP3    H252092   1.691   3.951  14.364  3.4234 -0.5011 -1.0543
10201TIP3   OH252093   2.599   4.158   2.409 -0.4149 -0.0332 -0.4626
10201TIP3    H152094   2.605   4.253   2.415 -0.9363 -0.0721  1.2754
10201TIP3    H252095   2.558   4.142   2.323 -3.2913  1.5060  0.4811
10202TIP3   OH252096   0.957   0.213   0.683  0.7016  0.6030 -0.5414
10202TIP3    H152097   0.994   0.129   0.711 -1.1972  0.6147  2.5120
10202TIP3    H252098   0.865   0.194   0.666  0.1803  2.0738  0.4760
10203TIP3   OH252099   4.621   5.493   4.462  0.4945  0.3476 -0.0353
10203TIP3    H152100   4.567   5.455   4.531 -0.2888 -0.1763 -0.8955
10203TIP3    H252101   4.632   5.584   4.487 -2.8961  1.1684 -0.9736
10204TIP3   OH252102   4.257   6.249   1.052  0.6900  0.4266 -0.0660
10204TIP3    H152103   4.177   6.258   1.103  0.2944  1.1567 -0.7837
10204TIP3    H252104   4.274   6.155   1.049  0.5027  0.3513  1.0614
10205TIP3   OH252105   1.674   3.389   6.071  0.0094 -0.0704 -0.4860
10205TIP3    H152106   1.672   3.412   6.164 -0.9721 -0.0394 -0.5016
10205TIP3    H252107   1.652   3.296   6.070  2.6008 -0.7617 -0.5210
10206TIP3   OH252108   0.703   6.553  13.927  0.4901 -0.0468  0.3243
10206TIP3    H152109   0.773   6.586  13.984  1.0055 -0.0958 -0.2595
10206TIP3    H252110   0.625   6.551  13.983 -0.0120  3.7239 -0.0002
10207TIP3   OH252111   4.718   4.009   1.030  0.7308  0.5975 -0.8332
10207TIP3    H152112   4.734   3.919   1.058  0.4063  1.2485  1.6679
10207TIP3    H252113   4.804   4.045   1.010  0.7403 -0.6971 -3.5549
10208TIP3   OH252114   1.846   3.047  17.049 -0.4971  0.0320 -0.2260
10208TIP3    H152115   1.837   2.952  17.038  0.3884 -0.1919  0.7693
10208TIP3    H252116   1.904   3.056  17.125 -1.2805  1.3813  0.2275
10209TIP3   OH252117   3.859   6.105   4.192  0.5248 -0.0917 -0.0311
10209TIP3    H152118   3.782   6.049   4.197  0.3971  0.0000 -0.8848
10209TIP3    H252119   3.874   6.118   4.099  1.8753 -0.5098  0.1036
10210TIP3   OH252120   6.653   6.188  12.518 -0.0904  0.0248  0.0004
10210TIP3    H152121   6.559   6.197  12.530 -0.5316 -3.6840  0.4651
10210TIP3    H252122   6.684   6.143  12.597  1.6822 -0.7251 -1.0450
10211TIP3   OH252123   3.056   5.216  11.866 -0.3856 -0.2443 -0.6584
10211TIP3    H152124   2.967   5.196  11.897 -0.5515 -0.0636 -1.0053
10211TIP3    H252125   3.090   5.132  11.836 -0.7888 -0.1621 -1.3850
10212TIP3   OH252126   6.735   0.576  15.385  0.0154 -0.2585  0.2254
10212TIP3    H152127   6.830   0.568  15.392  0.0033 -0.9220 -0.2720
10212TIP3    H252128   6.701   0.489  15.406 -0.3951 -0.3928 -0.9162
10213TIP3   OH252129   3.749   0.464   4.706  0.2490  0.0944 -0.0676
10213TIP3    H152130   3.667   0.451   4.753  0.1991  0.3789 -0.0748
10213TIP3    H252131   3.728   0.527   4.637  0.2793 -0.4555 -0.5838
10214TIP3   OH252132   1.549   0.766  15.746 -0.3015 -0.2608 -0.1452
10214TIP3    H152133   1.622   0.723  15.702 -0.6848 -2.2692  1.0300
10214TIP3    H252134   1.582   0.787  15.833 -0.7140  0.0538 -0.0625
10215TIP3   OH252135   2.977   2.530   2.415 -0.0642 -0.1814 -0.1051
10215TIP3    H152136   3.064   2.505   2.446  1.0150  1.3282 -1.7550
10215TIP3    H252137   2.993   2.586   2.339 -2.5005 -1.8775 -2.0551
10216TIP3   OH252138   6.348   0.085   1.310 -0.1416 -0.1605 -0.2559
10216TIP3    H152139   6.434   0.058   1.276  0.1042  1.0202 -0.5915
10216TIP3    H252140   6.368   0.145   1.381 -0.6785  1.0619 -1.1045
10217TIP3   OH252141   5.332   2.133   3.898  0.5072  0.0764  0.3631
10217TIP3    H152142   5.386   2.111   3.822 -0.0386 -1.1614  0.3101
10217TIP3    H252143   5.264   2.066   3.900  0.0455  0.5447  1.4905
10218TIP3   OH252144   2.711   1.308   0.731 -0.0752 -0.2176  0.0226
10218TIP3    H152145   2.774   1.293   0.661 -0.1611 -0.9701  0.0966
10218TIP3    H252146   2.644   1.241   0.717 -0.3953  0.0052  0.4751
10219TIP3   OH252147   0.342   5.320   4.398  0.2372 -0.7689  0.0861
10219TIP3    H152148   0.423   5.364   4.371  0.8133 -1.1475  1.1596
10219TIP3    H252149   0.281   5.391   4.416 -0.1182 -0.4825 -1.9403
10220TIP3   OH252150   1.326   3.480   4.859  0.4839 -0.0423  0.2665
10220TIP3    H152151   1.366   3.434   4.786  0.1918  0.5178 -0.2480
10220TIP3    H252152   1.261   3.537   4.819  1.9090  2.0110  0.7266
10221TIP3   OH252153   4.869   2.116   0.666  0.2040  0.0382  0.0214
10221TIP3    H152154   4.800   2.153   0.612  0.7091  1.0129  0.0225
10221TIP3    H252155   4.903   2.042   0.615  1.5701  1.7357 -1.6529
10222TIP3   OH252156   3.712   5.070   2.313  0.2245  0.2749  0.0258
10222TIP3    H152157   3.656   5.054   2.388 -0.7585 -1.2633 -0.9714
10222TIP3    H252158   3.783   5.006   2.322  2.6611  2.9650  1.9183
10223TIP3   OH252159   1.670   3.047  11.297  0.3371  0.0686  0.4339
10223TIP3    H152160   1.667   2.977  11.361  0.0540 -0.4711 -0.1633
10223TIP3    H252161   1.762   3.072  11.292  0.7404 -1.5267 -0.6931
10224TIP3   OH252162   1.918   1.603  16.743 -0.0523  0.3289  0.4269
10224TIP3    H152163   1.919   1.678  16.803  0.4438  0.3781  0.3643
10224TIP3    H252164   1.868   1.634  16.667  1.4040  1.1327 -0.2515
10225TIP3   OH252165   0.336   2.903   1.189  0.4459  0.6802  0.0921
10225TIP3    H152166   0.426   2.912   1.157  0.9667 -1.4531  0.8213
10225TIP3    H252167   0.346   2.870   1.279 -1.0628  1.3827  0.5501
10226TIP3   OH252168   5.190   4.748  15.688  0.1416  0.4430  0.1182
10226TIP3    H152169   5.138   4.826  15.704 -0.2836  0.2483 -0.2997
10226TIP3    H252170   5.270   4.761  15.739 -0.2130  0.8494  0.5666
10227TIP3   OH252171   0.291   1.429   2.483 -0.0412  0.2486 -0.0907
10227TIP3    H152172   0.270   1.493   2.416 -0.0733  0.5680  0.2224
10227TIP3    H252173   0.223   1.440   2.549  1.5416  1.9349  1.3834
10228TIP3   OH252174   5.817   3.847   3.992  0.9129 -0.0663  0.5583
10228TIP3    H152175   5.885   3.782   3.975 -0.0154 -0.7229 -0.8650
10228TIP3    H252176   5.864   3.930   4.004  2.0107 -0.7142  0.8262
10229TIP3   OH252177   6.060   0.259  12.572 -0.5327 -0.1375  0.0900
10229TIP3    H152178   6.072   0.225  12.483 -1.3794 -0.8517  0.2368
10229TIP3    H252179   6.119   0.334  12.577  0.9510 -1.2279 -0.4319
10230TIP3   OH252180   3.007   2.564  13.488  0.0050 -0.3132  0.4247
10230TIP3    H152181   2.980   2.521  13.407 -0.1304  0.1916  0.1945
10230TIP3    H252182   2.929   2.562  13.544 -0.0711 -0.1605  0.3244
10231TIP3   OH252183   2.268   2.279  11.251 -0.3733  0.0105  0.1093
10231TIP3    H152184   2.256   2.229  11.170  0.6154 -1.0016  0.5757
10231TIP3    H252185   2.347   2.330  11.236 -1.2067  1.2618 -0.2476
10232TIP3   OH252186   2.087   1.631   5.037  0.2054 -0.0682 -0.1560
10232TIP3    H152187   2.118   1.697   5.099 -0.0136  0.8157 -0.9655
10232TIP3    H252188   2.010   1.670   4.997 -0.4478 -1.1814 -0.0309
10233TIP3   OH252189   3.403   4.429   6.112 -0.0097  0.5852 -0.8166
10233TIP3    H152190   3.334   4.468   6.166  0.7652  1.4747 -0.4633
10233TIP3    H252191   3.395   4.335   6.128  1.4101  0.8915  2.3948
10234TIP3   OH252192   5.391   0.315  16.596 -0.1338  0.2310  0.0827
10234TIP3    H152193   5.467   0.335  16.541  0.1938  0.5439  0.6374
10234TIP3    H252194   5.408   0.226  16.628  1.3305  1.2109  2.2987
10235TIP3   OH252195   0.576   5.490   4.467  0.2721 -0.1624 -0.3888
10235TIP3    H152196   0.521   5.539   4.528  1.0253 -0.5391  0.6231
10235TIP3    H252197   0.581   5.402   4.504  1.4253 -0.1785 -0.5471
10236TIP3   OH252198   2.803   1.259  16.332 -0.1401  0.6686  0.2050
10236TIP3    H152199   2.730   1.268  16.392 -0.3608  2.2164 -0.2495
10236TIP3    H252200   2.778   1.312  16.256 -0.0395 -1.4952 -1.4415
10237TIP3   OH252201   4.406   3.974   0.762 -0.2951 -0.1910 -0.6676
10237TIP3    H152202   4.356   4.053   0.740 -1.8480 -0.7735  0.5507
10237TIP3    H252203   4.443   3.993   0.848  1.0112 -0.0542 -1.2420
10238TIP3   OH252204   4.973   4.744   3.423  0.2615 -0.2262 -0.0451
10238TIP3    H152205   4.998   4.654   3.405  1.7389 -0.2579  1.8217
10238TIP3    H252206   4.896   4.737   3.480  0.2747 -0.3016 -0.0370
10239TIP3   OH252207   3.030   1.670  11.135  0.0328 -0.5119  0.2265
10239TIP3    H152208   2.939   1.665  11.166 -0.0120 -1.9228 -0.0718
10239TIP3    H252209   3.034   1.608  11.063  1.1338 -0.1320 -0.0506
10240TIP3   OH252210   5.852   3.835   5.854  0.2039  0.6530 -0.2793
10240TIP3    H152211   5.828   3.769   5.919 -0.1437  0.8665 -0.1839
10240TIP3    H252212   5.871   3.913   5.906 -1.4202  1.2277 -0.4869
10241TIP3   OH252213   6.230   4.560   4.113 -0.0097  0.1319  0.2822
10241TIP3    H152214   6.245   4.638   4.166 -2.1830  0.5691  0.3470
10241TIP3    H252215   6.240   4.590   4.022  1.1964 -0.0281  0.3459
10242TIP3   OH252216   5.699   1.086   3.239 -0.6730 -0.2257  0.2538
10242TIP3    H152217   5.610   1.052   3.235 -0.6811 -0.2158  0.3463
10242TIP3    H252218   5.709   1.117   3.329 -0.2011 -1.2576  0.5719
10243TIP3   OH252219   6.168   6.156   3.545 -0.0400  0.4076  0.0535
10243TIP3    H152220   6.110   6.147   3.620  1.1307  1.4756  1.1464
10243TIP3    H252221   6.169   6.250   3.527  1.1204  0.3889 -0.0862
10244TIP3   OH252222   1.329   5.466   5.485 -0.0179  0.0484  0.7443
10244TIP3    H152223   1.361   5.397   5.428 -1.4058 -0.8578  1.0232
10244TIP3    H252224   1.357   5.547   5.442 -0.2928 -0.6206 -0.7705
10245TIP3   OH252225   2.500   0.466  14.422  0.1398  0.6051 -0.1496
10245TIP3    H152226   2.486   0.492  14.331 -1.4012  1.8379  0.3850
10245TIP3    H252227   2.462   0.378  14.428  1.2168  0.0644 -0.9146
10246TIP3   OH252228   6.390   5.080   3.555  0.2081  0.1569  0.2132
10246TIP3    H152229   6.412   5.072   3.648  0.4767  0.2210  0.1533
10246TIP3    H252230   6.356   4.993   3.531  2.0826 -0.5279 -0.1552
10247TIP3   OH252231   3.028   4.240   6.397 -0.1127  0.1909  0.1600
10247TIP3    H152232   3.029   4.334   6.380  4.0081  0.3537  0.1548
10247TIP3    H252233   3.086   4.204   6.329 -0.3595 -2.1223  1.1103
10248TIP3   OH252234   1.726   2.591  11.592 -0.0310  0.3208  0.4045
10248TIP3    H152235   1.813   2.621  11.564 -0.1616  0.9004  0.6027
10248TIP3    H252236   1.667   2.661  11.564 -0.3688  0.1512  0.6949
10249TIP3   OH252237   5.452   5.026  12.325  0.7530  0.3566  0.6162
10249TIP3    H152238   5.418   5.111  12.353  1.2745  0.4198  1.0742
10249TIP3    H252239   5.531   5.047  12.276  0.3334  0.1907 -0.1394
10250TIP3   OH252240   2.160   3.973  16.173 -1.2538 -0.0956 -0.1577
10250TIP3    H152241   2.121   3.988  16.259 -1.7891  0.4196 -0.4798
10250TIP3    H252242   2.088   3.940  16.119 -0.6176 -1.7146 -0.0688
10251TIP3   OH252243   6.271   1.168  14.062 -0.3254 -0.5095  0.1763
10251TIP3    H152244   6.209   1.233  14.096  0.8767  0.2927  0.9349
10251TIP3    H252245   6.278   1.187  13.969 -0.4001  0.1119  0.2907
10252TIP3   OH252246   0.018   1.826  16.300  0.1997 -0.0179  0.0771
10252TIP3    H152247   0.081   1.806  16.231 -0.0044  2.1377 -0.8161
10252TIP3    H252248   0.070   1.828  16.380  0.7548 -0.8387 -0.2416
10253TIP3   OH252249   0.836   1.749  13.594  0.1108  0.0027  0.3726
10253TIP3    H152250   0.924   1.715  13.578 -0.4136 -1.8393  1.0716
10253TIP3    H252251   0.807   1.705  13.675 -1.7410 -0.1052 -0.2842
10254TIP3   OH252252   4.243   1.592   5.794 -0.2175 -0.6371  0.0406
10254TIP3    H152253   4.309   1.641   5.745 -0.5668 -0.6876 -0.4767
10254TIP3    H252254   4.223   1.648   5.869 -0.7234  0.0780 -0.6225
10255TIP3   OH252255   3.257   3.364   2.702 -0.6639  0.3167  0.0268
10255TIP3    H152256   3.337   3.398   2.743 -1.0242  0.0301  0.9923
10255TIP3    H252257   3.196   3.438   2.704 -1.4955 -0.3633  2.2565
10256TIP3   OH252258   1.579   2.935   5.178  0.2859  0.6757 -0.0551
10256TIP3    H152259   1.636   3.012   5.179  2.4420 -0.8023 -0.8578
10256TIP3    H252260   1.602   2.889   5.097 -2.3469  0.1503 -0.6071
10257TIP3   OH252261   5.605   1.951   5.466  0.0640  0.0284 -0.0826
10257TIP3    H152262   5.560   1.919   5.388  1.3725 -1.2848 -0.3424
10257TIP3    H252263   5.618   1.874   5.520 -0.4411  0.8595  1.2675
10258TIP3   OH252264   1.999   1.250  12.610 -0.2008  0.4672  0.5956
10258TIP3    H152265   2.041   1.276  12.528  1.1921  0.3338  1.2260
10258TIP3    H252266   2.066   1.266  12.677 -0.3074 -1.9039  1.3868
10259TIP3   OH252267   3.026   0.153   1.999  0.0981  0.5882 -0.3458
10259TIP3    H152268   3.024   0.242   1.965 -0.2751  1.6266  2.1373
10259TIP3    H252269   2.950   0.110   1.959 -0.9197  2.0373 -0.0402
10260TIP3   OH252270   3.894   4.910   5.524 -0.8021 -1.2135 -0.2967
10260TIP3    H152271   3.969   4.879   5.575 -0.5136  0.4762  0.3828
10260TIP3    H252272   3.817   4.880   5.573 -0.5343  1.3074  1.8421
10261TIP3   OH252273   4.025   6.553   4.177  0.0755 -0.2044  0.0443
10261TIP3    H152274   4.038   6.630   4.122 -0.1035 -1.4529 -1.8230
10261TIP3    H252275   4.112   6.531   4.209  1.1181 -2.0780 -3.5092
10262TIP3   OH252276   6.355   3.730   1.350  0.1736  0.3547  0.2765
10262TIP3    H152277   6.331   3.823   1.354  0.9792  0.6136 -0.5381
10262TIP3    H252278   6.446   3.727   1.378  0.6436  0.0388 -1.1779
10263TIP3   OH252279   2.416   5.178   4.825  0.0072 -0.0568  0.0157
10263TIP3    H152280   2.471   5.105   4.854  0.9225  0.8114  0.5146
10263TIP3    H252281   2.458   5.210   4.746  0.5613  0.9536  0.6945
10264TIP3   OH252282   6.457   1.445   0.019 -0.0769  0.1286 -0.4962
10264TIP3    H152283   6.375   1.477  -0.019 -0.3235 -1.6033 -1.5571
10264TIP3    H252284   6.438   1.354   0.042  1.6610 -0.4484 -1.1774
10265TIP3   OH252285   5.170   2.027  14.887 -0.8635 -0.5346  0.3187
10265TIP3    H152286   5.253   2.066  14.860  0.1024 -2.8876 -0.4472
10265TIP3    H252287   5.112   2.101  14.905  1.5495  1.2045  1.4174
10266TIP3   OH252288   3.832   0.737  12.675  0.3263 -0.2343  0.5470
10266TIP3    H152289   3.762   0.799  12.695 -0.9052 -0.6790 -2.0083
10266TIP3    H252290   3.790   0.669  12.623  2.9408  0.5518 -2.9634
10267TIP3   OH252291   3.524   4.656   1.452  0.2841  0.4690 -0.0710
10267TIP3    H152292   3.522   4.613   1.366 -0.4527  0.2267  0.0611
10267TIP3    H252293   3.615   4.682   1.463  0.2811  1.0023 -1.1725
10268TIP3   OH252294   0.704   3.540  16.495  0.5411  0.5883 -0.1498
10268TIP3    H152295   0.724   3.513  16.584 -1.1214  0.3166  0.1711
10268TIP3    H252296   0.622   3.495  16.474 -0.0774  2.0921 -1.1315
10269TIP3   OH252297   4.968   3.415   4.067 -0.0955 -0.4300  0.4549
10269TIP3    H152298   5.032   3.480   4.097  2.0005 -1.3476 -1.6344
10269TIP3    H252299   4.996   3.333   4.107  0.3311 -0.9177 -0.7897
10270TIP3   OH252300   0.508   3.173  14.224  0.0240  0.0436  0.1839
10270TIP3    H152301   0.537   3.102  14.281  0.8906 -0.9705 -1.4235
10270TIP3    H252302   0.461   3.128  14.153 -0.3868  1.1812 -0.2817
10271TIP3   OH252303   3.386   3.735  11.295 -0.8065 -0.2096  0.0620
10271TIP3    H152304   3.396   3.767  11.206  1.1646 -0.2287  0.2344
10271TIP3    H252305   3.350   3.647  11.285  2.0928 -1.4040 -0.9538
10272TIP3   OH252306   5.750   0.977   2.258  0.3405  0.5847 -0.2664
10272TIP3    H152307   5.699   1.055   2.277 -0.7428 -0.3585  0.9143
10272TIP3    H252308   5.750   0.971   2.163 -2.2673  0.3517 -0.3187
10273TIP3   OH252309   3.916   0.431  12.681  0.6259  0.0368  0.1311
10273TIP3    H152310   3.862   0.408  12.606  1.5536  0.4475 -0.6871
10273TIP3    H252311   3.933   0.525  12.670  0.9720  0.0489  0.7314
10274TIP3   OH252312   3.706   4.744   4.510  0.2482 -0.6649 -0.5249
10274TIP3    H152313   3.639   4.680   4.489 -0.8483  0.8851 -2.0769
10274TIP3    H252314   3.658   4.826   4.522  1.7823  0.3450 -0.9816
10275TIP3   OH252315   1.279   0.122  12.613  0.3978  0.3737 -0.2689
10275TIP3    H152316   1.206   0.176  12.582 -0.8835 -1.6057 -0.9219
10275TIP3    H252317   1.321   0.091  12.532  3.0782  2.7763  0.0709
10276TIP3   OH252318   1.970   6.197   2.624 -0.5765  1.2537  0.0787
10276TIP3    H152319   1.983   6.182   2.530 -1.2246 -0.5901  0.2460
10276TIP3    H252320   1.887   6.245   2.629 -1.4449 -0.1842 -0.2197
10277TIP3   OH252321   3.006   0.236   2.594  0.0075 -0.0766  0.5010
10277TIP3    H152322   3.095   0.256   2.625 -0.2396  0.9896  0.5624
10277TIP3    H252323   2.998   0.286   2.512 -0.2080 -0.9364 -0.0207
10278TIP3   OH252324   2.163   2.536  14.910  0.1137 -0.7142  0.5215
10278TIP3    H152325   2.132   2.626  14.921  1.2303 -0.3686  0.9204
10278TIP3    H252326   2.217   2.539  14.832  2.3060 -0.4275  1.9724
10279TIP3   OH252327   5.680   1.608  14.987 -0.1082 -0.0137 -0.3952
10279TIP3    H152328   5.758   1.604  14.932  0.5995 -0.3817  0.6099
10279TIP3    H252329   5.673   1.701  15.011 -0.7317  0.2459 -1.5139
10280TIP3   OH252330   1.628   0.922   2.652  0.0393  0.2519 -0.0810
10280TIP3    H152331   1.686   0.905   2.726  0.5981  1.7549 -0.1328
10280TIP3    H252332   1.595   0.836   2.626  1.0079 -0.4513  0.9571
10281TIP3   OH252333   3.326   3.144  12.283 -0.1234 -0.2019  0.1996
10281TIP3    H152334   3.373   3.062  12.299  0.9471  0.4629  0.5404
10281TIP3    H252335   3.330   3.191  12.366  0.9139  0.9985 -0.4870
10282TIP3   OH252336   2.484   4.524   3.920 -0.1725  0.5708 -0.2581
10282TIP3    H152337   2.522   4.476   3.993 -0.9631 -0.3546 -0.4254
10282TIP3    H252338   2.394   4.542   3.947 -0.4091  0.4058 -0.9025
10283TIP3   OH252339   4.652   0.346  10.474  0.1889 -0.1272 -0.6747
10283TIP3    H152340   4.702   0.326  10.395  0.1516 -0.0500 -0.7186
10283TIP3    H252341   4.659   0.441  10.483 -0.9905  0.0578 -1.3936
10284TIP3   OH252342   6.820   6.577  15.805  0.3660  0.2448  0.2624
10284TIP3    H152343   6.873   6.644  15.848  0.0781  0.6718 -0.0389
10284TIP3    H252344   6.762   6.543  15.874 -0.1785  1.0124  0.1916
10285TIP3   OH252345   0.787   5.268   5.573 -0.5393 -0.1039  0.5585
10285TIP3    H152346   0.705   5.259   5.525 -0.7278  0.6154  0.7428
10285TIP3    H252347   0.768   5.331   5.642  0.4838  0.9730 -0.1008
10286TIP3   OH252348   3.217   3.210  16.632 -0.3228  0.1980  0.5958
10286TIP3    H152349   3.221   3.270  16.558  1.1336 -0.9851 -0.3430
10286TIP3    H252350   3.217   3.123  16.592 -0.3890 -0.4605  1.9638
10287TIP3   OH252351   2.012   6.807   3.485  0.4945 -0.1569 -0.1425
10287TIP3    H152352   2.068   6.731   3.503  0.4158 -0.7861 -2.2604
10287TIP3    H252353   2.063   6.882   3.514  3.1402 -0.5840 -3.1100
10288TIP3   OH252354   0.449   5.691   0.127  0.0630  0.3780  0.0127
10288TIP3    H152355   0.501   5.715   0.050 -2.5430 -1.7551 -2.6097
10288TIP3    H252356   0.515   5.664   0.192  2.3382  1.6542 -1.6014
10289TIP3   OH252357   6.166   5.056   5.288 -0.8295  0.0343  0.0646
10289TIP3    H152358   6.152   5.115   5.362  0.1685  0.2043  0.1395
10289TIP3    H252359   6.101   5.081   5.223 -1.7722 -0.1722  0.9121
10290TIP3   OH252360   1.575   5.897   2.649  0.1903  0.3564 -0.3578
10290TIP3    H152361   1.645   5.939   2.600  1.4824 -2.0921 -0.8107
10290TIP3    H252362   1.513   5.867   2.582  0.4668 -0.4291 -0.2798
10291TIP3   OH252363   4.120   2.470  16.612 -0.7567 -0.0919 -0.1994
10291TIP3    H152364   4.034   2.429  16.603 -0.3876 -0.6055 -1.7581
10291TIP3    H252365   4.138   2.506  16.525  0.3850  0.4546  0.2435
10292TIP3   OH252366   1.745   0.864  16.595 -0.5494  0.3620 -0.4202
10292TIP3    H152367   1.758   0.905  16.680 -0.4016  0.0582 -0.2924
10292TIP3    H252368   1.696   0.784  16.614 -0.1809  0.0917 -0.5670
10293TIP3   OH252369   2.120   1.143  14.944 -0.1677  0.0335  0.2443
10293TIP3    H152370   2.143   1.193  14.865 -1.9005  0.4223 -0.0567
10293TIP3    H252371   2.087   1.209  15.004  3.2813  0.1235  2.3001
10294TIP3   OH252372   4.727   5.435  14.519 -0.2562 -0.0711 -0.3899
10294TIP3    H152373   4.747   5.496  14.448  1.8205 -0.6720 -0.3869
10294TIP3    H252374   4.812   5.412  14.556 -1.0150 -2.3361  0.1265
10295TIP3   OH252375   5.333   5.143  14.414 -0.0937 -0.1403 -0.2745
10295TIP3    H152376   5.392   5.069  14.429  0.2034  0.4447  1.7825
10295TIP3    H252377   5.261   5.128  14.475 -0.8522  0.4461 -1.0019
10296TIP3   OH252378   4.346   2.305  10.869  0.3414  0.4928  0.2511
10296TIP3    H152379   4.308   2.291  10.956  1.5248  1.9849  1.0717
10296TIP3    H252380   4.387   2.391  10.875  0.3293  0.6984 -1.8617
10297TIP3   OH252381   4.785   5.209  14.922  0.4166 -0.1542 -0.2629
10297TIP3    H152382   4.738   5.227  14.841 -3.4786 -1.8595  1.3963
10297TIP3    H252383   4.749   5.270  14.986  1.8090 -0.3052  0.7149
10298TIP3   OH252384   3.232   0.663  14.799 -0.4513  1.0610  0.3806
10298TIP3    H152385   3.292   0.589  14.805 -1.0169  0.3945 -1.4342
10298TIP3    H252386   3.160   0.641  14.858 -0.8721 -0.1253 -0.5434
10299TIP3   OH252387   4.234   6.435  16.868 -0.1121 -0.1534  0.1049
10299TIP3    H152388   4.305   6.387  16.909 -0.7398 -1.2663 -0.0832
10299TIP3    H252389   4.277   6.487  16.800  0.4977 -0.9706 -0.1483
10300TIP3   OH252390   6.780   0.659  15.982  0.6983 -0.0528  0.0100
10300TIP3    H152391   6.749   0.747  15.961 -1.5312 -0.4923  1.0709
10300TIP3    H252392   6.729   0.635  16.060 -0.4647 -3.1163 -1.5370
10301TIP3   OH252393   6.420   3.334  14.405  0.6200  0.0951 -0.0379
10301TIP3    H152394   6.458   3.383  14.477  0.6383  0.3688 -0.2327
10301TIP3    H252395   6.327   3.326  14.428  0.7100 -0.2135  0.2330
10302TIP3   OH252396   6.250   5.382  13.143  0.3181 -0.2475  0.4941
10302TIP3    H152397   6.283   5.442  13.210 -0.2149 -1.4411  1.8629
10302TIP3    H252398   6.318   5.315  13.135  1.0214  0.6075 -1.2022
10303TIP3   OH252399   5.115   4.921  13.533  0.2631  0.1141  0.2924
10303TIP3    H152400   5.072   4.994  13.578 -1.2673 -0.1474 -0.6728
10303TIP3    H252401   5.144   4.863  13.603 -0.7762  0.4284  1.0054
10304TIP3   OH252402   5.105   4.691   3.924  0.0655 -0.8944 -0.3520
10304TIP3    H152403   5.015   4.723   3.932  0.4671  0.3775 -0.6951
10304TIP3    H252404   5.124   4.695   3.830  1.0191  0.4603 -0.1315
10305TIP3   OH252405   6.171   1.608   0.181 -0.0762 -0.3194  0.4061
10305TIP3    H152406   6.135   1.562   0.256 -0.3223  1.3215  1.3496
10305TIP3    H252407   6.264   1.585   0.180  0.0826  0.2248  1.6765
10306TIP3   OH252408   6.398   5.730   1.636  0.3202 -0.0582 -0.4429
10306TIP3    H152409   6.385   5.802   1.698 -3.5765 -0.1195 -0.9574
10306TIP3    H252410   6.383   5.651   1.688  0.5415 -0.2846 -0.7229
10307TIP3   OH252411   6.273   1.533   4.729 -0.8204 -0.0218  0.7025
10307TIP3    H152412   6.186   1.572   4.723 -1.1343 -0.6724  0.9604
10307TIP3    H252413   6.267   1.472   4.802 -0.6202 -1.2502 -0.2764
10308TIP3   OH252414   0.690   2.571   1.022 -0.4583  0.3818  0.3051
10308TIP3    H152415   0.680   2.574   0.927  0.4984  3.0403  0.2039
10308TIP3    H252416   0.756   2.638   1.041  0.0112 -0.6949  2.7792
10309TIP3   OH252417   2.446   1.561  11.956 -0.5294  0.5064  0.3580
10309TIP3    H152418   2.525   1.530  11.913 -0.2796  2.1203 -0.4373
10309TIP3    H252419   2.383   1.576  11.885 -1.1765  0.2940  0.8702
10310TIP3   OH252420   6.738   4.388  12.161 -0.2010  0.3034  0.3819
10310TIP3    H152421   6.832   4.395  12.145 -0.0962 -0.3390  0.6765
10310TIP3    H252422   6.712   4.474  12.194  0.5446  0.1072  1.5505
10311TIP3   OH252423   4.251   4.719  14.385  0.4363 -0.2994  0.0459
10311TIP3    H152424   4.250   4.647  14.448  0.0134  0.6901  1.2149
10311TIP3    H252425   4.260   4.677  14.300 -0.9754 -1.8051  0.5953
10312TIP3   OH252426   4.718   6.372   3.467 -0.3173 -0.1153 -0.1620
10312TIP3    H152427   4.653   6.406   3.406  0.8874  2.0422 -0.3248
10312TIP3    H252428   4.789   6.435   3.465  0.1042 -0.3288  2.9302
10313TIP3   OH252429   1.383   0.443   3.125 -0.4523  0.2913  0.3830
10313TIP3    H152430   1.382   0.410   3.035 -0.1097  1.0081  0.1122
10313TIP3    H252431   1.292   0.466   3.143 -0.2169  2.1569 -0.5475
10314TIP3   OH252432   2.831   6.563  12.402 -0.2250  0.3603 -0.2705
10314TIP3    H152433   2.806   6.642  12.354 -0.2084  0.6681  0.2165
10314TIP3    H252434   2.832   6.494  12.336  0.4973  0.9080 -0.8507
10315TIP3   OH252435   5.164   4.255   4.651  0.8861  0.3677 -0.7524
10315TIP3    H152436   5.211   4.174   4.673 -1.1422 -0.6941 -0.0453
10315TIP3    H252437   5.204   4.285   4.570  0.2174 -2.6862 -2.3718
10316TIP3   OH252438   6.088   5.931   5.281 -0.4947 -0.2401  0.1014
10316TIP3    H152439   6.065   5.933   5.188 -0.1732  0.3642  0.0313
10316TIP3    H252440   6.183   5.919   5.283 -0.1238  2.2159  0.2827
10317TIP3   OH252441   1.505   4.031  16.622 -0.5173  0.0348 -0.4681
10317TIP3    H152442   1.431   4.068  16.574 -0.8861 -0.3732 -0.2215
10317TIP3    H252443   1.476   4.031  16.713 -0.6896 -1.2539 -0.5097
10318TIP3   OH252444   0.084   1.285  10.876  0.4098  0.1725 -0.4130
10318TIP3    H152445   0.047   1.342  10.944 -1.8765 -1.1126 -0.4477
10318TIP3    H252446   0.172   1.264  10.907 -0.2739  0.2527  1.7870
10319TIP3   OH252447   0.540   5.933  15.201 -0.1856  0.9033  0.1290
10319TIP3    H152448   0.489   5.898  15.128  2.0580  0.3187 -1.2702
10319TIP3    H252449   0.510   6.024  15.209  0.0068  1.2266 -2.0639
10320TIP3   OH252450   4.709   6.046   5.388 -0.0701  0.3427 -0.0279
10320TIP3    H152451   4.725   6.029   5.295 -0.2333 -2.5402  0.3840
10320TIP3    H252452   4.796   6.064   5.424  0.3400 -0.9162 -0.3391
10321TIP3   OH252453   4.199   5.437  10.812 -0.0605  0.2608  0.0978
10321TIP3    H152454   4.273   5.380  10.833  0.0530  0.5002  0.3385
10321TIP3    H252455   4.203   5.507  10.876 -0.7173  0.0728  0.3538
10322TIP3   OH252456   2.497   0.469  14.144  0.2359  0.3777  0.3382
10322TIP3    H152457   2.563   0.521  14.099  1.1215  0.2578  1.4649
10322TIP3    H252458   2.520   0.378  14.124 -0.6470  0.3538 -0.6979
10323TIP3   OH252459   1.320   5.932   1.674  0.4332  0.3406  0.3849
10323TIP3    H152460   1.261   5.876   1.623  0.6219 -0.2850  0.8405
10323TIP3    H252461   1.266   5.965   1.745  0.5514  0.0258  0.6200
10324TIP3   OH252462   4.502   1.783   6.065  1.1129 -0.3146  0.0012
10324TIP3    H152463   4.534   1.697   6.036 -1.4158 -1.4747  0.3878
10324TIP3    H252464   4.495   1.775   6.160  2.0635  0.7989  0.1888
10325TIP3   OH252465   0.208   2.889  16.648  0.1865 -0.1047 -0.8327
10325TIP3    H152466   0.254   2.906  16.730  1.5477 -1.7106 -1.2080
10325TIP3    H252467   0.115   2.885  16.673  0.3999  1.3102  0.2713
10326TIP3   OH252468   6.584   4.707   3.272  0.3434 -0.6877  0.3570
10326TIP3    H152469   6.550   4.702   3.183 -0.1357 -2.3686  0.6023
10326TIP3    H252470   6.666   4.756   3.264 -0.8508  1.2435 -0.6171
10327TIP3   OH252471   5.185   0.513   2.058 -0.2423  0.0332  0.8129
10327TIP3    H152472   5.219   0.572   1.991 -1.0998  0.1301  0.4510
10327TIP3    H252473   5.107   0.474   2.018  1.4876 -3.1121  0.1206
10328TIP3   OH252474   4.251   1.791  13.852 -0.2015 -0.2879 -0.5766
10328TIP3    H152475   4.328   1.752  13.894 -0.0984  0.7179  0.2113
10328TIP3    H252476   4.179   1.733  13.876 -0.0390 -0.0547  0.5158
10329TIP3   OH252477   6.178   4.027   3.901  0.3644 -0.2727 -0.0500
10329TIP3    H152478   6.144   4.100   3.850  0.0636 -0.4024 -0.0408
10329TIP3    H252479   6.159   3.950   3.848 -0.2865 -0.4481  0.4087
10330TIP3   OH252480   3.463   5.372   3.641 -0.2516 -0.2220  0.1478
10330TIP3    H152481   3.405   5.297   3.628 -0.8241 -0.0340  1.4530
10330TIP3    H252482   3.450   5.397   3.733  1.2046  0.4050  0.2173
10331TIP3   OH252483   0.055   3.190   4.496 -0.0239 -0.3475 -0.0215
10331TIP3    H152484   0.131   3.140   4.527  0.4754  1.3824  1.7445
10331TIP3    H252485   0.003   3.205   4.575 -1.1834  0.2105 -0.8729
10332TIP3   OH252486   5.313   2.349  12.782  0.2007  0.2208 -0.5351
10332TIP3    H152487   5.359   2.295  12.718 -0.7671 -0.9451 -0.2748
10332TIP3    H252488   5.337   2.439  12.759  2.5465 -0.3241 -0.4228
10333TIP3   OH252489   3.393   2.777  11.317  0.0299  0.2043 -0.7664
10333TIP3    H152490   3.423   2.819  11.398  0.5448 -0.5301 -0.5589
10333TIP3    H252491   3.309   2.819  11.298  0.4498  1.2073 -0.4930
10334TIP3   OH252492   3.565   2.637  14.770  0.1108 -0.0861  0.2965
10334TIP3    H152493   3.506   2.573  14.811 -2.9885  1.7995 -0.8985
10334TIP3    H252494   3.599   2.592  14.693 -1.0319 -0.7144  0.1439
10335TIP3   OH252495   0.663   3.746  12.459 -0.1820 -0.4646  0.4402
10335TIP3    H152496   0.758   3.747  12.473  0.0653 -0.0083 -1.0529
10335TIP3    H252497   0.648   3.671  12.401 -0.6672 -0.2995  0.3463
10336TIP3   OH252498   5.247   2.993  13.247  0.1500 -0.2347  0.5825
10336TIP3    H152499   5.284   2.981  13.334 -0.2806 -2.9353  0.4629
10336TIP3    H252500   5.161   3.031  13.263  0.2427 -0.3067  1.3048
10337TIP3   OH252501   0.483   1.073  11.534 -0.4279  0.2808 -0.1555
10337TIP3    H152502   0.504   1.012  11.463  0.0291 -0.2539  0.4187
10337TIP3    H252503   0.407   1.122  11.502 -0.4727 -0.2209 -0.8528
10338TIP3   OH252504   5.174   0.516   0.243 -0.2876  0.0545  0.4524
10338TIP3    H152505   5.262   0.486   0.220  0.5799  2.2176  0.7024
10338TIP3    H252506   5.187   0.577   0.316 -2.0413  0.1048  0.7737
10339TIP3   OH252507   2.944   2.408  17.004 -0.4720 -0.2620 -0.1680
10339TIP3    H152508   3.039   2.415  16.994 -0.1930 -1.1323  1.5158
10339TIP3    H252509   2.919   2.337  16.946 -0.3318  0.8939 -1.7008
10340TIP3   OH252510   1.119   0.534  10.843  0.0479 -0.2305  0.0854
10340TIP3    H152511   1.170   0.580  10.777  0.3590 -0.0912  0.4191
10340TIP3    H252512   1.043   0.591  10.859  0.0506 -0.1924 -0.0372
10341TIP3   OH252513   6.173   6.602   0.303  0.6893  0.2698 -0.3079
10341TIP3    H152514   6.193   6.592   0.210  1.1574  1.6536 -0.3817
10341TIP3    H252515   6.248   6.649   0.339 -0.4220  1.6209  0.3246
10342TIP3   OH252516   5.875   4.920  12.818  0.7769  0.2420 -0.7269
10342TIP3    H152517   5.864   5.008  12.852  2.2508  1.1093 -2.3267
10342TIP3    H252518   5.948   4.884  12.868  0.2735 -0.0319 -0.1778
10343TIP3   OH252519   6.623   0.034   3.058  0.9036 -0.0208  0.0325
10343TIP3    H152520   6.617   0.038   2.962  1.1188  0.3004  0.0309
10343TIP3    H252521   6.650  -0.056   3.076  2.0577  0.2381 -0.2827
10344TIP3   OH252522   2.991   5.697  11.891  0.2572  0.2729  0.0968
10344TIP3    H152523   3.002   5.606  11.865 -2.1885 -0.2669  0.6391
10344TIP3    H252524   2.914   5.696  11.949  0.2157  2.6663  0.1902
10345TIP3   OH252525   0.379   4.835   1.725 -0.6226 -0.5280  0.1537
10345TIP3    H152526   0.328   4.853   1.646 -2.5709  0.0606  1.4589
10345TIP3    H252527   0.418   4.919   1.748  1.0276 -0.9711 -0.8264
10346TIP3   OH252528   1.574   2.846  16.884  0.0908  0.0191  0.3717
10346TIP3    H152529   1.665   2.841  16.913  0.0700  0.2917  0.4848
10346TIP3    H252530   1.552   2.939  16.889  0.1255  0.0922 -0.6363
10347TIP3   OH252531   1.381   2.332   5.063  0.9427  0.2036  0.3397
10347TIP3    H152532   1.415   2.248   5.093  1.4431 -0.1877 -1.1961
10347TIP3    H252533   1.460   2.382   5.040  0.6219  0.8529  0.6328
10348TIP3   OH252534   5.422   1.178   1.666 -0.0308  0.1437 -0.1221
10348TIP3    H152535   5.442   1.234   1.591  0.6799 -0.0246 -0.0683
10348TIP3    H252536   5.327   1.164   1.662  0.1676 -1.1050 -1.8817
10349TIP3   OH252537   2.618   1.273  16.553 -0.6136  0.7223  0.3014
10349TIP3    H152538   2.672   1.244  16.626 -0.2105  2.2176  0.6183
10349TIP3    H252539   2.550   1.326  16.593 -0.8721  0.8875 -0.3441
10350TIP3   OH252540   4.549   1.374  16.870  0.1220 -0.1323  0.7526
10350TIP3    H152541   4.643   1.380  16.889 -0.0748 -0.2749  1.8498
10350TIP3    H252542   4.514   1.459  16.898 -0.1511 -0.2579  0.7937
10351TIP3   OH252543   1.303   0.865  16.805  0.6124  0.1556 -0.4631
10351TIP3    H152544   1.236   0.933  16.811 -1.3562 -1.6811 -0.4238
10351TIP3    H252545   1.285   0.820  16.722  1.2228 -0.9130 -0.0457
10352TIP3   OH252546   0.315   6.504  15.913  0.4766 -1.1024  0.0974
10352TIP3    H152547   0.407   6.530  15.914  0.2189 -0.1648 -0.4188
10352TIP3    H252548   0.266   6.586  15.918 -0.3621 -1.6600  2.6097
10353TIP3   OH252549   6.017   3.348   2.368 -0.4961  0.2163 -0.0624
10353TIP3    H152550   6.015   3.275   2.305  0.1990  0.2222 -0.0925
10353TIP3    H252551   5.924   3.368   2.383 -0.7899 -1.9237  1.4060
10354TIP3   OH252552   2.491   3.331   3.627  0.3451 -0.2091 -0.0685
10354TIP3    H152553   2.400   3.336   3.659  0.4517 -0.6200  0.3030
10354TIP3    H252554   2.494   3.252   3.575  0.4975 -0.2086 -0.0601
10355TIP3   OH252555   4.350   3.269  14.908  0.3057  0.3307  0.2814
10355TIP3    H152556   4.370   3.256  15.000  0.1439 -0.0632  0.2598
10355TIP3    H252557   4.425   3.318  14.873 -0.5231  2.2831  1.0725
10356TIP3   OH252558   2.591   4.777   1.507 -0.0360  0.3692  0.4685
10356TIP3    H152559   2.498   4.755   1.497  0.1932 -0.8355  0.8545
10356TIP3    H252560   2.628   4.765   1.420  0.0199 -0.4987  0.6033
10357TIP3   OH252561   0.031   5.636   0.473 -0.0028 -0.1310  0.0641
10357TIP3    H152562   0.027   5.566   0.537  0.9643 -0.8273 -0.6010
10357TIP3    H252563   0.101   5.609   0.413  0.7883  1.6579  0.1171
10358TIP3   OH252564   1.275   5.506   6.290  0.3709 -0.8527 -0.2779
10358TIP3    H152565   1.234   5.534   6.208 -0.0533 -0.7827 -0.0454
10358TIP3    H252566   1.206   5.459   6.336  0.5882 -0.8305  0.0742
10359TIP3   OH252567   1.444   5.731   4.386 -0.0178  0.8578  0.2540
10359TIP3    H152568   1.398   5.814   4.373  0.1507  0.8940 -0.1492
10359TIP3    H252569   1.451   5.694   4.298 -1.7015 -0.4638  0.6198
10360TIP3   OH252570   1.505   4.627  10.809  0.2356  0.3823  0.1177
10360TIP3    H152571   1.580   4.667  10.765 -0.1425  1.8182  0.7197
10360TIP3    H252572   1.451   4.592  10.738  0.7393  0.6751 -0.4185
10361TIP3   OH252573   6.125   0.591   4.295  0.3858  0.4275 -0.3167
10361TIP3    H152574   6.074   0.518   4.259  0.2096  0.0221  0.7265
10361TIP3    H252575   6.082   0.669   4.261  0.7174  0.0558 -1.6438
10362TIP3   OH252576   4.434   1.721   3.662 -0.2063 -0.1503  0.0279
10362TIP3    H152577   4.353   1.761   3.692 -0.3169 -0.6535  0.4120
10362TIP3    H252578   4.501   1.787   3.679 -0.4698  0.0978  0.1155
10363TIP3   OH252579   2.864   3.223  12.255  0.3936  0.5973  0.0679
10363TIP3    H152580   2.783   3.250  12.212 -0.0064 -0.0973  0.3758
10363TIP3    H252581   2.881   3.135  12.222 -0.4242 -0.3395  1.9974
10364TIP3   OH252582   2.738   5.792   0.778 -0.1110 -0.2870 -0.1827
10364TIP3    H152583   2.715   5.801   0.685  1.4260  0.9433 -0.4762
10364TIP3    H252584   2.654   5.795   0.824 -1.1102 -2.9545 -1.6111
10365TIP3   OH252585   4.833   1.268  16.564 -0.3763 -0.1590 -0.7072
10365TIP3    H152586   4.821   1.316  16.482 -0.9326  0.3314 -0.3415
10365TIP3    H252587   4.921   1.292  16.593  0.1960 -1.0745 -1.6357
10366TIP3   OH252588   2.272   2.182   4.288 -0.0492 -0.0087 -0.7517
10366TIP3    H152589   2.302   2.213   4.374 -2.2681 -0.3010  0.2015
10366TIP3    H252590   2.341   2.208   4.227  1.9704 -0.4930  1.2170
10367TIP3   OH252591   4.130   6.037  14.472 -0.5153 -0.0617  0.8626
10367TIP3    H152592   4.199   5.986  14.513  2.0582  0.6128 -2.2125
10367TIP3    H252593   4.078   5.972  14.423  1.2895 -0.1391 -1.0926
10368TIP3   OH252594   5.432   5.183   5.019 -0.1765  0.0594  0.4936
10368TIP3    H152595   5.483   5.264   5.022 -0.2917  0.3955 -2.8634
10368TIP3    H252596   5.368   5.192   5.089  3.1392  0.3592  3.7972
10369TIP3   OH252597   2.690   1.596  13.696  0.6240  0.4166  0.2087
10369TIP3    H152598   2.602   1.604  13.733  0.3491 -0.2706 -0.2809
10369TIP3    H252599   2.736   1.675  13.727  0.1289  0.3221  1.2387
10370TIP3   OH252600   4.713   2.876  10.821  0.0403 -0.1526  0.0283
10370TIP3    H152601   4.669   2.834  10.747  1.0908 -0.0054 -0.7013
10370TIP3    H252602   4.786   2.818  10.842  0.6512  0.5834 -0.0481
10371TIP3   OH252603   5.165   2.256   1.802  0.5699 -0.1665  0.0905
10371TIP3    H152604   5.237   2.252   1.865  0.8465  0.9613 -0.1433
10371TIP3    H252605   5.167   2.345   1.767 -1.9417  0.4475  1.2552
10372TIP3   OH252606   5.340   1.355   0.652  0.0801 -0.3164  0.4289
10372TIP3    H152607   5.356   1.421   0.719 -0.1297  1.2737 -1.0372
10372TIP3    H252608   5.252   1.375   0.619  1.4406  1.1755 -2.6848
10373TIP3   OH252609   6.040   5.110   0.976  0.1356  0.6622  0.4772
10373TIP3    H152610   5.965   5.052   0.966  0.2723  0.0709  2.5189
10373TIP3    H252611   6.101   5.062   1.032  2.4315  0.7936 -1.7124
10374TIP3   OH252612   1.467   1.151   4.398 -0.1071  0.1782  0.3856
10374TIP3    H152613   1.449   1.220   4.334 -2.3188 -1.5026 -0.9798
10374TIP3    H252614   1.407   1.080   4.374  2.4416 -2.4963  1.3132
10375TIP3   OH252615   3.673   3.292  12.820 -0.0213  0.6935 -0.6133
10375TIP3    H152616   3.717   3.377  12.823 -1.9055  1.7309 -1.0080
10375TIP3    H252617   3.650   3.275  12.911  1.3316  0.0232 -0.3645
10376TIP3   OH252618   4.258   4.502  14.570  0.3520 -0.1074 -0.2704
10376TIP3    H152619   4.256   4.477  14.663  0.9273  1.3576  0.1673
10376TIP3    H252620   4.261   4.419  14.523  1.9507 -0.8823  1.0829
10377TIP3   OH252621   0.341   0.046  11.770  0.4648  0.5913  0.2992
10377TIP3    H152622   0.405   0.108  11.804  1.4391 -0.2032 -0.0246
10377TIP3    H252623   0.365   0.034  11.678  0.7427 -0.7742  0.5189
10378TIP3   OH252624   4.818   1.958   2.551 -0.5007 -0.0369  0.3046
10378TIP3    H152625   4.745   2.020   2.549 -0.1930  0.3976 -3.1078
10378TIP3    H252626   4.893   2.011   2.577 -0.6688  0.4684 -0.2249
10379TIP3   OH252627   2.141   3.502  12.712  0.5824 -0.0068  0.5420
10379TIP3    H152628   2.071   3.542  12.661  1.9915  1.1026 -0.5841
10379TIP3    H252629   2.098   3.430  12.759 -1.3916  0.9334  0.2755
10380TIP3   OH252630   5.989   2.591  11.245  0.1373  0.8920  0.2797
10380TIP3    H152631   5.905   2.562  11.207 -0.2274  1.4355  0.6574
10380TIP3    H252632   5.975   2.683  11.265  0.1234  0.4947  2.2447
10381TIP3   OH252633   3.055   3.354  11.331  0.5049 -0.0316 -0.1156
10381TIP3    H152634   3.145   3.345  11.301  1.5722 -2.1871  3.0999
10381TIP3    H252635   3.022   3.264  11.335 -1.5811  0.6599 -0.6009
10382TIP3   OH252636   6.334   2.417   6.158 -0.7088 -0.1044 -0.4816
10382TIP3    H152637   6.414   2.467   6.145 -1.1267  0.2324 -1.9420
10382TIP3    H252638   6.283   2.468   6.220 -1.1766  1.3835 -2.0277
10383TIP3   OH252639   3.377   0.173   5.281 -0.0932  0.1470  0.4124
10383TIP3    H152640   3.417   0.086   5.281 -1.1219 -0.3524  1.1895
10383TIP3    H252641   3.343   0.184   5.192 -0.1241 -0.3330  0.3652
10384TIP3   OH252642   2.052   3.124   1.570 -0.4647 -0.0312  0.3146
10384TIP3    H152643   2.022   3.102   1.658 -0.1176  1.7807  0.9288
10384TIP3    H252644   2.081   3.215   1.577  1.5991 -0.5039 -1.1461
10385TIP3   OH252645   4.109   6.570   1.136  0.1577  0.0329 -0.0224
10385TIP3    H152646   4.065   6.489   1.163 -0.1379  0.4593  0.8187
10385TIP3    H252647   4.082   6.583   1.046  0.6959 -1.1269 -0.3717
10386TIP3   OH252648   3.043   4.273   3.132  0.3638 -0.0109  0.2569
10386TIP3    H152649   3.064   4.182   3.113  0.4867  0.2773 -1.1129
10386TIP3    H252650   3.116   4.323   3.095 -0.3771  0.7105 -0.2706
10387TIP3   OH252651   6.177   4.516  13.525 -0.1624  0.1690 -0.2132
10387TIP3    H152652   6.127   4.550  13.600  2.6358  3.6484  0.3664
10387TIP3    H252653   6.133   4.553  13.449  1.1904  3.1641  0.2874
10388TIP3   OH252654   1.681   6.678  11.961 -0.2676 -0.6519  0.2395
10388TIP3    H152655   1.756   6.720  11.917 -1.0409 -0.9478 -1.4410
10388TIP3    H252656   1.702   6.685  12.054  1.5535 -0.1677 -0.1492
10389TIP3   OH252657   3.165   2.780  17.087 -0.1602  0.0046 -0.1449
10389TIP3    H152658   3.132   2.779  16.997  0.3631  0.5584 -0.3480
10389TIP3    H252659   3.110   2.844  17.132  0.1016  0.3311 -0.2818
10390TIP3   OH252660   6.796   1.352  12.380 -0.2317  0.2558 -0.0859
10390TIP3    H152661   6.776   1.441  12.408 -2.2059  0.5152 -2.0048
10390TIP3    H252662   6.888   1.339  12.404 -0.2872  2.2893  1.4654
10391TIP3   OH252663   2.393   4.708   1.223  0.1414 -0.3277 -0.3801
10391TIP3    H152664   2.425   4.660   1.147 -0.1322 -1.1141 -0.0040
10391TIP3    H252665   2.298   4.704   1.217  0.0807 -1.8958  0.9026
10392TIP3   OH252666   0.028   6.664  11.328 -0.1819 -0.3717  0.5160
10392TIP3    H152667   0.036   6.691  11.237  0.9284 -0.9142  0.4344
10392TIP3    H252668   0.071   6.578  11.332  0.2835 -0.1077  1.6540
10393TIP3   OH252669   1.435   1.212   5.505  0.0708 -0.2695 -0.1531
10393TIP3    H152670   1.342   1.232   5.515  0.0979 -0.7605  1.3808
10393TIP3    H252671   1.443   1.175   5.417 -1.4123 -1.4103  0.1532
10394TIP3   OH252672   1.963   0.696  12.712  0.6102 -0.2751  0.1495
10394TIP3    H152673   1.892   0.756  12.734  0.3420 -0.7679  0.6742
10394TIP3    H252674   2.038   0.752  12.693  0.1886  0.2378 -0.0093
10395TIP3   OH252675   5.551   3.297  12.234 -0.6021 -0.0728 -0.0742
10395TIP3    H152676   5.635   3.337  12.257 -0.4679 -0.0735 -0.5516
10395TIP3    H252677   5.508   3.281  12.318 -0.6129  0.9703  0.1287
10396TIP3   OH252678   4.575   4.120   1.584  0.2996 -0.4550 -0.1821
10396TIP3    H152679   4.508   4.188   1.577  0.6364 -0.1285 -0.2931
10396TIP3    H252680   4.529   4.038   1.569 -0.1345 -0.2570  0.0704
10397TIP3   OH252681   0.375   0.060   1.924  0.2795 -0.3155 -0.4387
10397TIP3    H152682   0.352   0.128   1.987  0.7009 -1.3877  0.9538
10397TIP3    H252683   0.437   0.102   1.864 -0.7792  0.9621 -0.6631
10398TIP3   OH252684   5.017   1.022  16.835  0.0506  0.2265 -0.1943
10398TIP3    H152685   5.090   1.077  16.863 -1.1046  1.1459  1.1986
10398TIP3    H252686   5.050   0.933  16.840  1.0939  0.6239  0.3510
10399TIP3   OH252687   0.043   2.569  12.398  0.3135  0.5472  0.4243
10399TIP3    H152688   0.127   2.562  12.445  0.5021 -0.7228 -0.0419
10399TIP3    H252689   0.005   2.651  12.428  0.9771  0.3528  1.8881
10400TIP3   OH252690   4.407   1.027   2.225  0.2202 -0.1191  0.3498
10400TIP3    H152691   4.379   0.956   2.282 -1.6574 -1.5859 -2.2136
10400TIP3    H252692   4.329   1.080   2.210  1.0347  1.1385  0.2990
10401TIP3   OH252693   6.616   6.294   5.990  0.1763  0.0666 -0.3775
10401TIP3    H152694   6.623   6.340   6.074  0.8230  1.0383 -0.9344
10401TIP3    H252695   6.552   6.345   5.940  0.3752 -0.0441 -0.7485
10402TIP3   OH252696   1.700   5.797   0.230 -0.0101  0.4398 -0.3099
10402TIP3    H152697   1.734   5.785   0.319  1.7570  0.1720 -0.9908
10402TIP3    H252698   1.672   5.888   0.227 -1.0704  0.1795  0.8216
10403TIP3   OH252699   0.879   1.534  15.055 -0.6471  0.2532  0.1903
10403TIP3    H152700   0.868   1.536  14.960 -0.3310  1.2796  0.1671
10403TIP3    H252701   0.974   1.525  15.068 -0.8099 -1.6654  0.4247
10404TIP3   OH252702   6.735   2.014  16.874  0.7167  0.4434 -0.1205
10404TIP3    H152703   6.807   1.960  16.907 -0.3190 -0.0414  1.4580
10404TIP3    H252704   6.657   1.961  16.888  0.1053  0.2889 -3.2259
10405TIP3   OH252705   6.690   5.007  11.350  0.5364  0.3440 -0.6652
10405TIP3    H152706   6.689   5.043  11.439  0.8512 -2.3343  0.5143
10405TIP3    H252707   6.760   5.055  11.306 -0.5265  2.6885  0.0289
10406TIP3   OH252708   6.843   4.663   3.569 -0.2298  0.2631 -0.5403
10406TIP3    H152709   6.825   4.619   3.485 -1.7620  1.3982 -0.8549
10406TIP3    H252710   6.849   4.591   3.632  2.2996 -0.7299 -1.7616
10407TIP3   OH252711   1.373   5.359  16.562  0.0669 -0.4994  0.1355
10407TIP3    H152712   1.306   5.426  16.553 -0.3216 -0.8501  0.3408
10407TIP3    H252713   1.342   5.304  16.634 -0.2393 -1.5966 -0.8035
10408TIP3   OH252714   0.079   2.277   2.462 -0.2647 -0.2810 -0.6401
10408TIP3    H152715   0.082   2.213   2.391 -1.2606  0.5767 -1.4916
10408TIP3    H252716  -0.009   2.268   2.500  0.0995 -0.4187  0.1978
10409TIP3   OH252717   3.275   2.568   2.206  0.0302  0.4404 -0.2296
10409TIP3    H152718   3.361   2.578   2.248  0.3321  0.0376 -0.7366
10409TIP3    H252719   3.294   2.571   2.112 -0.5063  0.2673 -0.3459
10410TIP3   OH252720   4.077   3.911  12.312  0.2209 -0.7790 -0.7419
10410TIP3    H152721   4.170   3.915  12.293  0.5669  1.1092  0.9769
10410TIP3    H252722   4.038   3.978  12.256  0.5332  1.2512  1.3429
10411TIP3   OH252723   4.214   2.823  11.964  0.0434  0.0212 -0.4973
10411TIP3    H152724   4.289   2.788  11.915  0.5137 -1.0875  0.9293
10411TIP3    H252725   4.181   2.748  12.014 -0.7769  0.9616  0.4211
10412TIP3   OH252726   4.674   1.161   3.518 -0.3497  0.5564  0.0796
10412TIP3    H152727   4.678   1.152   3.613  0.1767  0.4492  0.0482
10412TIP3    H252728   4.716   1.082   3.484 -0.3331  0.6986 -0.2373
10413TIP3   OH252729   5.849   2.384   3.763  0.5104  0.1048  0.0046
10413TIP3    H152730   5.768   2.386   3.711  1.1936 -2.0174 -1.2741
10413TIP3    H252731   5.877   2.475   3.767 -2.4661  1.0717  1.4217
10414TIP3   OH252732   2.274   2.952  13.369  0.0622  0.4627  0.0178
10414TIP3    H152733   2.340   3.013  13.337 -0.5582  0.6050 -1.0156
10414TIP3    H252734   2.320   2.869  13.379  0.7433  0.9168  0.7619
10415TIP3   OH252735   5.850   3.395   3.087  0.1264  0.1032  0.1140
10415TIP3    H152736   5.832   3.320   3.031  0.0502 -0.3906  0.8001
10415TIP3    H252737   5.766   3.417   3.127  0.1900  0.4281  0.0774
10416TIP3   OH252738   2.777   0.011   3.263  0.1529 -0.2014  0.2575
10416TIP3    H152739   2.868   0.035   3.242  0.4104 -1.3297  0.0297
10416TIP3    H252740   2.783  -0.078   3.298 -0.8871 -0.3751  0.0316
10417TIP3   OH252741   0.320   6.608   0.668  0.1810  0.1957  0.4380
10417TIP3    H152742   0.380   6.641   0.735 -1.6807  2.2722  1.2204
10417TIP3    H252743   0.281   6.530   0.706  1.8167 -0.7929  0.1834
10418TIP3   OH252744   2.481   1.230  12.436 -0.0456  0.1643  0.1221
10418TIP3    H152745   2.442   1.317  12.446  0.6246  0.8061 -2.2850
10418TIP3    H252746   2.574   1.244  12.452  0.0735 -0.0996 -0.3306
10419TIP3   OH252747   5.610   0.987   4.016 -0.3190  0.2538  0.2298
10419TIP3    H152748   5.646   0.953   4.098  1.6501  0.9278 -0.2966
10419TIP3    H252749   5.618   1.082   4.024  0.9374  0.3134 -1.1207
10420TIP3   OH252750   5.360   3.410   0.432  0.9487 -0.5417  0.2723
10420TIP3    H152751   5.428   3.366   0.482  0.3460 -1.7003  0.0998
10420TIP3    H252752   5.342   3.352   0.358  0.1225 -0.0150  0.0422
10421TIP3   OH252753   5.743   4.243   4.244  0.4585 -0.6449  0.0577
10421TIP3    H152754   5.813   4.306   4.262  1.5879 -1.1465 -2.2930
10421TIP3    H252755   5.673   4.296   4.205  0.4396 -0.5052  0.2749
10422TIP3   OH252756   6.118   5.386   5.270 -0.0768  0.1965  0.1100
10422TIP3    H152757   6.054   5.454   5.248  0.0978  0.7136  1.1590
10422TIP3    H252758   6.083   5.345   5.349  0.2089 -0.4380 -0.0877
10423TIP3   OH252759   2.636   0.126   6.376 -0.2465 -0.2109  0.2679
10423TIP3    H152760   2.559   0.129   6.320  0.4978 -0.5855 -0.8160
10423TIP3    H252761   2.605   0.155   6.461 -1.1839  1.5343 -0.5975
10424TIP3   OH252762   4.082   5.734   0.376  0.0401  0.4349 -0.4238
10424TIP3    H152763   4.024   5.810   0.376 -0.9437 -0.2848 -0.9502
10424TIP3    H252764   4.130   5.741   0.458 -0.0241  1.6264 -0.4767
10425TIP3   OH252765   3.508   3.294   4.996 -0.2032 -0.4087 -0.2309
10425TIP3    H152766   3.432   3.346   5.022 -0.9079 -1.0759 -0.8764
10425TIP3    H252767   3.488   3.266   4.907  0.6364 -0.9013 -0.2738
10426TIP3   OH252768   0.567   0.360  16.436  0.4531  0.1590  0.8459
10426TIP3    H152769   0.556   0.276  16.392 -1.6048  1.1961 -0.8032
10426TIP3    H252770   0.657   0.386  16.417  1.2536 -1.7735  1.7017
10427TIP3   OH252771   2.790   6.808   0.329  0.0672  0.1913 -0.6764
10427TIP3    H152772   2.812   6.901   0.334 -0.4453  0.3565 -1.4894
10427TIP3    H252773   2.712   6.803   0.274 -1.2574 -0.5042  1.1523
10428TIP3   OH252774   3.445   3.036   6.019 -0.0932  0.6283 -0.0282
10428TIP3    H152775   3.426   3.013   6.110  1.8910 -0.5876  0.1399
10428TIP3    H252776   3.523   2.985   5.997  0.4058  2.0851 -1.9243
10429TIP3   OH252777   0.672   6.050   3.462 -0.1738  0.2754  0.3122
10429TIP3    H152778   0.667   5.958   3.438 -0.6940  0.6881 -1.3054
10429TIP3    H252779   0.585   6.071   3.496 -0.5619  0.5241 -0.7914
10430TIP3   OH252780   5.714   1.840  15.160 -0.3845 -0.0373  0.1424
10430TIP3    H152781   5.782   1.793  15.208 -1.2313 -1.7479 -0.2470
10430TIP3    H252782   5.632   1.805  15.196 -1.0413  0.9382 -0.3861
10431TIP3   OH252783   2.041   5.593   3.486 -0.3809 -0.1324 -0.8308
10431TIP3    H152784   1.997   5.644   3.553  0.2515  1.0438 -1.2813
10431TIP3    H252785   1.979   5.590   3.413 -1.2827 -1.8574 -0.0435
10432TIP3   OH252786   0.293   1.747   2.496 -0.0965 -0.0886  0.0631
10432TIP3    H152787   0.382   1.712   2.502 -0.2052 -0.1412  1.5193
10432TIP3    H252788   0.300   1.817   2.432  0.6535 -1.0983 -1.0155
10433TIP3   OH252789   1.854   4.895   4.531  0.1968  0.1892  0.5287
10433TIP3    H152790   1.904   4.830   4.480 -0.2711 -0.2459  0.6190
10433TIP3    H252791   1.774   4.909   4.480 -2.6544 -3.8290  3.2872
10434TIP3   OH252792   4.928   5.188   2.727  0.9689 -0.2615 -0.1014
10434TIP3    H152793   4.997   5.228   2.781  0.7759 -0.9893  0.7002
10434TIP3    H252794   4.920   5.247   2.652  0.9030  1.0421  0.8962
10435TIP3   OH252795   5.852   1.802  16.768  1.0744  0.0181  0.9081
10435TIP3    H152796   5.836   1.848  16.685  1.8455  2.3820  1.9660
10435TIP3    H252797   5.768   1.805  16.813  0.8050 -0.7361  0.4613
10436TIP3   OH252798   2.751   6.201  12.569 -0.4664  0.8740 -0.4325
10436TIP3    H152799   2.665   6.182  12.532 -0.0851  1.3062 -1.5741
10436TIP3    H252800   2.813   6.183  12.498  0.4761 -0.2125  0.6119
10437TIP3   OH252801   4.889   4.707   3.772  0.2259 -0.1262  0.0696
10437TIP3    H152802   4.811   4.720   3.717  0.0381  1.7242  0.7115
10437TIP3    H252803   4.938   4.788   3.764  0.6819 -0.1812  1.8615
10438TIP3   OH252804   0.033   0.245   0.092 -0.3476  0.3153  0.1863
10438TIP3    H152805  -0.024   0.220   0.019 -1.9124  0.6255  1.2551
10438TIP3    H252806   0.035   0.168   0.148 -0.0806  0.4703  0.3916
10439TIP3   OH252807   2.297   1.703  14.757 -0.2423  0.4916 -0.6250
10439TIP3    H152808   2.260   1.788  14.782 -0.9081 -0.3633  1.5343
10439TIP3    H252809   2.390   1.720  14.747 -0.0539  1.1694  1.6485
10440TIP3   OH252810   1.378   2.596  14.556 -0.2309 -0.1137 -0.0770
10440TIP3    H152811   1.398   2.638  14.473 -0.7324 -0.5038 -0.4041
10440TIP3    H252812   1.299   2.545  14.539 -1.5513  1.4082  1.1702
10441TIP3   OH252813   2.517   3.067   3.991 -0.5100 -0.0773 -0.3051
10441TIP3    H152814   2.515   3.148   4.042 -1.2903 -0.0883 -0.3041
10441TIP3    H252815   2.435   3.023   4.013  0.6064 -1.6704  0.9765
10442TIP3   OH252816   1.097   0.361  11.985 -0.0481 -0.2617  0.4955
10442TIP3    H152817   1.094   0.302  11.910  1.5591 -3.0491  2.4466
10442TIP3    H252818   1.005   0.376  12.007 -0.5099 -0.6144 -1.0998
10443TIP3   OH252819   4.547   0.853   0.908 -0.0196 -0.4918 -0.2866
10443TIP3    H152820   4.596   0.891   0.980  0.5991 -0.6293 -0.6285
10443TIP3    H252821   4.481   0.919   0.886  0.8972  0.2949 -0.7272
10444TIP3   OH252822   4.416   4.258   0.746  0.6570  0.5666 -0.6639
10444TIP3    H152823   4.442   4.273   0.837  0.3497 -0.2588 -0.4269
10444TIP3    H252824   4.330   4.300   0.739  1.1531  1.5613 -0.8834
10445TIP3   OH252825   2.096   3.286  15.059 -0.2339 -0.4152  0.1501
10445TIP3    H152826   2.189   3.265  15.071 -0.0139 -1.0886 -2.1387
10445TIP3    H252827   2.056   3.202  15.037 -0.7487  0.3324 -1.9949
10446TIP3   OH252828   6.286   1.301   1.894  0.4403  0.6473 -0.5441
10446TIP3    H152829   6.197   1.273   1.873  0.4957 -0.1186  0.1914
10446TIP3    H252830   6.312   1.245   1.968  2.1463 -0.3251 -1.8174
10447TIP3   OH252831   5.124   1.326  13.676 -0.3577  0.2145 -0.4391
10447TIP3    H152832   5.176   1.308  13.598 -0.1509  1.2287 -0.5588
10447TIP3    H252833   5.038   1.352  13.643 -0.6194 -0.4196 -0.2791
10448TIP3   OH252834   0.643   5.282   1.285  0.0126  0.3881  0.4661
10448TIP3    H152835   0.657   5.210   1.347  0.3795 -0.8365 -0.9944
10448TIP3    H252836   0.550   5.278   1.264  0.4485 -1.3769 -1.5428
10449TIP3   OH252837   4.800   3.200  12.171  0.0197  0.2849 -0.2664
10449TIP3    H152838   4.841   3.158  12.096 -2.6525 -2.2687 -0.4565
10449TIP3    H252839   4.740   3.134  12.206 -1.0722  2.4400  2.2743
10450TIP3   OH252840   6.376   4.631  14.117  0.1111 -0.4286  0.3691
10450TIP3    H152841   6.297   4.635  14.170  0.4147 -0.5754  0.8335
10450TIP3    H252842   6.440   4.685  14.164  0.8014 -1.6471  0.8801
10451TIP3   OH252843   1.929   5.914  15.036  0.5309  0.6692  0.1875
10451TIP3    H152844   1.970   5.990  14.994 -0.0082  2.2225  2.2734
10451TIP3    H252845   1.960   5.918  15.127  0.5968 -1.7285  0.3153
10452TIP3   OH252846   3.713   3.017  13.246 -0.6206 -0.0786 -0.6000
10452TIP3    H152847   3.622   2.993  13.229 -0.9508  1.4214 -1.1307
10452TIP3    H252848   3.711   3.113  13.252  0.8339 -0.0703 -0.0470
10453TIP3   OH252849   1.022   0.401   2.779  0.3860 -0.2727 -0.3103
10453TIP3    H152850   1.007   0.410   2.685  1.3700  1.9763 -0.3152
10453TIP3    H252851   0.963   0.331   2.807  0.8765 -1.7656 -2.7632
10454TIP3   OH252852   1.033   2.867  11.126  0.0524 -0.1996  0.0111
10454TIP3    H152853   1.128   2.877  11.117 -0.2091  3.1722 -0.5187
10454TIP3    H252854   1.003   2.840  11.040  0.4028  0.7121 -0.4140
10455TIP3   OH252855   1.405   0.119   1.030 -0.4319  0.4948 -0.5474
10455TIP3    H152856   1.385   0.099   1.122 -2.6424 -0.7286 -1.2171
10455TIP3    H252857   1.475   0.184   1.034 -2.1070  2.3200  2.0707
10456TIP3   OH252858   6.834   5.860  12.185  0.0703  0.6932 -0.2381
10456TIP3    H152859   6.762   5.879  12.245 -0.4321  1.3649 -1.0373
10456TIP3    H252860   6.906   5.914  12.217  0.0533  0.4435  0.2302
10457TIP3   OH252861   0.909   4.811   0.991 -0.3766 -0.2526  0.5836
10457TIP3    H152862   0.899   4.870   0.916 -0.7035 -2.3389 -1.1222
10457TIP3    H252863   0.859   4.852   1.061 -2.9286  0.2001 -1.3585
10458TIP3   OH252864   0.135   3.734  11.147  0.4104 -0.5286 -0.0349
10458TIP3    H152865   0.219   3.725  11.102  0.4325  1.7607 -0.5946
10458TIP3    H252866   0.153   3.795  11.219 -1.0025  1.1517 -1.0151
10459TIP3   OH252867   4.156   0.495  12.480 -0.1128  0.2642 -0.5961
10459TIP3    H152868   4.127   0.416  12.526  0.4099  1.3377  1.7536
10459TIP3    H252869   4.128   0.567  12.537  0.3159  1.7299 -2.1577
10460TIP3   OH252870   3.971   2.816   1.774  0.8846  0.1003  0.3378
10460TIP3    H152871   3.962   2.890   1.835 -0.6980  0.8027 -0.6904
10460TIP3    H252872   3.958   2.739   1.829 -0.0644  0.7028  0.9994
10461TIP3   OH252873   2.046   2.904   1.439  0.3085  0.4707  0.0379
10461TIP3    H152874   2.128   2.861   1.465  0.7282  0.2834 -1.5022
10461TIP3    H252875   2.053   2.993   1.474  1.2214  0.4967 -0.1951
10462TIP3   OH252876   2.598   2.788  15.783  0.4093 -0.4794  0.4168
10462TIP3    H152877   2.534   2.742  15.729  0.6523 -0.5085  0.1473
10462TIP3    H252878   2.648   2.718  15.826  1.0776 -0.4903 -0.3457
10463TIP3   OH252879   4.303   1.398  12.769 -0.1930  0.3320 -0.1507
10463TIP3    H152880   4.247   1.464  12.810 -0.0553 -0.3854  1.2301
10463TIP3    H252881   4.264   1.384  12.682 -0.1664  2.2715 -0.5273
10464TIP3   OH252882   2.941   1.011   0.319 -0.1476 -0.4211  0.0874
10464TIP3    H152883   2.931   1.041   0.409 -0.6276  0.1136 -0.1379
10464TIP3    H252884   2.930   0.916   0.324 -1.8236 -0.2306  0.3741
10465TIP3   OH252885   2.289   5.099  13.462  0.0852 -0.1502  0.2067
10465TIP3    H152886   2.275   5.183  13.419 -1.4423 -1.2365 -1.5797
10465TIP3    H252887   2.352   5.118  13.532  2.8709  1.7014 -2.5448
10466TIP3   OH252888   4.750   0.880   0.372 -0.2235  0.6412 -0.0213
10466TIP3    H152889   4.812   0.935   0.324  0.0531 -0.4227 -0.9033
10466TIP3    H252890   4.778   0.791   0.354 -1.3907  0.1744  0.4281
10467TIP3   OH252891   5.026   0.122  14.034  0.2590  0.1688  0.2739
10467TIP3    H152892   5.108   0.081  14.004  0.5753 -0.7444  2.2307
10467TIP3    H252893   4.961   0.051  14.029 -0.4508  0.8831 -1.2446
10468TIP3   OH252894   0.339   1.478  13.528  0.1878  0.0787  0.1866
10468TIP3    H152895   0.273   1.541  13.502  1.2407  2.0178  1.9547
10468TIP3    H252896   0.305   1.438  13.608  1.5160  1.8292  1.6882
10469TIP3   OH252897   4.682   4.344  16.254 -0.5664  0.3823  0.4827
10469TIP3    H152898   4.702   4.322  16.163  0.1458  0.5593  0.5928
10469TIP3    H252899   4.746   4.411  16.277 -1.1450  0.7997  0.9188
10470TIP3   OH252900   1.447   1.551   4.683 -0.4709 -1.0150  0.1002
10470TIP3    H152901   1.507   1.480   4.662 -1.7319 -1.1744 -3.7451
10470TIP3    H252902   1.488   1.629   4.646 -0.0441 -0.0142  2.5094
10471TIP3   OH252903   3.666   3.504  13.572 -0.2116  0.4758  0.0357
10471TIP3    H152904   3.659   3.478  13.664 -0.2257  2.3723  0.6274
10471TIP3    H252905   3.592   3.463  13.529 -1.5172  1.3376  1.3571
10472TIP3   OH252906   5.291   1.334  16.789  0.1746  0.0962  0.1828
10472TIP3    H152907   5.214   1.350  16.734 -1.0842 -0.2223  1.7920
10472TIP3    H252908   5.291   1.240  16.804  0.8952  0.0933  0.2250
10473TIP3   OH252909   1.525   4.785  16.120 -0.1174  0.3828 -0.2188
10473TIP3    H152910   1.572   4.816  16.042 -1.0536 -0.1140 -1.0040
10473TIP3    H252911   1.515   4.691  16.105 -0.7655  0.3716  0.2524
10474TIP3   OH252912   2.922   1.120   0.837 -0.2799 -0.0008  0.0149
10474TIP3    H152913   2.921   1.030   0.868 -0.3668 -1.2111 -3.1317
10474TIP3    H252914   2.846   1.127   0.780  1.3501  1.0960 -2.1638
10475TIP3   OH252915   1.087   6.626   5.170 -0.1137 -0.6237 -0.3549
10475TIP3    H152916   1.082   6.712   5.128  0.4933  0.5420  1.7893
10475TIP3    H252917   1.019   6.628   5.238 -0.2771 -1.9553 -0.4523
10476TIP3   OH252918   2.809   4.196  16.376 -0.3782  0.2504 -0.0640
10476TIP3    H152919   2.730   4.158  16.340  0.4468 -0.6915 -0.9337
10476TIP3    H252920   2.870   4.123  16.385 -0.1973  0.6086  2.3620
10477TIP3   OH252921   0.752   2.684   1.684  0.4400  0.1051 -0.4759
10477TIP3    H152922   0.758   2.636   1.766  0.1342  0.6474 -0.1356
10477TIP3    H252923   0.804   2.632   1.622  0.4751 -0.4275 -0.0040
10478TIP3   OH252924   6.091   0.120  14.506 -0.0599  0.4289 -0.3219
10478TIP3    H152925   6.009   0.074  14.489 -0.2190  0.4663  0.3175
10478TIP3    H252926   6.112   0.099  14.597  2.0158 -1.7123 -1.1953
10479TIP3   OH252927   0.242   5.747  12.144  0.3421 -0.0356 -0.0470
10479TIP3    H152928   0.253   5.653  12.152 -0.7560 -0.2030 -0.3010
10479TIP3    H252929   0.162   5.766  12.193 -0.9297  0.3485 -2.1187
10480TIP3   OH252930   6.155   1.303  17.078  0.0010 -0.4409  0.4064
10480TIP3    H152931   6.062   1.326  17.068 -0.1301 -1.0751  0.1495
10480TIP3    H252932   6.202   1.384  17.056 -0.4362 -0.5853 -1.1988
10481TIP3   OH252933   2.040   0.418  14.357  0.0564 -0.0066 -0.1406
10481TIP3    H152934   2.037   0.344  14.295  0.9225 -0.1039 -0.0786
10481TIP3    H252935   2.036   0.496  14.301 -0.9879 -0.0899 -0.2006
10482TIP3   OH252936   2.534   6.610   1.823  0.4181  0.7517  0.3838
10482TIP3    H152937   2.504   6.677   1.884  1.9694  1.0694  0.8529
10482TIP3    H252938   2.593   6.555   1.876  1.3900  0.7331 -0.6811
10483TIP3   OH252939   1.256   4.911   4.063 -0.6172  0.4210  0.1292
10483TIP3    H152940   1.352   4.910   4.070 -0.4981 -1.0497 -1.0875
10483TIP3    H252941   1.236   4.998   4.030  0.2604  0.8698  0.7277
10484TIP3   OH252942   3.111   1.490   3.624 -0.0910 -0.3427 -0.9222
10484TIP3    H152943   3.073   1.555   3.682 -1.0863  1.3921 -3.3268
10484TIP3    H252944   3.046   1.419   3.621 -0.4626 -0.0200 -0.6127
10485TIP3   OH252945   6.620   6.143  15.389  0.3169 -0.3612 -0.0209
10485TIP3    H152946   6.683   6.214  15.385 -0.3950  0.3311  0.5699
10485TIP3    H252947   6.654   6.076  15.330  2.9102 -1.1052  2.1131
10486TIP3   OH252948   6.094   0.345  17.013  0.1574  0.0337  0.9895
10486TIP3    H152949   6.023   0.407  17.031  0.6891  0.8288  0.4346
10486TIP3    H252950   6.173   0.392  17.039  0.7222  0.2572 -0.9742
10487TIP3   OH252951   4.646   3.820   4.041 -0.2006 -0.1867  0.3770
10487TIP3    H152952   4.577   3.801   3.977 -1.3072 -0.1526  1.5237
10487TIP3    H252953   4.726   3.826   3.988 -1.1298  0.2515 -1.0518
10488TIP3   OH252954   5.594   1.285   4.145 -0.2520 -0.0300  0.2453
10488TIP3    H152955   5.538   1.350   4.188 -1.3775  1.4959 -3.1880
10488TIP3    H252956   5.631   1.332   4.070  2.2135 -2.2778 -0.0814
10489TIP3   OH252957   3.522   2.571   5.859  0.5300  0.0283 -0.6412
10489TIP3    H152958   3.599   2.518   5.838  0.5868  0.3755 -1.3492
10489TIP3    H252959   3.448   2.518   5.830  0.4729 -0.4524  0.3506
10490TIP3   OH252960   5.946   5.444  16.422 -0.5886  0.0096 -0.0255
10490TIP3    H152961   6.005   5.374  16.394 -1.3113 -1.0729  1.0767
10490TIP3    H252962   5.905   5.410  16.502 -1.2073  1.5628  0.3400
10491TIP3   OH252963   5.616   4.569  15.250 -0.1677 -0.9775  0.2652
10491TIP3    H152964   5.554   4.547  15.180  0.3327 -1.5365 -0.0126
10491TIP3    H252965   5.572   4.545  15.331 -0.8829 -0.0252  0.1684
10492TIP3   OH252966   6.586   4.993  13.828  0.1615  0.4903 -0.1233
10492TIP3    H152967   6.640   5.027  13.899 -0.7009  1.9912 -0.1681
10492TIP3    H252968   6.504   5.041  13.834 -1.1599 -1.6473 -0.1530
10493TIP3   OH252969   1.797   1.185  13.591  0.3514 -0.6556 -0.4105
10493TIP3    H152970   1.815   1.105  13.641  0.5602  0.0056  0.6068
10493TIP3    H252971   1.876   1.199  13.539 -0.2784 -1.9359 -1.7846
10494TIP3   OH252972   3.281   5.550   0.512  0.4001  0.3032 -0.0209
10494TIP3    H152973   3.209   5.603   0.477  0.3430 -0.9125 -1.8090
10494TIP3    H252974   3.298   5.590   0.598 -1.3561  1.5895 -0.1877
10495TIP3   OH252975   6.197   5.077   3.195 -0.2943  0.0509 -0.5230
10495TIP3    H152976   6.152   4.998   3.164 -0.8432  0.3518 -0.5042
10495TIP3    H252977   6.215   5.060   3.287 -0.5992  0.0327 -0.4665
10496TIP3   OH252978   2.040   6.127   2.367 -0.3453  0.2534  0.3091
10496TIP3    H152979   2.013   6.175   2.289  1.9675  1.9599  0.4499
10496TIP3    H252980   2.127   6.093   2.346  1.0123  2.0355  2.5395
10497TIP3   OH252981   0.777   1.617  11.776  0.0544  0.4117  0.0473
10497TIP3    H152982   0.726   1.586  11.701  0.4468  1.3358 -0.6155
10497TIP3    H252983   0.745   1.706  11.791 -1.1002 -0.2681  1.9687
10498TIP3   OH252984   6.442   6.459   5.842 -0.2131 -0.5231 -0.4486
10498TIP3    H152985   6.356   6.434   5.807 -1.0441  0.8551  0.5374
10498TIP3    H252986   6.462   6.543   5.801 -0.5306  0.4032  1.1869
10499TIP3   OH252987   4.638   1.095   4.484 -0.4787 -0.1364  0.2679
10499TIP3    H152988   4.672   1.115   4.571  0.6991 -0.4449 -0.0953
10499TIP3    H252989   4.545   1.079   4.497 -0.3060 -0.2288  1.4788
10500TIP3   OH252990   5.066   6.325  13.651  0.3491  0.6086  0.7081
10500TIP3    H152991   5.110   6.392  13.599 -0.6641  2.0379  1.5975
10500TIP3    H252992   5.011   6.277  13.588  1.0379  0.6529  0.0694
10501TIP3   OH252993   1.061   4.793  14.527  0.3389 -0.6955 -0.1482
10501TIP3    H152994   1.110   4.755  14.600 -0.5977 -1.5817  0.0376
10501TIP3    H252995   0.977   4.817  14.565  0.0953 -0.5270 -0.7880
10502TIP3   OH252996   2.128   3.319   2.989 -0.2096 -0.9382 -0.1025
10502TIP3    H152997   2.191   3.345   2.922  0.2579  1.2956  1.1122
10502TIP3    H252998   2.141   3.225   2.999  0.9561 -1.0099 -1.8529
10503TIP3   OH252999   4.645   6.478   0.920 -0.1320  0.0080 -0.4869
10503TIP3    H153000   4.654   6.556   0.974  0.6913 -1.4419  1.6326
10503TIP3    H253001   4.734   6.455   0.895 -0.0912 -1.5385  0.9384
10504TIP3   OH253002   3.109   3.576  11.005  0.3044  0.0702  0.2266
10504TIP3    H153003   3.148   3.519  10.938 -3.5582 -2.0159 -0.5302
10504TIP3    H253004   3.090   3.657  10.958  1.4700  0.2490  0.0149
10505TIP3   OH253005   1.529   5.499   5.149  0.3533 -0.0483  0.0388
10505TIP3    H153006   1.440   5.535   5.153  0.1175 -0.7147  1.6318
10505TIP3    H253007   1.526   5.422   5.206  1.7357 -0.5835 -0.5746
10506TIP3   OH253008   6.213   0.328   6.296 -0.7063 -0.3106 -0.4370
10506TIP3    H153009   6.231   0.235   6.304 -0.8371 -0.5088 -2.0594
10506TIP3    H253010   6.288   0.371   6.337 -0.2069 -1.1301 -0.4718
10507TIP3   OH253011   0.452   3.894  13.271  0.9361  0.6563  0.0122
10507TIP3    H153012   0.457   3.983  13.306  1.1618  1.5315 -2.0644
10507TIP3    H253013   0.406   3.904  13.187 -0.8296 -1.5168  0.6416
10508TIP3   OH253014   1.530   5.368  17.002  0.0238  0.0036  0.9901
10508TIP3    H153015   1.586   5.340  17.075  0.8874  0.3592  0.4821
10508TIP3    H253016   1.546   5.462  16.995  0.1103 -0.0616  0.2130
10509TIP3   OH253017   1.862   5.529  14.388  0.2836  0.7524 -0.1179
10509TIP3    H153018   1.772   5.501  14.406  0.6240 -0.7789 -0.6398
10509TIP3    H253019   1.861   5.555  14.296  0.7291 -0.9898 -0.6594
10510TIP3   OH253020   2.546   1.461   4.853  0.4227 -0.3727  0.1348
10510TIP3    H153021   2.491   1.434   4.927  0.1309 -2.1815 -0.6850
10510TIP3    H253022   2.627   1.411   4.865  0.1196 -1.2125 -1.0808
10511TIP3   OH253023   6.331   3.121  12.906  0.2180 -0.7288  0.6939
10511TIP3    H153024   6.410   3.067  12.901  0.3380 -0.5369  0.4435
10511TIP3    H253025   6.271   3.082  12.842  0.4235 -0.3812  0.2821
10512TIP3   OH253026   3.041   5.462  11.735 -0.4804 -0.2013  0.3508
10512TIP3    H153027   3.044   5.377  11.780  0.0321  0.2968  1.2916
10512TIP3    H253028   3.098   5.451  11.659 -1.8993 -1.2747 -0.6069
10513TIP3   OH253029   1.547   4.970   0.602 -0.5647  0.0143  0.1251
10513TIP3    H153030   1.519   4.939   0.516 -0.3794 -0.7702  0.3392
10513TIP3    H253031   1.590   4.895   0.642  0.9126  0.8687  0.2184
10514TIP3   OH253032   0.376   1.917   5.796 -0.7686  0.0700  0.1183
10514TIP3    H153033   0.346   1.860   5.868 -0.0571  0.3941  0.6841
10514TIP3    H253034   0.327   1.887   5.720 -1.4756 -0.3477  0.7166
10515TIP3   OH253035   3.716   5.176   4.653 -0.3070  0.0466 -0.8451
10515TIP3    H153036   3.652   5.113   4.621  0.3391 -1.3911  0.5683
10515TIP3    H253037   3.702   5.179   4.748  0.3630  1.2654 -0.7680
10516TIP3   OH253038   0.665   6.634  15.603  0.2381 -0.0343 -0.2196
10516TIP3    H153039   0.666   6.726  15.630 -1.3954  0.2327 -0.9608
10516TIP3    H253040   0.630   6.636  15.514 -0.5263 -1.4472  0.0296
10517TIP3   OH253041   5.666   5.110  16.541 -0.3450  0.3519  0.7133
10517TIP3    H153042   5.700   5.199  16.534  0.8460 -0.0876  0.6010
10517TIP3    H253043   5.673   5.089  16.634  0.9223 -0.1764  0.5245
10518TIP3   OH253044   5.083   6.354  11.765 -0.1661 -0.2046  0.2558
10518TIP3    H153045   5.038   6.388  11.842 -0.1171 -0.9931  0.6422
10518TIP3    H253046   5.125   6.431  11.725  1.2773 -0.0330  1.9817
10519TIP3   OH253047   5.012   5.064  14.354  0.1990  0.3941  0.4728
10519TIP3    H153048   5.077   5.051  14.423  0.7986  0.1321 -0.1359
10519TIP3    H253049   4.987   5.156  14.362  0.6412  0.4945  0.7122
10520TIP3   OH253050   2.095   4.654   0.360 -0.1935  0.5389 -0.1181
10520TIP3    H153051   2.172   4.629   0.412  0.9228  1.8623 -1.0662
10520TIP3    H253052   2.102   4.601   0.280  0.0357  1.0186 -0.4245
10521TIP3   OH253053   3.941   6.675   2.660  0.1500 -0.2192 -0.1392
10521TIP3    H153054   4.002   6.609   2.626 -1.0378  0.2340 -3.4219
10521TIP3    H253055   3.994   6.755   2.664  1.7982 -1.2099  4.5035
10522TIP3   OH253056   6.311   3.226   1.231  0.1318 -0.4496  0.1990
10522TIP3    H153057   6.281   3.252   1.144 -1.8878  1.6725  1.4307
10522TIP3    H253058   6.233   3.190   1.273  0.6409  0.0999  1.6736
10523TIP3   OH253059   3.695   4.516  14.882  0.1980  0.1936 -0.1988
10523TIP3    H153060   3.698   4.569  14.803 -0.5013  1.6025  0.6792
10523TIP3    H253061   3.670   4.577  14.951  1.4602 -0.8407  1.2490
10524TIP3   OH253062   0.922   0.032   3.440 -0.2161 -0.0231 -0.5927
10524TIP3    H153063   1.008   0.036   3.482 -0.3061 -0.0746 -0.4000
10524TIP3    H253064   0.935   0.073   3.355 -0.1518  0.5637 -0.3068
10525TIP3   OH253065   0.520   3.427  13.404 -0.3061 -0.2642 -0.1583
10525TIP3    H153066   0.475   3.512  13.404 -0.0877 -0.1471  0.1513
10525TIP3    H253067   0.506   3.393  13.315 -3.6676 -1.6654  0.7562
10526TIP3   OH253068   3.792   1.733  11.862  0.2944 -0.5795  0.1979
10526TIP3    H153069   3.812   1.692  11.946  0.4025 -1.6619 -0.3376
10526TIP3    H253070   3.697   1.746  11.864 -0.0759 -2.6984 -0.3688
10527TIP3   OH253071   5.341   0.696  14.708  0.4850  0.1223  0.4199
10527TIP3    H153072   5.430   0.679  14.741 -0.3631 -0.5522  2.5019
10527TIP3    H253073   5.304   0.759  14.771 -1.4574 -1.7850  1.3072
10528TIP3   OH253074   1.749   6.738  12.238 -0.5496 -0.0046  0.6608
10528TIP3    H153075   1.816   6.689  12.286  0.4021  2.0828  1.5692
10528TIP3    H253076   1.704   6.789  12.306  1.0600  3.2998 -0.5588
10529TIP3   OH253077   4.557   4.718  13.128  0.0656 -0.6400 -0.3277
10529TIP3    H153078   4.528   4.717  13.036  0.0487  0.1049 -0.3413
10529TIP3    H253079   4.498   4.658  13.173 -1.0817  0.3344 -0.4847
10530TIP3   OH253080   4.232   4.673  16.714  0.2141 -0.0990 -0.1321
10530TIP3    H153081   4.192   4.672  16.801  0.5367  0.2152  0.0170
10530TIP3    H253082   4.252   4.581  16.696  0.4509 -0.1263  0.2666
10531TIP3   OH253083   5.759   3.042  17.059 -0.2919 -0.1873  0.1609
10531TIP3    H153084   5.773   3.103  16.987  0.1392 -2.3880 -1.7398
10531TIP3    H253085   5.668   3.014  17.051 -0.3117 -0.2680  0.6165
10532TIP3   OH253086   0.442   6.178  15.115 -0.0181  0.0725  0.0426
10532TIP3    H153087   0.450   6.165  15.021  0.2111  0.7707 -0.0440
10532TIP3    H253088   0.490   6.259  15.132  0.9477 -0.6702  0.9475
10533TIP3   OH253089   4.929   3.990  16.079 -0.1884 -0.9499 -0.5581
10533TIP3    H153090   4.909   3.954  16.165  0.2500 -0.3095 -0.1747
10533TIP3    H253091   5.016   3.956  16.059  0.0137 -0.5210 -0.4191
10534TIP3   OH253092   2.173   4.674  12.681  0.1514  0.0276 -0.3188
10534TIP3    H153093   2.169   4.670  12.776 -0.0478 -0.9993 -0.3601
10534TIP3    H253094   2.099   4.621  12.651 -1.1558  2.1369 -1.0570
10535TIP3   OH253095   1.311   0.271  13.792 -0.2422 -0.0107  0.5985
10535TIP3    H153096   1.306   0.224  13.875  0.4862  0.7492  1.0848
10535TIP3    H253097   1.296   0.203  13.726 -2.0544 -0.4175  1.3621
10536TIP3   OH253098   1.920   5.065   3.381  0.0871 -0.1494  0.3402
10536TIP3    H153099   2.009   5.048   3.350  1.1126  1.4288  2.2342
10536TIP3    H253100   1.880   4.978   3.384  2.0627 -1.1116  0.8727
10537TIP3   OH253101   4.843   0.148   4.218  0.2248 -0.4622  0.6099
10537TIP3    H153102   4.778   0.078   4.220 -0.6720  0.3577  1.1277
10537TIP3    H253103   4.804   0.217   4.165  0.9561 -0.2145  0.3755
10538TIP3   OH253104   3.722   5.205   1.394 -0.0296  0.0902  0.2088
10538TIP3    H153105   3.643   5.230   1.346 -0.7301  0.9156  1.7149
10538TIP3    H253106   3.784   5.275   1.376 -0.2197  0.2927  0.3355
10539TIP3   OH253107   4.097   2.766  12.425 -0.0862  0.1023 -0.0844
10539TIP3    H153108   4.152   2.769  12.346 -0.7960 -1.0242 -0.6382
10539TIP3    H253109   4.029   2.831  12.408 -0.4621 -0.4148 -0.5756
10540TIP3   OH253110   4.435   2.778  16.799  0.0613  0.1166  0.4000
10540TIP3    H153111   4.510   2.831  16.827  0.6378 -0.1397 -0.6106
10540TIP3    H253112   4.463   2.740  16.716 -0.2465 -1.9654  1.1985
10541TIP3   OH253113   4.128   0.462  10.746 -0.2315 -0.1147 -0.6145
10541TIP3    H153114   4.035   0.481  10.754 -0.7183 -1.5818 -2.1896
10541TIP3    H253115   4.147   0.401  10.817 -0.3291  0.5656  0.0102
10542TIP3   OH253116   2.476   4.908   4.559  0.3888  0.4011 -0.0488
10542TIP3    H153117   2.550   4.848   4.553  0.5426  0.7006 -1.5718
10542TIP3    H253118   2.515   4.995   4.554  0.0532  0.6131  0.8087
10543TIP3   OH253119   2.527   2.374   2.284 -0.3780  0.4757 -0.4501
10543TIP3    H153120   2.451   2.331   2.324 -0.7368  0.6584 -0.9259
10543TIP3    H253121   2.585   2.394   2.358 -1.3026  1.3542  0.0710
10544TIP3   OH253122   4.904   3.392   0.144 -0.1203  0.0890 -0.0381
10544TIP3    H153123   4.979   3.435   0.186 -0.6430 -0.5432  1.5871
10544TIP3    H253124   4.924   3.299   0.149 -0.7741 -0.0549 -0.0956
10545TIP3   OH253125   0.506   2.942  12.668  0.4656  0.0729  0.3937
10545TIP3    H153126   0.451   2.882  12.616 -1.6413  2.1605  0.0711
10545TIP3    H253127   0.506   2.903  12.756  0.2347 -1.0787 -0.0913
10546TIP3   OH253128   5.737   4.747   0.683 -0.1572 -0.2644  0.1223
10546TIP3    H153129   5.808   4.695   0.721 -0.3436 -3.2280 -3.1490
10546TIP3    H253130   5.781   4.805   0.620 -0.2839  1.3312  1.4381
10547TIP3   OH253131   6.070   4.447   3.025  0.2524 -0.1801  0.2699
10547TIP3    H153132   6.148   4.404   3.059 -0.9563 -3.4808 -0.6776
10547TIP3    H253133   6.065   4.419   2.933 -1.4655  0.7823  0.0169
10548TIP3   OH253134   5.978   3.341  13.010  0.1804 -0.7547  0.0871
10548TIP3    H153135   5.915   3.398  12.966  0.5349 -0.6397 -0.2807
10548TIP3    H253136   6.058   3.349  12.958  0.3949 -1.1691  0.3461
10549TIP3   OH253137   3.016   5.596   6.053  0.1104 -0.2977 -0.2330
10549TIP3    H153138   2.967   5.659   6.001  0.3257  1.0600  1.1521
10549TIP3    H253139   3.012   5.630   6.142  2.6847 -0.7058  0.1002
10550TIP3   OH253140   0.471   3.204  15.824  0.0191  0.1771  0.1430
10550TIP3    H153141   0.557   3.231  15.855  0.9447  1.6597 -3.2993
10550TIP3    H253142   0.478   3.203  15.728 -3.6454 -0.1768 -0.2891
10551TIP3   OH253143   1.225   4.720   1.819  0.3407 -0.7454 -0.0360
10551TIP3    H153144   1.142   4.691   1.781 -2.1707  1.3581  3.2497
10551TIP3    H253145   1.261   4.780   1.753 -2.8693  1.3812 -0.1273
10552TIP3   OH253146   3.027   0.945  14.496 -0.1035 -0.2162  0.2805
10552TIP3    H153147   3.110   0.918  14.534 -1.2270 -2.6957  1.1616
10552TIP3    H253148   2.995   1.013  14.555  0.5863 -0.3455  0.8216
10553TIP3   OH253149   4.005   0.161  13.701  0.0574 -0.1971  0.1381
10553TIP3    H153150   4.067   0.106  13.749  0.3517 -0.8137 -0.9355
10553TIP3    H253151   3.919   0.133  13.733  0.2724 -0.1823  0.7426
10554TIP3   OH253152   6.388   2.574   2.812 -0.0714 -0.2335 -0.0381
10554TIP3    H153153   6.481   2.572   2.835  0.4220 -0.1140 -1.9249
10554TIP3    H253154   6.349   2.508   2.869  0.5329  1.9344  3.1946
10555TIP3   OH253155   0.053   3.636  16.762  0.3598 -0.2488  0.2477
10555TIP3    H153156   0.028   3.573  16.829  0.5635 -0.8074 -0.1920
10555TIP3    H253157   0.062   3.719  16.809 -1.1089 -0.2672  0.6352
10556TIP3   OH253158   6.594   0.068   2.518  0.0000  0.4421 -0.2927
10556TIP3    H153159   6.616  -0.021   2.547 -1.8089  0.4184  1.2302
10556TIP3    H253160   6.610   0.122   2.595  0.7069  1.3905 -1.0942
10557TIP3   OH253161   4.614   2.995  14.472  0.2883 -0.4644  0.1982
10557TIP3    H153162   4.542   2.935  14.454 -0.3443  0.6445 -1.1151
10557TIP3    H253163   4.574   3.068  14.520  0.6186 -0.0588 -0.1345
10558TIP3   OH253164   6.839   5.820   4.789  0.7313 -0.2169 -0.4945
10558TIP3    H153165   6.842   5.743   4.846  0.0201 -1.2764 -1.8399
10558TIP3    H253166   6.793   5.791   4.710 -1.7146  2.2285 -0.1169
10559TIP3   OH253167   0.781   4.460  15.977 -0.0607 -0.7858  0.4282
10559TIP3    H153168   0.712   4.423  15.922 -0.8273  1.2296 -0.0566
10559TIP3    H253169   0.736   4.487  16.057 -0.0390  1.1610 -0.1584
10560TIP3   OH253170   1.462   0.987   0.089 -0.1806  0.3216  0.1259
10560TIP3    H153171   1.506   1.009   0.007  0.6899  1.7461  0.9309
10560TIP3    H253172   1.528   0.939   0.140  0.0167  1.3045  0.8166
10561TIP3   OH253173   4.746   3.361  14.060 -0.2390  0.5974 -0.5301
10561TIP3    H153174   4.796   3.440  14.082  1.1541  0.0489 -1.5781
10561TIP3    H253175   4.708   3.332  14.143  0.5520  1.4768  0.1561
10562TIP3   OH253176   5.260   4.526  11.047  0.0655  0.7955 -0.1394
10562TIP3    H153177   5.293   4.465  10.981 -0.1366  1.4857 -0.8822
10562TIP3    H253178   5.294   4.611  11.021  1.3575  0.8605  1.5610
10563TIP3   OH253179   4.793   1.179   0.756  0.1918  0.7905 -0.0329
10563TIP3    H153180   4.726   1.243   0.781  0.3965  1.4109 -0.9805
10563TIP3    H253181   4.753   1.130   0.684  0.3786  0.4777  0.0768
10564TIP3   OH253182   6.748   2.039   3.842  0.1334  0.2842  0.1902
10564TIP3    H153183   6.715   2.052   3.753  1.6283  2.9156 -0.0919
10564TIP3    H253184   6.755   2.127   3.878  4.1784 -0.2203  1.1154
10565TIP3   OH253185   5.731   0.781  13.390  0.1517  0.0136 -0.1107
10565TIP3    H153186   5.700   0.757  13.303  1.0527  0.1181 -0.4724
10565TIP3    H253187   5.826   0.789  13.380  0.2615  0.0452  0.8782
10566TIP3   OH253188   0.791   4.825   3.765 -0.1857  0.3144 -0.1168
10566TIP3    H153189   0.860   4.859   3.823  0.0183  0.2615 -0.3280
10566TIP3    H253190   0.836   4.759   3.712  0.2370  2.1167 -2.1163
10567TIP3   OH253191   4.423   6.242  16.931 -0.2201  0.1159  0.0409
10567TIP3    H153192   4.501   6.228  16.877 -0.5601  0.4791 -0.5579
10567TIP3    H253193   4.441   6.194  17.012  0.5906  0.1353 -0.1186
10568TIP3   OH253194   5.821   2.638   1.156 -0.4404 -0.5265  0.1500
10568TIP3    H153195   5.810   2.543   1.148  0.0224 -0.4759 -1.2576
10568TIP3    H253196   5.747   2.675   1.109 -0.0415 -0.2037 -0.2385
10569TIP3   OH253197   1.352   5.717   4.819  0.4350  0.0486  0.4176
10569TIP3    H153198   1.274   5.769   4.802  1.3218  0.8437 -1.5441
10569TIP3    H253199   1.333   5.632   4.780  0.6780  0.3772 -0.4456
10570TIP3   OH253200   0.216   4.886   0.571 -0.3510 -0.3007 -0.3645
10570TIP3    H153201   0.228   4.819   0.639 -2.7484 -1.2650 -0.8085
10570TIP3    H253202   0.294   4.877   0.516  0.7138 -0.7964  1.1502
10571TIP3   OH253203   5.643   1.593  13.735 -0.4725 -0.2718  0.3162
10571TIP3    H153204   5.622   1.687  13.736 -0.9716 -0.3796  0.4120
10571TIP3    H253205   5.654   1.572  13.642 -0.8700 -0.2219  0.2535
10572TIP3   OH253206   6.001   0.905  11.705 -0.1756  0.3218 -0.3068
10572TIP3    H153207   6.057   0.831  11.729 -1.3177 -0.1542  0.9696
10572TIP3    H253208   5.935   0.867  11.648 -0.2935  0.5219 -0.3033
10573TIP3   OH253209   0.443   4.394  14.430  0.1295 -0.2454  0.3011
10573TIP3    H153210   0.454   4.323  14.366 -1.1734 -0.1585 -0.0362
10573TIP3    H253211   0.364   4.371  14.478  0.4838  0.2635  1.1468
10574TIP3   OH253212   5.249   1.661  14.673  0.2521 -0.4562 -0.0949
10574TIP3    H153213   5.250   1.742  14.623 -0.9528 -1.5420 -2.0491
10574TIP3    H253214   5.160   1.655  14.709  0.5757 -0.5344  0.7163
10575TIP3   OH253215   5.654   1.136   1.813 -0.3072 -0.3067 -0.4504
10575TIP3    H153216   5.590   1.160   1.746 -1.0827  0.0947  0.3994
10575TIP3    H253217   5.604   1.084   1.875 -0.1976  1.2097  0.9825
10576TIP3   OH253218   3.996   5.088   0.292  0.3380 -0.5122 -0.5218
10576TIP3    H153219   3.947   5.091   0.374 -1.8290 -0.7207 -1.7322
10576TIP3    H253220   4.087   5.099   0.318 -0.1000 -2.0751  2.0580
10577TIP3   OH253221   6.033   6.097  14.421 -0.4520 -0.1186 -0.3233
10577TIP3    H153222   6.058   6.019  14.472  0.7617  1.8105  2.2447
10577TIP3    H253223   6.056   6.075  14.331 -1.2379 -3.1319  0.0746
10578TIP3   OH253224   1.216   1.921  11.838 -0.0281  0.2350 -0.1627
10578TIP3    H153225   1.264   1.905  11.920 -0.4951 -0.3493  0.0040
10578TIP3    H253226   1.227   1.839  11.788 -1.7638 -0.3544  0.3431
10579TIP3   OH253227   6.296   1.928   2.494 -0.0953 -0.5263 -0.1064
10579TIP3    H153228   6.340   2.012   2.499  1.0273 -1.1071  0.0631
10579TIP3    H253229   6.299   1.904   2.401  0.9794 -1.0805  0.0539
10580TIP3   OH253230   4.654   5.119  15.909 -0.0311 -0.0249  0.2807
10580TIP3    H153231   4.727   5.113  15.970 -0.6727  1.6677  1.2798
10580TIP3    H253232   4.692   5.155  15.829  0.0979  1.9160  1.1536
10581TIP3   OH253233   3.992   2.075  13.133 -0.2641  0.1760 -0.2909
10581TIP3    H153234   3.990   2.104  13.041 -2.2654 -0.8941 -0.6408
10581TIP3    H253235   4.008   2.155  13.183 -0.0002  0.9279 -1.5337
10582TIP3   OH253236   0.206   3.439  13.525  0.1116  0.0211  0.6612
10582TIP3    H153237   0.175   3.368  13.582 -2.5434  1.0934  0.7075
10582TIP3    H253238   0.249   3.500  13.585 -0.9851  0.2359  1.2601
10583TIP3   OH253239   6.383   2.934  14.395 -0.8408 -0.0714 -0.3081
10583TIP3    H153240   6.334   2.970  14.469 -0.2328  0.9621 -0.3876
10583TIP3    H253241   6.327   2.949  14.319 -0.5053  0.9265 -0.3697
10584TIP3   OH253242   4.819   2.782   4.556  0.5308  0.2047 -0.3467
10584TIP3    H153243   4.786   2.825   4.477  1.5641 -1.9449 -2.0486
10584TIP3    H253244   4.913   2.798   4.553  0.7222 -0.8505 -0.2000
10585TIP3   OH253245   3.453   1.482  16.308  0.5409 -0.2199 -0.0716
10585TIP3    H153246   3.436   1.448  16.221 -0.8237  0.6869 -0.1998
10585TIP3    H253247   3.475   1.574  16.294 -1.7505  0.5166  0.6148
10586TIP3   OH253248   4.643   4.296  16.576  0.0987 -0.2660  0.4252
10586TIP3    H153249   4.700   4.235  16.529 -0.5521 -0.2756 -0.3758
10586TIP3    H253250   4.604   4.350  16.507  1.8672  2.1777  1.1742
10587TIP3   OH253251   5.358   0.873   1.312 -0.1884 -0.0160  0.6757
10587TIP3    H153252   5.395   0.786   1.294  1.6552  0.9703 -0.6459
10587TIP3    H253253   5.423   0.915   1.369 -1.9476 -0.0894  2.8688
10588TIP3   OH253254   5.450   0.652  11.449  0.2245 -0.6100  0.1164
10588TIP3    H153255   5.426   0.673  11.359 -2.6572  1.0774  1.1306
10588TIP3    H253256   5.411   0.722  11.501 -1.2907 -3.2884  2.9558
10589TIP3   OH253257   6.231   0.297   4.413 -0.6001 -0.5713 -0.0848
10589TIP3    H153258   6.150   0.246   4.408 -0.6958 -0.4072 -0.2387
10589TIP3    H253259   6.293   0.250   4.358 -0.0398 -1.6847  1.4225
10590TIP3   OH253260   5.969   3.544   5.408  0.1404 -0.2510  0.3032
10590TIP3    H153261   5.885   3.505   5.435 -0.1887 -0.4968 -1.0284
10590TIP3    H253262   6.028   3.470   5.400  0.1715 -0.2058  0.1164
10591TIP3   OH253263   2.306   2.405   3.372 -0.2351  0.6860  0.2692
10591TIP3    H153264   2.335   2.482   3.422  1.6468  0.4825 -0.3992
10591TIP3    H253265   2.295   2.438   3.283  1.4601  0.0802 -0.2215
10592TIP3   OH253266   5.628   2.684  14.409  0.3599 -0.1131  0.2374
10592TIP3    H153267   5.554   2.638  14.450  0.1866 -0.0220  0.0299
10592TIP3    H253268   5.696   2.617  14.399 -0.6139 -0.8805 -1.9866
10593TIP3   OH253269   3.930   3.478   3.419  0.1280 -0.4371  0.2659
10593TIP3    H153270   3.897   3.524   3.496 -2.2602  0.8154 -1.4047
10593TIP3    H253271   3.885   3.518   3.345  4.6054  0.6290 -2.2576
10594TIP3   OH253272   4.272   5.275   5.320 -0.4113 -0.3624  0.4880
10594TIP3    H153273   4.264   5.327   5.401  1.5976  1.8027 -0.5834
10594TIP3    H253274   4.354   5.226   5.331  0.7823  1.2183 -0.7955
10595TIP3   OH253275   5.285   3.012   0.890  0.0063 -0.1759  0.2847
10595TIP3    H153276   5.281   2.917   0.898  2.0379 -0.1822  2.6568
10595TIP3    H253277   5.362   3.029   0.836  0.3793  0.0888  0.8826
10596TIP3   OH253278   0.351   5.490  15.726 -0.2085  0.0437 -0.3823
10596TIP3    H153279   0.318   5.482  15.816 -0.8213 -0.6527 -0.6547
10596TIP3    H253280   0.334   5.404  15.687  1.8767 -0.3218 -0.5846
10597TIP3   OH253281   2.563   6.558   3.415 -0.3365 -0.2796 -0.9343
10597TIP3    H153282   2.537   6.628   3.474  0.5928 -0.3552 -0.4196
10597TIP3    H253283   2.483   6.508   3.401 -0.3589 -0.9266  1.1551
10598TIP3   OH253284   5.779   1.513   4.029  0.0093  0.1914  0.4595
10598TIP3    H153285   5.873   1.519   4.012 -0.3368  1.2303 -1.2528
10598TIP3    H253286   5.772   1.512   4.125  1.7550  0.0083  0.6145
10599TIP3   OH253287   4.378   0.674  12.302 -0.1346 -0.4776 -0.2320
10599TIP3    H153288   4.341   0.587  12.310 -0.2702 -0.4945 -0.9675
10599TIP3    H253289   4.428   0.687  12.383 -2.9358  0.1579  1.5270
10600TIP3   OH253290   2.561   2.957  14.134  0.4789  0.0071 -0.0690
10600TIP3    H153291   2.523   2.990  14.215 -1.0306 -0.2426 -0.6364
10600TIP3    H253292   2.486   2.941  14.077  1.4653 -0.3298 -1.3334
10601TIP3   OH253293   1.367   3.336   0.023 -0.0527  0.3138  0.1672
10601TIP3    H153294   1.345   3.394  -0.049 -0.0589  0.6922  0.4694
10601TIP3    H253295   1.284   3.295   0.048 -0.5819  2.1610  1.6779
10602TIP3   OH253296   2.295   6.305   2.180 -0.7316  0.2963  0.2339
10602TIP3    H153297   2.352   6.268   2.248 -1.0321 -0.7352 -0.0584
10602TIP3    H253298   2.261   6.229   2.133 -2.0208  0.9063  0.1311
10603TIP3   OH253299   5.933   6.211   2.161 -0.5099  0.3114 -0.1192
10603TIP3    H153300   5.941   6.243   2.072 -1.2085 -1.8030 -1.0174
10603TIP3    H253301   6.005   6.148   2.170 -0.7948  0.0727  0.6014
10604TIP3   OH253302   3.496   1.508  12.054  0.4277  0.5148  0.1666
10604TIP3    H153303   3.522   1.451  12.126  0.9320 -1.2592 -1.3467
10604TIP3    H253304   3.473   1.448  11.982  2.4584  2.1645 -2.0351
10605TIP3   OH253305   0.888   5.152  13.447  0.1296  0.6823 -0.0738
10605TIP3    H153306   0.879   5.077  13.388  1.2474 -0.0760  0.6836
10605TIP3    H253307   0.967   5.196  13.418 -0.6774  1.7644 -0.6936
10606TIP3   OH253308   6.346   4.044   2.045  0.3398 -0.0417  0.2215
10606TIP3    H153309   6.333   4.136   2.070  0.2470  0.4481 -1.4926
10606TIP3    H253310   6.258   4.011   2.027  0.3283 -0.6228  1.2709
10607TIP3   OH253311   4.259   5.415   0.184 -0.1112 -0.0595 -0.2151
10607TIP3    H153312   4.184   5.355   0.181 -0.7823  0.7373  0.3004
10607TIP3    H253313   4.251   5.467   0.103 -0.5046  0.4772  0.1639
10608TIP3   OH253314   5.255   1.882   2.364  0.4140 -0.5065  0.1388
10608TIP3    H153315   5.326   1.821   2.385  0.8873  0.3540  1.1128
10608TIP3    H253316   5.175   1.830   2.374  0.7943 -0.9223  1.1623
10609TIP3   OH253317   6.064   4.405  12.041 -0.3406  0.1767 -0.0550
10609TIP3    H153318   6.138   4.462  12.061  0.4595 -0.5718 -0.7438
10609TIP3    H253319   5.998   4.426  12.107  0.5219  0.8016  0.6328
10610TIP3   OH253320   0.131   3.544  11.388  0.6999 -0.1070  0.1540
10610TIP3    H153321   0.122   3.599  11.466 -0.7844 -0.7681  0.4773
10610TIP3    H253322   0.136   3.606  11.316  1.3147  0.4946  0.7009
10611TIP3   OH253323   2.558   3.343  11.041 -0.3234 -0.2562  0.5375
10611TIP3    H153324   2.639   3.374  11.001  0.6420 -2.1119  0.9678
10611TIP3    H253325   2.574   3.351  11.135 -0.9598  0.1069  0.6203
10612TIP3   OH253326   2.520   0.077  11.715  0.1669  0.7484  0.4228
10612TIP3    H153327   2.429   0.048  11.720 -0.1669  1.6049 -0.2870
10612TIP3    H253328   2.514   0.172  11.699  1.1638  0.6154 -0.9137
10613TIP3   OH253329   5.359   3.077   5.048  0.1690  0.5335  0.1926
10613TIP3    H153330   5.304   3.006   5.080  0.2490  0.0379 -0.7408
10613TIP3    H253331   5.429   3.084   5.113  0.6281 -0.8220 -0.1240
10614TIP3   OH253332   3.145   5.300  12.122 -0.0452 -0.7150 -0.0506
10614TIP3    H153333   3.147   5.230  12.186  0.6854 -1.0985 -0.4838
10614TIP3    H253334   3.087   5.269  12.053  0.1055 -0.8033 -0.1379
10615TIP3   OH253335   4.792   2.715   0.267  0.2242 -0.3258  0.1887
10615TIP3    H153336   4.712   2.732   0.317  0.8990  2.5671  0.4928
10615TIP3    H253337   4.861   2.757   0.319  1.1251  1.8067 -2.4765
10616TIP3   OH253338   0.473   1.938  15.152  0.1706 -0.4768 -0.1483
10616TIP3    H153339   0.400   1.896  15.197 -1.5774  0.9429 -1.5165
10616TIP3    H253340   0.466   1.910  15.061  2.5606 -1.8430 -0.0181
10617TIP3   OH253341   4.748   2.509   2.785 -0.2580  0.3360  1.0366
10617TIP3    H153342   4.828   2.561   2.775 -0.1556  0.2487  1.3936
10617TIP3    H253343   4.694   2.533   2.710  0.4583 -0.2182  0.3118
10618TIP3   OH253344   3.770   1.069  13.271 -0.5602 -0.0014  0.3790
10618TIP3    H153345   3.783   1.164  13.276  0.8673 -0.1198 -0.7921
10618TIP3    H253346   3.858   1.032  13.271 -1.0779 -1.2840 -0.1299
10619TIP3   OH253347   1.949   2.407   3.968  0.0666  0.9620 -0.2692
10619TIP3    H153348   1.971   2.391   4.060 -2.4750 -1.0233  0.1233
10619TIP3    H253349   2.013   2.357   3.918 -0.0720 -0.0651  0.5481
10620TIP3   OH253350   6.239   5.239   0.423 -0.3856 -0.2774 -0.0178
10620TIP3    H153351   6.175   5.172   0.401 -0.6601 -0.2610  0.7079
10620TIP3    H253352   6.190   5.303   0.474 -0.3114  0.8931 -1.3649
10621TIP3   OH253353   3.233   4.535  14.473 -0.7920 -0.4677 -0.4061
10621TIP3    H153354   3.149   4.518  14.515 -0.5694 -1.4266 -0.3433
10621TIP3    H253355   3.277   4.596  14.531 -0.3639 -1.9972  0.9365
10622TIP3   OH253356   4.320   4.633   3.067 -0.5324 -0.1363  0.1752
10622TIP3    H153357   4.312   4.705   3.130 -1.9580  0.3190 -0.4915
10622TIP3    H253358   4.358   4.561   3.118 -0.0373  0.7551  1.1056
10623TIP3   OH253359   3.140   1.113  13.352 -0.5218  0.4244 -0.2581
10623TIP3    H153360   3.203   1.126  13.281 -1.0331  1.1919 -0.5908
10623TIP3    H253361   3.059   1.152  13.318 -1.2712 -0.8553  0.0129
10624TIP3   OH253362   1.036   3.919  14.055  0.1921  0.0494  0.2120
10624TIP3    H153363   0.947   3.955  14.053  0.6979  1.3264 -0.2167
10624TIP3    H253364   1.030   3.844  14.113 -0.7099  1.4624  2.0659
10625TIP3   OH253365   2.797   6.778  16.325 -0.6453  1.0379  0.2453
10625TIP3    H153366   2.781   6.865  16.289 -0.5871  1.0399  0.2236
10625TIP3    H253367   2.747   6.775  16.406 -1.7778  0.6003 -0.4404
10626TIP3   OH253368   1.034   5.790  16.201 -0.4809 -0.2380  0.1842
10626TIP3    H153369   1.098   5.752  16.141 -1.6610 -2.3229  0.1313
10626TIP3    H253370   1.048   5.743  16.283  0.3925  1.8142  1.2809
10627TIP3   OH253371   4.353   1.808  16.675 -0.0091  0.2768  0.0969
10627TIP3    H153372   4.413   1.863  16.726 -0.6380  0.2515  0.9024
10627TIP3    H253373   4.266   1.828  16.712 -0.2337 -1.3899  0.5267
10628TIP3   OH253374   6.540   6.228   3.310 -0.6360  0.2009  0.8479
10628TIP3    H153375   6.590   6.190   3.238 -0.1109  1.8681  0.2899
10628TIP3    H253376   6.449   6.203   3.292 -0.4551  0.2522 -0.1632
10629TIP3   OH253377   6.304   4.598   1.461 -0.2803 -0.5112 -0.6678
10629TIP3    H153378   6.282   4.688   1.437 -0.2033 -0.4716 -0.5914
10629TIP3    H253379   6.304   4.599   1.557  0.6184 -0.3745 -0.6686
10630TIP3   OH253380   5.766   2.511  12.189 -0.5180  0.2839  0.8801
10630TIP3    H153381   5.762   2.533  12.096 -0.7303 -0.9717  0.5729
10630TIP3    H253382   5.757   2.416  12.192  0.6729  0.1747  2.1144
10631TIP3   OH253383   4.917   3.991  14.995  0.2931 -0.1191  0.7318
10631TIP3    H153384   5.002   3.948  14.990  0.0231 -0.7774  1.6629
10631TIP3    H253385   4.901   4.003  15.088 -1.2878 -1.3514  0.6532
10632TIP3   OH253386   1.526   2.321   1.661 -0.0764 -0.1004  0.0524
10632TIP3    H153387   1.438   2.286   1.672 -1.0342  2.5515  1.9066
10632TIP3    H253388   1.559   2.331   1.751  2.4506 -1.6412 -0.5916
10633TIP3   OH253389   0.514   4.739   1.050  0.2260 -0.1575  0.1237
10633TIP3    H153390   0.422   4.720   1.065  0.3457 -1.4231 -0.5556
10633TIP3    H253391   0.517   4.833   1.034 -0.7340  0.1353  1.5562
10634TIP3   OH253392   3.372   4.792  13.076  0.2397 -0.2928  0.0711
10634TIP3    H153393   3.410   4.880  13.071 -2.6119  1.0951  0.6182
10634TIP3    H253394   3.309   4.789  13.004 -1.5034 -0.8887  1.5497
10635TIP3   OH253395   6.436   0.463  14.130  0.4308 -0.2968 -0.0965
10635TIP3    H153396   6.419   0.503  14.045  2.0044 -0.5464 -0.5699
10635TIP3    H253397   6.394   0.377  14.124  2.1063 -1.0790 -1.3818
10636TIP3   OH253398   6.022   4.986   2.804  0.0744  0.5320  0.0583
10636TIP3    H153399   5.931   4.998   2.829 -0.8053 -0.7694 -2.2066
10636TIP3    H253400   6.070   4.986   2.887 -1.9101  1.5840  1.2819
10637TIP3   OH253401   2.666   5.402  16.633 -0.9125 -0.5217  0.0509
10637TIP3    H153402   2.578   5.414  16.596 -0.0095 -2.2800 -3.0606
10637TIP3    H253403   2.666   5.314  16.669 -0.2386 -0.8412 -0.6925
10638TIP3   OH253404   5.468   4.167  15.169 -0.6071 -0.5537  0.9005
10638TIP3    H153405   5.447   4.088  15.120  0.1854  0.8128 -1.8431
10638TIP3    H253406   5.445   4.239  15.110 -0.5326  1.2675  2.9530
10639TIP3   OH253407   4.212   4.965   1.350 -0.0338  0.2140  0.0140
10639TIP3    H153408   4.296   4.972   1.305  0.9064 -3.4427  0.8865
10639TIP3    H253409   4.149   4.948   1.280  0.4673  0.0433 -0.4030
10640TIP3   OH253410   2.112   5.577   4.223  0.2304 -0.2625  0.3623
10640TIP3    H153411   2.182   5.641   4.213 -0.1988  0.0565 -0.7773
10640TIP3    H253412   2.031   5.629   4.216 -0.1478 -1.0716 -2.1148
10641TIP3   OH253413   1.159   5.621   2.322 -0.2786 -0.1826 -0.3541
10641TIP3    H153414   1.115   5.661   2.397 -0.9040  0.7667 -1.2025
10641TIP3    H253415   1.234   5.575   2.360 -0.1818  0.8592  0.7805
10642TIP3   OH253416   6.325   3.394  11.961 -0.0520 -0.4683  0.1702
10642TIP3    H153417   6.262   3.328  11.930 -0.2574 -0.6295  0.9028
10642TIP3    H253418   6.270   3.465  11.993  0.1261 -0.7047  1.0213
10643TIP3   OH253419   2.080   4.265   3.469 -0.4275 -0.0391 -0.1825
10643TIP3    H153420   2.136   4.301   3.538 -1.0207 -0.0152  0.2946
10643TIP3    H253421   2.089   4.170   3.477 -0.1304 -0.0297 -0.3827
10644TIP3   OH253422   0.220   5.143   2.238 -0.2003  0.5054  0.3436
10644TIP3    H153423   0.158   5.204   2.278 -2.0448 -1.6850  0.9892
10644TIP3    H253424   0.266   5.103   2.311  0.4462  0.5315 -0.0363
10645TIP3   OH253425   0.043   4.472  14.769  0.3975 -0.0570  0.1923
10645TIP3    H153426   0.087   4.533  14.710 -0.9717  1.3318  0.5395
10645TIP3    H253427  -0.042   4.458  14.730  0.4066 -1.1427  0.5358
10646TIP3   OH253428   4.952   2.755  16.983  0.0006 -0.3052 -0.4460
10646TIP3    H153429   4.931   2.682  17.041 -1.5000  0.8194  0.4783
10646TIP3    H253430   5.041   2.780  17.007 -0.5110  0.0033  1.2636
10647TIP3   OH253431   4.246   1.385  14.186 -0.1431 -0.0975  0.8792
10647TIP3    H153432   4.245   1.298  14.225 -0.3593  0.0626  1.2281
10647TIP3    H253433   4.286   1.441  14.252 -2.6403  0.6397  1.8583
10648TIP3   OH253434   6.280   6.196   3.273  0.2065 -0.2332  0.1583
10648TIP3    H153435   6.203   6.162   3.227 -1.1503  2.6542  0.0893
10648TIP3    H253436   6.245   6.229   3.356  1.2261  1.6381 -0.1047
10649TIP3   OH253437   3.533   0.748  13.248 -0.1941 -0.9023 -0.2754
10649TIP3    H153438   3.623   0.728  13.273 -1.0339 -2.3351  1.8872
10649TIP3    H253439   3.514   0.830  13.294 -0.1878 -0.9296 -0.2241
10650TIP3   OH253440   4.047   1.340   4.851  1.0245  0.4108  0.2927
10650TIP3    H153441   4.037   1.280   4.777  1.4104  0.6620  0.0368
10650TIP3    H253442   4.085   1.420   4.813 -1.4616  1.6641  0.2115
10651TIP3   OH253443   1.751   0.253  16.001  0.2760  0.2699 -0.0302
10651TIP3    H153444   1.776   0.171  16.043  0.5562  1.0298  1.3637
10651TIP3    H253445   1.668   0.233  15.957  0.1978 -0.6803  0.5267
10652TIP3   OH253446   1.203   0.164   5.536  0.1242  0.6419 -0.0006
10652TIP3    H153447   1.235   0.077   5.512  1.9223  0.9094  1.2600
10652TIP3    H253448   1.177   0.156   5.627  0.5987  1.4804  0.2214
10653TIP3   OH253449   3.528   3.541  15.348  0.2816  0.5042  0.3060
10653TIP3    H153450   3.484   3.522  15.265  0.0069  0.1415  0.5320
10653TIP3    H253451   3.621   3.548  15.325  0.3182 -0.4936  0.1043
10654TIP3   OH253452   2.863   2.669   6.027 -0.3466  0.6897  0.2608
10654TIP3    H153453   2.909   2.710   5.954  1.0663 -1.5247 -0.1815
10654TIP3    H253454   2.799   2.735   6.054 -0.3349  1.9412 -2.3824
10655TIP3   OH253455   1.076   0.130   4.065 -0.0503  0.1205 -0.3468
10655TIP3    H153456   0.995   0.179   4.050 -1.0229 -1.5766 -0.9090
10655TIP3    H253457   1.143   0.179   4.017 -0.9978  0.8296 -0.9948
10656TIP3   OH253458   4.084   6.166   2.422  0.2804 -0.3241  0.0414
10656TIP3    H153459   4.063   6.213   2.502 -1.0065 -2.3930  0.9971
10656TIP3    H253460   4.175   6.138   2.433  0.3769  0.1190  0.3835
10657TIP3   OH253461   3.093   4.468   4.517 -0.5641  0.2581  0.1555
10657TIP3    H153462   3.162   4.485   4.452  0.0731  1.2241  1.0545
10657TIP3    H253463   3.019   4.438   4.465 -0.3689  1.8521 -1.1502
10658TIP3   OH253464   5.059   4.410  10.657  0.2724  0.0385  0.0345
10658TIP3    H153465   4.984   4.422  10.599 -0.0912  1.4098  0.7585
10658TIP3    H253466   5.058   4.316  10.677 -1.3963  0.0610  0.2222
10659TIP3   OH253467   5.562   1.645   2.194 -0.0906  0.3207 -0.2356
10659TIP3    H153468   5.550   1.690   2.111 -1.5212 -1.8007 -1.2773
10659TIP3    H253469   5.503   1.569   2.189  1.1788 -0.9158  1.9412
10660TIP3   OH253470   1.333   4.230  14.073 -0.1122 -0.1575 -0.4882
10660TIP3    H153471   1.392   4.156  14.062 -1.9666 -2.0856  1.5063
10660TIP3    H253472   1.258   4.210  14.017 -1.5791 -0.9924  1.6227
10661TIP3   OH253473   0.055   4.624  14.354 -0.2695  0.1745  0.8128
10661TIP3    H153474   0.015   4.609  14.268  0.1861 -0.4957  0.7035
10661TIP3    H253475   0.096   4.710  14.347 -1.2588  0.6516  0.7663
10662TIP3   OH253476   5.278   2.741  10.986 -0.0264  0.4452 -0.3445
10662TIP3    H153477   5.235   2.720  10.903 -0.1114  1.1854 -0.4980
10662TIP3    H253478   5.235   2.685  11.050 -0.8861  0.8189 -0.5790
10663TIP3   OH253479   0.907   2.785   6.035  0.3551  0.5556 -0.2543
10663TIP3    H153480   0.820   2.824   6.037  0.0137 -0.1643 -0.8252
10663TIP3    H253481   0.934   2.781   6.127 -1.3150 -1.6158  0.2057
10664TIP3   OH253482   6.841   3.702   6.598  0.0694 -0.4765  0.1314
10664TIP3    H153483   6.817   3.720   6.689  1.2641  0.0168  0.3662
10664TIP3    H253484   6.891   3.779   6.571  0.3419 -0.9449 -0.7131
10665TIP3   OH253485   2.815   5.531   1.060  0.1712  0.6728  0.1964
10665TIP3    H153486   2.864   5.472   1.116 -2.1438  1.0084  2.7989
10665TIP3    H253487   2.745   5.477   1.023  0.1756  1.0308 -0.3539
10666TIP3   OH253488   2.797   1.709   0.988 -0.2264 -0.3335 -0.2906
10666TIP3    H153489   2.885   1.698   1.024 -1.2126 -2.5799  1.7596
10666TIP3    H253490   2.760   1.620   0.988 -2.5158  0.5473 -0.9908
10667TIP3   OH253491   1.042   6.202  11.036  0.0511  0.5703 -0.2000
10667TIP3    H153492   1.096   6.280  11.022  1.4479 -0.1588  0.8043
10667TIP3    H253493   0.988   6.224  11.112  0.9187  0.3646  0.5013
10668TIP3   OH253494   2.880   6.233   5.509  0.4010 -0.1288 -0.5465
10668TIP3    H153495   2.935   6.305   5.539  1.3558 -1.1542  0.2527
10668TIP3    H253496   2.800   6.275   5.476  1.8364  1.4400 -2.2375
10669TIP3   OH253497   3.522   0.603  14.083 -0.2300  0.0886 -0.6575
10669TIP3    H153498   3.597   0.569  14.034  0.6839  1.9756 -0.6903
10669TIP3    H253499   3.453   0.614  14.017  0.2567  0.5158 -1.1104
10670TIP3   OH253500   1.479   3.205   1.424 -0.4063  1.3218  0.4033
10670TIP3    H153501   1.514   3.135   1.370 -1.0103  0.8853  0.5761
10670TIP3    H253502   1.515   3.285   1.386  0.4018  0.9144  0.2991
10671TIP3   OH253503   2.636   1.658   2.248 -0.4084  0.5261  0.3779
10671TIP3    H153504   2.551   1.621   2.273 -0.2988 -0.1027 -0.1560
10671TIP3    H253505   2.670   1.597   2.182 -0.6229  2.0214 -1.1929
10672TIP3   OH253506   1.598   5.265   4.765  0.6613  0.8120  0.0721
10672TIP3    H153507   1.676   5.301   4.721  0.3177  0.8327 -0.5318
10672TIP3    H253508   1.602   5.301   4.854  2.5705 -0.9938  0.8033
10673TIP3   OH253509   6.156   2.661   0.056 -0.4120 -0.6451 -0.3663
10673TIP3    H153510   6.172   2.645   0.149  0.8108 -0.2074 -0.4825
10673TIP3    H253511   6.194   2.585   0.012  0.9142  0.1410 -0.6200
10674TIP3   OH253512   1.554   4.744  13.435 -0.5336  0.4643  0.2410
10674TIP3    H153513   1.609   4.743  13.356  2.2888  0.0471  2.0541
10674TIP3    H253514   1.498   4.667  13.426  0.0041  0.2089 -1.1863
10675TIP3   OH253515   0.553   5.334  14.573 -0.1658 -0.8157  0.7263
10675TIP3    H153516   0.622   5.271  14.552 -0.9137 -1.8076  1.1488
10675TIP3    H253517   0.593   5.392  14.638  1.1650  0.4055 -1.0739
10676TIP3   OH253518   0.448   1.826   1.666 -0.3377 -0.0674 -0.4913
10676TIP3    H153519   0.512   1.895   1.682 -1.0837  0.5975 -0.2768
10676TIP3    H253520   0.391   1.861   1.597 -1.3589  0.0001  0.3468
10677TIP3   OH253521   1.691   5.650   5.463  0.0473 -0.4709 -0.6467
10677TIP3    H153522   1.680   5.555   5.467 -0.4492 -0.3723  1.2265
10677TIP3    H253523   1.616   5.681   5.412 -0.4458 -0.9800 -0.2306
10678TIP3   OH253524   4.183   2.930   5.960 -0.3342 -0.0387 -0.0143
10678TIP3    H153525   4.117   2.889   6.016 -0.8116  0.9542  0.1722
10678TIP3    H253526   4.200   3.015   6.001  1.9716 -0.7474  0.6334
10679TIP3   OH253527   5.464   0.031   2.406  0.2589  0.1741  0.5447
10679TIP3    H153528   5.473   0.069   2.319  0.5855 -0.1320  0.4412
10679TIP3    H253529   5.383  -0.020   2.402  0.6001 -0.3445  0.2277
10680TIP3   OH253530   3.528   0.394   5.737 -0.2847  0.2914 -0.2773
10680TIP3    H153531   3.446   0.373   5.783  1.4136 -1.2065  2.3293
10680TIP3    H253532   3.538   0.323   5.673 -2.5451  2.2592 -3.0588
10681TIP3   OH253533   5.108   4.604   5.045 -0.5313 -0.3305 -0.5111
10681TIP3    H153534   5.083   4.667   5.113 -0.5846  0.6133 -1.3675
10681TIP3    H253535   5.033   4.604   4.985 -0.0111 -0.2816 -1.1632
10682TIP3   OH253536   4.426   0.726   3.029 -0.2230 -0.8329 -0.1983
10682TIP3    H153537   4.478   0.799   3.063  0.0196 -0.2596 -1.7049
10682TIP3    H253538   4.335   0.752   3.043 -0.1244 -0.5484 -0.0896
10683TIP3   OH253539   3.103   0.979  15.722  0.2392 -0.6981 -0.2157
10683TIP3    H153540   3.034   0.928  15.764 -1.1243  0.2941 -1.1436
10683TIP3    H253541   3.184   0.942  15.755 -0.7072 -0.1693  3.0474
10684TIP3   OH253542   2.342   5.915   5.597 -0.1676 -0.2146  0.3011
10684TIP3    H153543   2.257   5.879   5.574 -0.6042  0.9716 -0.0324
10684TIP3    H253544   2.385   5.846   5.647 -0.5324 -1.5662 -1.1966
10685TIP3   OH253545   6.487   3.093  13.531 -0.1520 -0.0881  0.2185
10685TIP3    H153546   6.527   3.139  13.605 -0.1186 -0.2662  0.3135
10685TIP3    H253547   6.502   3.000  13.551 -1.6839 -0.2225  0.8735
10686TIP3   OH253548   5.464   4.602  15.012  0.0459  0.0102  0.2333
10686TIP3    H153549   5.523   4.599  14.937  0.7673 -0.4666  0.8086
10686TIP3    H253550   5.376   4.594  14.974  0.4646 -1.6323 -0.4766
10687TIP3   OH253551   0.610   0.193   3.970  0.7938  0.1561 -0.3290
10687TIP3    H153552   0.550   0.268   3.965  1.4793  0.8240  0.8334
10687TIP3    H253553   0.602   0.149   3.886  0.3933  1.5641 -1.0499
10688TIP3   OH253554   2.345   0.704  15.308 -0.6063  0.2788 -0.5208
10688TIP3    H153555   2.436   0.691  15.333 -0.9274 -1.5227 -0.1435
10688TIP3    H253556   2.313   0.616  15.288 -3.4223  0.0880  3.5043
10689TIP3   OH253557   6.290   5.086   5.850  0.4887  0.1666 -0.0896
10689TIP3    H153558   6.381   5.114   5.840  0.9520 -1.2911 -0.2008
10689TIP3    H253559   6.271   5.098   5.943  1.0542 -0.2200  0.0840
10690TIP3   OH253560   0.770   2.857   5.070  0.4832  0.0184 -0.2091
10690TIP3    H153561   0.860   2.884   5.090  0.2030  2.1871 -1.5354
10690TIP3    H253562   0.778   2.799   4.994  0.7865 -0.3674  0.1105
10691TIP3   OH253563   4.169   0.396   1.160 -0.1543  0.0103 -0.6510
10691TIP3    H153564   4.098   0.340   1.189 -0.2253  0.9670  1.1087
10691TIP3    H253565   4.155   0.479   1.205  0.6194  1.0865 -2.2807
10692TIP3   OH253566   0.256   5.068  13.435  0.2756 -0.1668 -0.0583
10692TIP3    H153567   0.229   5.160  13.438  0.5294 -0.0656 -0.6491
10692TIP3    H253568   0.276   5.052  13.343 -1.5953 -1.3585 -0.3033
10693TIP3   OH253569   6.409   6.768   5.892 -0.4464 -0.3925 -0.5463
10693TIP3    H153570   6.409   6.826   5.967  0.3788 -0.2646 -0.6381
10693TIP3    H253571   6.410   6.827   5.816  0.5423 -0.5115 -0.6384
10694TIP3   OH253572   0.274   2.496  12.571 -0.0935 -0.7016  0.1611
10694TIP3    H153573   0.218   2.431  12.614 -0.7866 -1.1206 -1.3192
10694TIP3    H253574   0.314   2.449  12.499  0.7586  0.0862  0.1059
10695TIP3   OH253575   0.299   4.419   4.803  0.0490 -0.2187 -0.3544
10695TIP3    H153576   0.214   4.376   4.789  0.2747 -0.6192 -0.4954
10695TIP3    H253577   0.276   4.506   4.837 -0.4587  0.0846 -1.4321
10696TIP3   OH253578   6.820   3.845   0.415  0.3531  0.3637  0.4791
10696TIP3    H153579   6.760   3.865   0.487  0.3630  0.7964  0.3698
10696TIP3    H253580   6.792   3.902   0.344  1.3293  1.1052  0.6629
10697TIP3   OH253581   3.160   0.971  16.867 -0.0119 -0.0766  0.0991
10697TIP3    H153582   3.134   0.990  16.957 -2.5184  0.3117 -0.6423
10697TIP3    H253583   3.207   0.887  16.872  2.0645  1.0793  2.0210
10698TIP3   OH253584   2.538   6.034  15.528 -0.2955  0.3254 -0.5223
10698TIP3    H153585   2.507   6.109  15.477  1.9024 -0.1920 -2.7975
10698TIP3    H253586   2.489   5.959  15.494 -1.0726  0.3952  0.3850
10699TIP3   OH253587   1.558   3.189  12.629  0.0480 -0.2177 -0.7929
10699TIP3    H153588   1.561   3.196  12.534  0.0350 -0.4663 -0.8129
10699TIP3    H253589   1.636   3.137  12.652 -0.5453 -1.1185 -0.7640
10700TIP3   OH253590   0.549   3.323   1.888 -0.7503 -0.7147  0.1216
10700TIP3    H153591   0.555   3.360   1.800  1.7688  0.4015  0.6770
10700TIP3    H253592   0.608   3.248   1.886 -1.3425 -1.2071  0.6619
10701TIP3   OH253593   1.764   6.325   2.977 -0.5331  0.6018 -0.0824
10701TIP3    H153594   1.723   6.401   2.935 -1.9515 -0.6793 -1.1625
10701TIP3    H253595   1.702   6.300   3.046 -1.4939 -1.1340 -1.4881
10702TIP3   OH253596   0.371   4.325   1.106 -0.3647  0.1777 -0.4267
10702TIP3    H153597   0.459   4.287   1.108 -0.8858 -1.0747  0.1294
10702TIP3    H253598   0.319   4.262   1.056 -0.7748  1.3503 -1.5384
10703TIP3   OH253599   1.475   5.414   4.173 -0.9481  0.5069 -0.1396
10703TIP3    H153600   1.511   5.330   4.147  0.8763  1.6515 -1.5454
10703TIP3    H253601   1.453   5.404   4.266  3.5887 -0.1665  1.0634
10704TIP3   OH253602   4.865   0.844   5.875  0.1737 -0.2399 -0.6586
10704TIP3    H153603   4.887   0.896   5.798  0.7958 -0.8746 -0.9219
10704TIP3    H253604   4.934   0.864   5.938 -0.6405  0.7057 -0.0448
10705TIP3   OH253605   6.356   2.507  11.743 -0.1468 -0.1580  0.0968
10705TIP3    H153606   6.358   2.515  11.838 -1.4192 -0.3964  0.1496
10705TIP3    H253607   6.398   2.587  11.711 -0.0330  0.0830  0.8428
10706TIP3   OH253608   0.593   0.406   5.861 -0.0607  0.2357  0.1201
10706TIP3    H153609   0.602   0.501   5.849 -2.4339  0.4547 -0.4678
10706TIP3    H253610   0.600   0.394   5.956  2.0276  0.7297  0.0644
10707TIP3   OH253611   2.776   2.355  12.950 -0.0515 -0.5141  0.5156
10707TIP3    H153612   2.864   2.388  12.931 -0.3714  0.0256 -0.0957
10707TIP3    H253613   2.775   2.339  13.044  1.1665 -1.9276  0.3255
10708TIP3   OH253614   0.660   0.711   4.925 -0.4039 -1.1415  0.0874
10708TIP3    H153615   0.654   0.633   4.868 -1.1416 -0.4629 -0.8062
10708TIP3    H253616   0.583   0.763   4.901  0.6464  0.3891 -0.1256
10709TIP3   OH253617   6.390   4.156  16.136  0.1672 -1.1017 -0.1524
10709TIP3    H153618   6.472   4.110  16.153  0.4506 -0.7247 -0.4956
10709TIP3    H253619   6.381   4.154  16.040 -0.8496 -2.2319 -0.0605
10710TIP3   OH253620   6.605   4.625  13.025  0.0769  0.2534 -0.3104
10710TIP3    H153621   6.652   4.629  12.941  0.5980  0.4370 -0.0156
10710TIP3    H253622   6.620   4.535  13.056 -0.4630  0.0586 -0.6099
10711TIP3   OH253623   4.952   0.029  16.813 -0.0864 -0.1520 -0.0708
10711TIP3    H153624   4.900   0.103  16.782 -2.4435 -1.6350  0.0561
10711TIP3    H253625   5.018   0.016  16.746 -0.4238  1.2907 -0.7114
10712TIP3   OH253626   4.394   4.675   4.732 -0.7009  0.1762 -0.3238
10712TIP3    H153627   4.342   4.739   4.683 -0.8025  1.5237  1.4494
10712TIP3    H253628   4.381   4.698   4.824  1.1963 -0.9025  0.2836
10713TIP3   OH253629   4.847   1.191  16.946  0.2605 -0.5824  0.5456
10713TIP3    H153630   4.926   1.147  16.913 -0.4519 -1.7677  0.3757
10713TIP3    H253631   4.777   1.128  16.934 -1.1366  1.1568 -1.2189
10714TIP3   OH253632   3.320   6.556  12.053 -0.3376  0.5617  0.2459
10714TIP3    H153633   3.245   6.560  11.993  0.3486 -0.2559 -0.6972
10714TIP3    H253634   3.382   6.621  12.018  0.1471 -0.0572 -0.0755
10715TIP3   OH253635   6.274   0.943   1.174 -0.3295  0.3207  0.4064
10715TIP3    H153636   6.340   0.936   1.243 -0.5740 -0.7480  0.5595
10715TIP3    H253637   6.195   0.905   1.213 -0.2632 -1.0236 -0.6757
10716TIP3   OH253638   5.541   4.034   4.443  0.2473  0.6906 -0.1924
10716TIP3    H153639   5.623   3.996   4.411 -0.0219  0.7487 -0.9697
10716TIP3    H253640   5.562   4.065   4.531  2.0053  3.5671 -1.4586
10717TIP3   OH253641   3.817   3.860   2.417  0.4074 -0.1158  0.2534
10717TIP3    H153642   3.904   3.888   2.444 -0.2985  2.1844  0.3152
10717TIP3    H253643   3.758   3.928   2.448 -1.3943 -1.3861 -0.1684
10718TIP3   OH253644   0.433   3.852  17.120 -0.6098 -0.5566 -0.1406
10718TIP3    H153645   0.479   3.933  17.096 -0.8468 -0.6741 -1.0523
10718TIP3    H253646   0.481   3.783  17.074 -1.2174 -0.7675 -0.4701
10719TIP3   OH253647   2.988   1.584  14.515 -0.1964  0.1430 -0.3262
10719TIP3    H153648   2.901   1.619  14.494  0.2043  0.3730 -1.6987
10719TIP3    H253649   3.033   1.656  14.559 -0.7794 -0.0651  0.6286
10720TIP3   OH253650   6.289   5.879   0.562 -0.3484  0.4930  0.2823
10720TIP3    H153651   6.284   5.916   0.650  1.5246 -0.5576  0.8801
10720TIP3    H253652   6.379   5.896   0.534  0.0207 -1.8554 -0.1651
10721TIP3   OH253653   0.209   0.262  15.623  0.4784  0.1878 -0.0647
10721TIP3    H153654   0.246   0.184  15.580 -0.8517 -0.8786  0.6432
10721TIP3    H253655   0.116   0.242  15.634  0.3699  1.3089  1.3597
10722TIP3   OH253656   1.014   5.346  14.824 -0.0503  0.8373  0.1873
10722TIP3    H153657   1.108   5.357  14.810 -0.1349  0.6358 -0.6209
10722TIP3    H253658   0.991   5.271  14.769 -0.3413 -0.3467  1.8559
10723TIP3   OH253659   0.564   0.172  12.022 -0.4891  0.4791 -0.2928
10723TIP3    H153660   0.533   0.231  12.090  1.8773  0.9282  0.4890
10723TIP3    H253661   0.530   0.210  11.941 -2.3436  0.6043  0.4986
10724TIP3   OH253662   0.166   5.105  16.813  0.5785  0.0386 -0.1301
10724TIP3    H153663   0.152   5.111  16.718 -0.5446  3.4024  0.1272
10724TIP3    H253664   0.231   5.172  16.832 -0.5080  0.6418  1.6651
10725TIP3   OH253665   2.357   4.613  12.302 -0.2366 -0.3558 -0.6173
10725TIP3    H153666   2.452   4.614  12.309 -0.3846 -0.0180  2.3102
10725TIP3    H253667   2.333   4.521  12.307 -0.1131 -0.4354 -1.2890
10726TIP3   OH253668   6.788   1.243   1.953  0.1406 -0.2164  0.3291
10726TIP3    H153669   6.823   1.228   1.866 -0.6379 -0.4359  0.0457
10726TIP3    H253670   6.865   1.260   2.008  0.5725  0.8868 -0.5852
10727TIP3   OH253671   6.701   5.397   3.400  0.3603  0.2438 -0.8973
10727TIP3    H153672   6.735   5.349   3.476  0.7174  1.7702 -0.0646
10727TIP3    H253673   6.608   5.376   3.398 -0.0066  1.4950  0.9925
10728TIP3   OH253674   6.527   6.169   3.613  0.0753  0.5854  0.0209
10728TIP3    H153675   6.583   6.194   3.686 -1.0584  1.5073  0.5861
10728TIP3    H253676   6.542   6.237   3.547  1.2065 -0.3202 -0.7065
10729TIP3   OH253677   0.647   0.735   0.644 -0.0448  0.0610  0.2307
10729TIP3    H153678   0.605   0.649   0.632  0.5153 -0.2380  0.3692
10729TIP3    H253679   0.638   0.778   0.559 -0.1257 -0.2303  0.0883
10730TIP3   OH253680   3.938   2.336  12.599  0.0494 -0.7242 -0.0882
10730TIP3    H153681   3.874   2.406  12.609  0.3422 -0.1769 -1.6892
10730TIP3    H253682   3.935   2.314  12.506  0.1337 -2.7024  0.3323
10731TIP3   OH253683   6.252   0.223  11.153 -0.0620  0.0444  1.0483
10731TIP3    H153684   6.334   0.260  11.185  2.0695 -1.4757 -2.1412
10731TIP3    H253685   6.232   0.272  11.074 -0.8637 -1.1949  0.4446
10732TIP3   OH253686   0.690   6.054   0.495  0.6235 -0.2319 -0.4102
10732TIP3    H153687   0.726   6.124   0.440  0.7621 -0.8345 -1.1030
10732TIP3    H253688   0.697   5.975   0.441 -1.1748 -0.4778 -0.3485
10733TIP3   OH253689   5.466   2.891  14.515  0.0587 -0.0149  0.1287
10733TIP3    H153690   5.415   2.811  14.525 -0.7801  0.4460 -0.3603
10733TIP3    H253691   5.558   2.862  14.516 -0.2051 -0.8787  0.7775
10734TIP3   OH253692   4.070   1.421   6.582  0.5312  0.3058  0.1372
10734TIP3    H153693   4.052   1.329   6.600  0.1516  0.4217  0.3639
10734TIP3    H253694   4.157   1.421   6.543  0.4392 -0.1683 -0.0739
10735TIP3   OH253695   3.264   1.546   3.383 -0.2395 -0.2748 -0.8357
10735TIP3    H153696   3.227   1.547   3.472  0.1422 -1.3099 -0.6485
10735TIP3    H253697   3.335   1.482   3.388 -1.8565 -2.3562 -2.5204
10736TIP3   OH253698   1.425   5.548   2.393 -0.3368  0.1842 -0.0884
10736TIP3    H153699   1.407   5.504   2.476  0.2838 -4.2869 -2.0548
10736TIP3    H253700   1.520   5.555   2.389 -0.2548 -1.0873 -1.0014
10737TIP3   OH253701   3.074   5.608   4.257 -0.5033 -0.4369  0.4212
10737TIP3    H153702   3.137   5.679   4.248 -2.4360  1.2437 -1.0056
10737TIP3    H253703   2.994   5.651   4.287 -1.5711 -2.1121  0.1513
10738TIP3   OH253704   4.337   4.521   0.459 -0.2899 -0.6591 -0.1348
10738TIP3    H153705   4.407   4.584   0.476  0.0527 -1.1832  0.4612
10738TIP3    H253706   4.382   4.444   0.424 -0.7514 -0.4175 -1.2932
10739TIP3   OH253707   2.063   5.313  10.387  0.0482  0.1032  0.6685
10739TIP3    H153708   2.075   5.241  10.325 -1.0878  0.3518  0.1345
10739TIP3    H253709   2.088   5.277  10.472 -1.3717 -1.2123  0.5725
10740TIP3   OH253710   1.465   4.861   6.566  0.1157 -0.0622  0.1087
10740TIP3    H153711   1.472   4.793   6.633 -0.6039 -0.3794 -0.1246
10740TIP3    H253712   1.549   4.907   6.569  0.2642 -0.3702  0.9062
10741TIP3   OH253713   3.393   5.444  11.777  0.0562  0.3287 -0.4215
10741TIP3    H153714   3.313   5.456  11.828  0.4963 -0.7243  0.5718
10741TIP3    H253715   3.369   5.472  11.689 -1.5606 -0.4002 -0.2583
10742TIP3   OH253716   0.356   4.547   0.432 -0.3665  0.2352  0.0864
10742TIP3    H153717   0.293   4.595   0.378 -0.1418  2.0955  1.3523
10742TIP3    H253718   0.327   4.562   0.522  0.8477 -0.4056  0.6146
10743TIP3   OH253719   5.801   1.889  12.028 -0.4197 -0.2914 -0.2284
10743TIP3    H153720   5.856   1.854  11.958  1.2032  0.1428  0.7631
10743TIP3    H253721   5.811   1.984  12.022 -0.4241 -0.2378  0.4502
10744TIP3   OH253722   4.480   2.265   1.269 -0.4341 -0.6491  0.4356
10744TIP3    H153723   4.556   2.324   1.260 -0.1154 -0.8533  1.6697
10744TIP3    H253724   4.406   2.319   1.242 -0.6750  1.6105  4.7152
10745TIP3   OH253725   5.130   0.937  12.578 -0.5683 -0.0756  0.3302
10745TIP3    H153726   5.166   0.860  12.622 -1.7023 -0.3221  0.8612
10745TIP3    H253727   5.053   0.905  12.531 -0.6956  0.6185  0.0573
10746TIP3   OH253728   5.806   3.301   5.663  0.4537  0.2278 -0.7985
10746TIP3    H153729   5.740   3.364   5.691  0.9018 -0.2939  1.6406
10746TIP3    H253730   5.816   3.242   5.737  1.7627 -1.3034 -2.1202
10747TIP3   OH253731   1.656   5.980   0.558  0.0085  0.6440 -0.2920
10747TIP3    H153732   1.596   5.915   0.521  0.1422  1.1032 -1.3419
10747TIP3    H253733   1.693   5.937   0.635 -0.3543 -0.2996 -0.6245
10748TIP3   OH253734   5.742   1.595   5.847 -0.4022  0.2753 -0.3111
10748TIP3    H153735   5.668   1.584   5.907 -0.5077  0.9980 -0.2909
10748TIP3    H253736   5.801   1.522   5.867 -1.2360 -0.4704 -0.5238
10749TIP3   OH253737   5.898   4.474  16.630 -0.1287 -0.0835 -0.5555
10749TIP3    H153738   5.935   4.537  16.691  0.7782 -1.6479  0.5478
10749TIP3    H253739   5.963   4.468  16.560 -0.4968  0.6207 -0.9742
10750TIP3   OH253740   2.247   6.048   4.256 -0.1229  0.3699  0.0251
10750TIP3    H153741   2.252   6.090   4.170 -1.8052 -0.2534 -0.4324
10750TIP3    H253742   2.247   6.121   4.318  1.7022  0.8087 -0.4203
10751TIP3   OH253743   0.781   1.598   1.061  0.4205  0.0080  0.6164
10751TIP3    H153744   0.718   1.655   1.017 -0.8999 -1.9522 -0.1425
10751TIP3    H253745   0.856   1.595   1.002  0.9939  1.7518  1.1737
10752TIP3   OH253746   3.760   3.057   6.694  0.4069 -0.2894  0.5048
10752TIP3    H153747   3.770   2.969   6.657  0.4683 -0.4549  0.9115
10752TIP3    H253748   3.688   3.049   6.756 -1.3773  0.5523 -1.3335
10753TIP3   OH253749   1.446   6.730  15.595 -0.3638 -0.2259 -0.5282
10753TIP3    H153750   1.463   6.748  15.688  0.8530  0.7537 -0.9074
10753TIP3    H253751   1.406   6.644  15.594  0.2788 -0.5697  0.8613
10754TIP3   OH253752   2.626   4.432  12.594 -0.3970  0.0684 -0.0669
10754TIP3    H153753   2.624   4.485  12.514 -1.3220  0.5162  0.2460
10754TIP3    H253754   2.633   4.342  12.562  1.0488  0.3503 -0.6043
10755TIP3   OH253755   1.381   2.410  13.530  0.1557  0.1536  0.4020
10755TIP3    H153756   1.323   2.345  13.490 -0.2333  0.3920  0.5668
10755TIP3    H253757   1.355   2.411  13.622  0.2239  0.4683  0.4197
10756TIP3   OH253758   1.336   2.817  13.448  0.1101 -0.1971 -0.2330
10756TIP3    H153759   1.257   2.844  13.400 -0.4360 -0.5921  0.4193
10756TIP3    H253760   1.364   2.737  13.404  0.0939 -0.1090 -0.4056
10757TIP3   OH253761   4.876   6.288  16.966  0.4411  0.1411  0.4148
10757TIP3    H153762   4.950   6.236  16.996  2.4830  2.2032 -0.6727
10757TIP3    H253763   4.893   6.375  17.001 -0.9416  0.8903 -0.6885
10758TIP3   OH253764   4.540   6.703  12.420  0.3106 -0.5138 -0.0293
10758TIP3    H153765   4.530   6.729  12.328  1.0815 -0.8232 -0.2025
10758TIP3    H253766   4.520   6.783  12.469 -0.9138 -0.5506 -0.4211
10759TIP3   OH253767   1.255   1.765   0.660 -0.1266  0.0066 -0.8071
10759TIP3    H153768   1.240   1.841   0.716  0.6490 -0.0056 -0.5760
10759TIP3    H253769   1.350   1.752   0.662  0.1201  0.9306 -3.3525
10760TIP3   OH253770   2.126   4.180   5.195  0.0661  0.4537 -0.1722
10760TIP3    H153771   2.130   4.246   5.125  3.5394  0.0065 -0.5680
10760TIP3    H253772   2.086   4.226   5.269 -2.5159  1.3193 -1.9648
10761TIP3   OH253773   4.707   1.063  15.899  0.2019  0.3259  0.1595
10761TIP3    H153774   4.750   0.994  15.849 -1.3252 -0.2898 -0.3605
10761TIP3    H253775   4.733   1.047  15.990 -0.8988 -1.5667  0.1918
10762TIP3   OH253776   2.564   5.283   4.383 -0.1828  0.7306 -0.0191
10762TIP3    H153777   2.640   5.226   4.387 -0.6191  0.1119 -0.3731
10762TIP3    H253778   2.541   5.286   4.290 -1.3752 -0.1508  0.2203
10763TIP3   OH253779   4.165   4.053  11.473  0.1165 -0.1072  0.1071
10763TIP3    H153780   4.098   4.118  11.493  0.1824 -0.4390  1.5221
10763TIP3    H253781   4.234   4.069  11.538  0.7141 -0.7688 -0.3437
10764TIP3   OH253782   4.710   5.035  11.931 -0.8020  0.2477 -0.2600
10764TIP3    H153783   4.672   5.018  11.845 -1.1853 -2.7635  0.3982
10764TIP3    H253784   4.796   5.073  11.913 -0.4659 -1.2424 -2.0130
10765TIP3   OH253785   3.912   6.163  11.748 -0.1361 -0.7112 -0.2989
10765TIP3    H153786   3.944   6.253  11.756 -2.8288  0.2600  0.9931
10765TIP3    H253787   3.975   6.110  11.796  1.6073  0.4178 -1.2364
10766TIP3   OH253788   4.211   6.687   3.539  0.5036  0.3062  1.2210
10766TIP3    H153789   4.193   6.714   3.449 -1.1990 -3.6690  0.1551
10766TIP3    H253790   4.303   6.661   3.538  0.5624  0.5183  0.6908
10767TIP3   OH253791   0.544   2.920   3.989  0.3432 -0.3982  0.1703
10767TIP3    H153792   0.554   2.830   4.022 -0.5720 -0.9579 -0.9828
10767TIP3    H253793   0.530   2.973   4.068  0.8704 -1.2723  0.8678
10768TIP3   OH253794   5.886   2.623  13.381 -0.3237 -0.0024 -0.1725
10768TIP3    H153795   5.858   2.704  13.338  0.7930  0.4886  0.0079
10768TIP3    H253796   5.867   2.637  13.473 -1.9908 -0.7518 -0.3659
10769TIP3   OH253797   1.048   5.081  16.857  0.0557 -0.4611  0.0541
10769TIP3    H153798   1.094   5.112  16.935 -0.6872 -0.8041  0.6389
10769TIP3    H253799   1.038   4.987  16.870  0.7044 -0.6734 -0.8768
10770TIP3   OH253800   5.458   6.403   5.309 -0.2200  0.0386  0.2724
10770TIP3    H153801   5.522   6.332   5.312  0.6618  0.8473  2.0829
10770TIP3    H253802   5.374   6.359   5.294  0.3690 -1.3256  0.7749
10771TIP3   OH253803   3.669   2.502  13.015 -0.0363  0.1098 -0.3726
10771TIP3    H153804   3.583   2.539  13.036  0.0942  0.4961 -0.5231
10771TIP3    H253805   3.659   2.468  12.926 -0.5447 -1.3950  0.2157
10772TIP3   OH253806   5.841   3.243   1.363 -0.1241  0.2309  0.1708
10772TIP3    H153807   5.788   3.323   1.363 -0.4344  0.1269 -2.7014
10772TIP3    H253808   5.779   3.172   1.349  0.5145 -0.0181 -1.8301
10773TIP3   OH253809   1.035   1.642  12.581 -0.0829  0.3776  0.1983
10773TIP3    H153810   0.978   1.647  12.504 -1.5362 -0.4026  1.1919
10773TIP3    H253811   0.989   1.691  12.649  0.8521  0.4671  0.7876
10774TIP3   OH253812   5.931   3.397   4.540  0.1420  0.9570  0.0055
10774TIP3    H153813   5.961   3.443   4.462 -1.2151  1.3206 -0.3270
10774TIP3    H253814   5.944   3.304   4.519  1.3270  1.1015  0.0236
10775TIP3   OH253815   3.035   0.410  15.973 -0.2314  0.3365  0.1755
10775TIP3    H153816   3.073   0.330  16.010  0.0181 -0.7038 -2.1016
10775TIP3    H253817   3.110   0.456  15.935 -0.5635  0.9348  0.2412
10776TIP3   OH253818   2.924   1.506   4.720 -0.3390  0.4278  0.0931
10776TIP3    H153819   2.874   1.431   4.686  0.8869 -0.8384  0.9453
10776TIP3    H253820   2.877   1.532   4.799 -0.4854  0.1931  0.0861
10777TIP3   OH253821   6.659   4.084   5.413 -0.0545 -0.3649 -0.1806
10777TIP3    H153822   6.640   4.044   5.328  0.4765  0.5069 -0.7363
10777TIP3    H253823   6.589   4.054   5.470 -1.0815 -0.0472 -1.2256
10778TIP3   OH253824   0.499   1.918   1.181 -0.1089  0.9758 -0.0301
10778TIP3    H153825   0.436   1.969   1.131 -0.0264  1.1135  0.0051
10778TIP3    H253826   0.551   1.983   1.227  2.1054  1.0961 -2.4264
10779TIP3   OH253827   3.766   3.350  12.199  0.0064  0.4518 -0.0328
10779TIP3    H153828   3.828   3.420  12.222  0.5661  0.3096 -1.0644
10779TIP3    H253829   3.750   3.304  12.281  0.1042  1.4140  0.5429
10780TIP3   OH253830   3.289   2.329  11.690  0.0751  0.3138 -0.5809
10780TIP3    H153831   3.280   2.314  11.596 -2.5981  1.1102 -0.5347
10780TIP3    H253832   3.245   2.255  11.731  3.4818 -1.4633  0.2555
10781TIP3   OH253833   2.985   3.480   4.369 -0.3385 -0.4024 -0.1562
10781TIP3    H153834   2.947   3.504   4.453  1.8246  0.7535  0.5768
10781TIP3    H253835   2.925   3.416   4.332 -1.4659 -0.7706  2.1587
10782TIP3   OH253836   5.098   3.246   5.423  0.8114 -0.1654  0.5639
10782TIP3    H153837   5.056   3.280   5.501 -2.1158  1.0146 -1.3653
10782TIP3    H253838   5.062   3.158   5.412 -0.0304  0.2593 -0.2438
10783TIP3   OH253839   1.487   2.102   0.829  0.2001  0.0817 -0.1472
10783TIP3    H153840   1.478   2.197   0.815 -0.7313 -0.1411 -1.2509
10783TIP3    H253841   1.581   2.086   0.824  0.4025  1.0060  0.4905
10784TIP3   OH253842   5.863   2.479   2.176 -0.2668 -0.1119  0.0338
10784TIP3    H153843   5.784   2.491   2.229 -0.5149  1.9390 -0.7097
10784TIP3    H253844   5.832   2.436   2.096 -0.0172 -2.4864  1.1431
10785TIP3   OH253845   2.309   6.498  11.234  0.3043  0.4295  0.3915
10785TIP3    H153846   2.273   6.573  11.280 -1.0074 -0.0942  0.2611
10785TIP3    H253847   2.290   6.514  11.142 -1.6968 -0.8904  0.5080
10786TIP3   OH253848   4.862   0.353   2.052  0.3969 -0.2872  0.8756
10786TIP3    H153849   4.843   0.269   2.010 -0.8125 -0.0327  0.8924
10786TIP3    H253850   4.874   0.414   1.979 -0.4851 -0.1056  0.8763
10787TIP3   OH253851   1.100   1.027  13.507 -0.2293  0.4330  0.0318
10787TIP3    H153852   1.149   1.109  13.504 -0.0270  0.4296  1.9882
10787TIP3    H253853   1.147   0.974  13.572 -0.5784 -1.0915 -0.9230
10788TIP3   OH253854   1.409   5.704   5.388  0.1832  0.4275  0.1707
10788TIP3    H153855   1.400   5.733   5.297 -0.2132  1.5232  0.5318
10788TIP3    H253856   1.392   5.784   5.439  1.9237  0.2027  1.1693
10789TIP3   OH253857   4.499   3.448   5.221  0.0472  0.1008  0.2473
10789TIP3    H153858   4.535   3.362   5.197 -0.6689  0.5638 -3.0396
10789TIP3    H253859   4.568   3.489   5.273  0.1486 -2.6362  2.5179
10790TIP3   OH253860   2.902   3.540   1.486 -0.3083 -0.2042  0.3984
10790TIP3    H153861   2.916   3.538   1.581  1.4002  0.2050  0.1969
10790TIP3    H253862   2.872   3.452   1.464 -2.3707  0.1756  1.5195
10791TIP3   OH253863   6.763   5.649   5.290 -0.7172 -0.0720 -0.2996
10791TIP3    H153864   6.671   5.672   5.303 -0.3172  1.1151  0.6100
10791TIP3    H253865   6.794   5.622   5.376 -0.2662 -0.6788 -0.6421
10792TIP3   OH253866   3.225   5.099  15.703  0.1794 -0.1172  0.0578
10792TIP3    H153867   3.203   5.120  15.611 -1.3645  1.5591  0.7299
10792TIP3    H253868   3.284   5.170  15.729 -1.8192  1.2393  1.1815
10793TIP3   OH253869   4.648   6.459  13.778  0.1194  0.5262  0.0035
10793TIP3    H153870   4.735   6.437  13.812 -1.1066 -2.6595  1.5073
10793TIP3    H253871   4.636   6.399  13.704 -1.0513  0.4457  0.2503
10794TIP3   OH253872   4.082   4.072   1.084  0.3655 -0.1882 -0.5596
10794TIP3    H153873   4.062   3.981   1.061 -0.1480  0.1824 -1.6414
10794TIP3    H253874   4.034   4.088   1.165  0.8981 -1.0356 -0.0625
10795TIP3   OH253875   2.119   4.912   2.413 -0.1708  0.3362  0.0128
10795TIP3    H153876   2.094   4.819   2.413  1.1270 -0.0645  1.5726
10795TIP3    H253877   2.188   4.918   2.348  2.3654 -0.6769  2.3943
10796TIP3   OH253878   0.334   4.734  14.641 -0.7116 -0.2444  0.0255
10796TIP3    H153879   0.333   4.659  14.700  0.3159 -0.3185 -0.0413
10796TIP3    H253880   0.415   4.725  14.591 -1.8037 -0.4555 -1.7766
10797TIP3   OH253881   6.006   6.480  15.402 -0.2127 -0.0776  0.6210
10797TIP3    H153882   5.948   6.412  15.436  0.2024 -1.6082 -1.5431
10797TIP3    H253883   6.093   6.439  15.401  0.1582  0.6984 -0.1027
10798TIP3   OH253884   5.455   3.560  13.568 -0.1023 -0.3141 -0.3265
10798TIP3    H153885   5.512   3.495  13.526 -1.1674 -1.3348 -0.2383
10798TIP3    H253886   5.499   3.644  13.553  0.7425 -0.9291 -1.4117
10799TIP3   OH253887   0.668   2.348   4.589 -0.2979  0.3405 -0.7722
10799TIP3    H153888   0.596   2.325   4.648 -0.8315 -0.9500 -1.8754
10799TIP3    H253889   0.742   2.297   4.620 -0.1199  0.8907 -0.2630
10800TIP3   OH253890   3.993   1.616   0.960 -0.3276  0.6157  0.9977
10800TIP3    H153891   4.070   1.673   0.954  0.8140 -0.8585  1.2147
10800TIP3    H253892   4.001   1.557   0.885 -1.0724  0.2256  1.2196
10801TIP3   OH253893   4.447   5.698  11.747 -0.2859  0.2731  0.6106
10801TIP3    H153894   4.446   5.777  11.802  1.9473  1.1799 -0.5019
10801TIP3    H253895   4.414   5.629  11.804  0.1310  1.5364  2.4751
10802TIP3   OH253896   2.532   2.211  11.276 -0.1177 -0.2005 -0.0339
10802TIP3    H153897   2.547   2.166  11.359 -1.2282  0.9039  0.7865
10802TIP3    H253898   2.500   2.143  11.217 -1.3410 -0.5908  1.0526
10803TIP3   OH253899   4.684   4.280  15.049  0.4395  0.5727  0.4231
10803TIP3    H153900   4.737   4.207  15.080  0.8622  1.3712  1.6113
10803TIP3    H253901   4.600   4.270  15.094  0.4063  0.6752  0.3852
10804TIP3   OH253902   6.061   0.521   2.058  0.4357  0.4109 -0.3019
10804TIP3    H153903   6.127   0.459   2.087 -0.7568 -0.6581  0.2321
10804TIP3    H253904   6.002   0.470   2.003  1.2137  1.8324 -2.5640
10805TIP3   OH253905   5.014   4.376   4.831 -0.0589 -0.1475  0.1390
10805TIP3    H153906   4.976   4.456   4.794 -1.6586 -0.4875  0.9485
10805TIP3    H253907   5.069   4.341   4.761  0.7802  1.7073 -0.1826
10806TIP3   OH253908   3.621   3.238  11.158  0.2251  0.2191  0.2672
10806TIP3    H153909   3.549   3.187  11.194  0.1573 -0.8631 -1.3203
10806TIP3    H253910   3.579   3.309  11.109  0.2010 -0.5972 -0.9254
10807TIP3   OH253911   0.756   6.837  14.262 -0.0720  0.1124  0.1078
10807TIP3    H153912   0.694   6.876  14.200  0.9745  0.8179 -0.5360
10807TIP3    H253913   0.810   6.778  14.209  0.5595  0.3959  0.4154
10808TIP3   OH253914   2.949   4.678  12.414 -0.0828 -0.1879 -0.0940
10808TIP3    H153915   2.875   4.628  12.380 -0.6350  0.4889  0.0869
10808TIP3    H253916   2.909   4.747  12.467  0.7144 -0.4366  0.8639
10809TIP3   OH253917   2.782   5.468  12.755  0.4898  0.1748  0.1793
10809TIP3    H153918   2.818   5.453  12.842  0.5096 -0.8090  0.0091
10809TIP3    H253919   2.691   5.495  12.771  0.2576 -0.7530  0.4831
10810TIP3   OH253920   2.984   3.935  14.656  0.0183 -0.3462  0.0779
10810TIP3    H153921   2.894   3.965  14.645 -0.0586 -1.0577 -1.5028
10810TIP3    H253922   3.033   4.014  14.682 -0.9884  0.1171  0.6045
10811TIP3   OH253923   2.035   6.736  12.183 -0.3693  0.8162 -0.4042
10811TIP3    H153924   2.106   6.768  12.126 -1.5801  0.3210 -2.2414
10811TIP3    H253925   1.955   6.761  12.138 -1.3786  0.0318  0.8976
10812TIP3   OH253926   4.979   4.039   0.995  0.0206 -0.1538  0.5406
10812TIP3    H153927   5.022   3.983   0.930 -1.9744 -1.6636  0.4237
10812TIP3    H253928   5.038   4.114   1.005  1.4181 -0.9058 -1.4113
10813TIP3   OH253929   3.522   5.972   5.777 -0.0726  0.1332 -0.1747
10813TIP3    H153930   3.477   5.888   5.762 -3.8894  1.4153  2.5447
10813TIP3    H253931   3.535   5.975   5.872  1.3832  2.0170 -0.3883
10814TIP3   OH253932   3.035   0.406   0.108  0.4071  0.1584 -0.5406
10814TIP3    H153933   3.055   0.327   0.158 -1.4693 -0.2255 -0.3062
10814TIP3    H253934   2.987   0.461   0.171 -3.1068 -0.8345 -2.1105
10815TIP3   OH253935   4.488   0.591   0.805  1.1153 -0.0095  0.0923
10815TIP3    H153936   4.490   0.668   0.861  3.0547 -0.8689  1.3031
10815TIP3    H253937   4.459   0.520   0.862  0.0762 -0.3520 -0.8172
10816TIP3   OH253938   5.910   3.483  11.032 -0.1017 -0.5620  0.0657
10816TIP3    H153939   5.899   3.440  11.117  0.1516 -0.9681 -0.1036
10816TIP3    H253940   5.987   3.442  10.994  1.5592  1.6320  0.8637
10817TIP3   OH253941   1.631   2.902  14.072 -0.4517 -0.1277  0.1639
10817TIP3    H153942   1.681   2.821  14.058  0.7204  0.4631  0.8274
10817TIP3    H253943   1.630   2.914  14.166  0.6033  1.3570  0.0186
10818TIP3   OH253944   2.193   3.121   0.384  0.3406 -0.2582  0.3426
10818TIP3    H153945   2.194   3.209   0.346 -1.3313  0.0601  0.9582
10818TIP3    H253946   2.190   3.062   0.309 -1.9995  0.3341 -0.1276
10819TIP3   OH253947   0.196   1.117  11.342  0.7748  0.5683 -0.0968
10819TIP3    H153948   0.104   1.097  11.321  1.2269 -0.0207 -1.6363
10819TIP3    H253949   0.205   1.210  11.322  0.2735  0.8752  1.0311
10820TIP3   OH253950   3.668   6.380  15.284  0.4013  0.5603 -0.3295
10820TIP3    H153951   3.751   6.382  15.330  0.5133 -1.0106 -0.4120
10820TIP3    H253952   3.656   6.288  15.260 -0.5461  1.0315 -1.7933
10821TIP3   OH253953   0.183   0.328  16.924  0.4282 -0.2271  0.1660
10821TIP3    H153954   0.184   0.254  16.985 -0.3856 -1.1640 -0.8992
10821TIP3    H253955   0.204   0.288  16.839 -0.4141  0.6985 -0.4889
10822TIP3   OH253956   5.465   3.157  14.027  0.9436 -0.0215  0.4239
10822TIP3    H153957   5.510   3.237  13.998 -0.8474  0.7293 -0.4985
10822TIP3    H253958   5.501   3.088  13.972  0.3293  0.7339 -0.9812
10823TIP3   OH253959   2.795   5.930   5.210 -0.6476 -0.5080 -0.0370
10823TIP3    H153960   2.809   5.848   5.257  0.8546  0.3028  1.0172
10823TIP3    H253961   2.700   5.938   5.204 -0.8447 -1.5946  1.1540
10824TIP3   OH253962   1.124   1.645   0.408 -0.4423 -0.2281  0.1956
10824TIP3    H153963   1.069   1.723   0.408 -1.1383 -0.7053  0.8200
10824TIP3    H253964   1.185   1.658   0.481 -1.2316 -0.7173  0.9577
10825TIP3   OH253965   6.051   4.525  13.937  0.0405 -1.0006  0.4066
10825TIP3    H153966   6.136   4.484  13.924 -0.4461 -1.5151 -1.4812
10825TIP3    H253967   6.000   4.459  13.985  0.3340 -1.1692  0.4931
10826TIP3   OH253968   0.633   0.186   2.925  0.2806  0.6215  0.1318
10826TIP3    H153969   0.566   0.128   2.889  0.8140 -0.2346  0.4944
10826TIP3    H253970   0.586   0.267   2.945 -0.5627  0.1766  0.0080
10827TIP3   OH253971   6.822   2.147   1.578 -0.1100 -0.5034 -0.2736
10827TIP3    H153972   6.730   2.120   1.580 -0.3052  0.1739  0.1606
10827TIP3    H253973   6.832   2.202   1.656  0.2557  0.7380 -1.1755
10828TIP3   OH253974   1.665   6.770   3.652 -0.0925 -0.3141 -0.5335
10828TIP3    H153975   1.712   6.688   3.665 -1.8024 -1.0353  2.0284
10828TIP3    H253976   1.666   6.812   3.738  0.1254  2.0652 -1.6101
10829TIP3   OH253977   2.229   0.731   2.465  0.0152 -0.5916  0.3231
10829TIP3    H153978   2.237   0.826   2.453  0.2243 -0.4125  1.6995
10829TIP3    H253979   2.183   0.721   2.548  0.6143 -1.6996  0.5434
10830TIP3   OH253980   6.598   1.627  12.441  0.2463 -0.0914 -0.1337
10830TIP3    H153981   6.602   1.585  12.527 -1.3049 -0.8143 -0.3902
10830TIP3    H253982   6.513   1.602  12.406  0.1268  1.6236 -1.1599
10831TIP3   OH253983   2.756   1.148  11.011  0.2613  0.1051 -0.5978
10831TIP3    H153984   2.676   1.096  11.016  1.3624 -1.5546  1.9290
10831TIP3    H253985   2.811   1.101  10.948  0.1533 -0.0958 -0.5420
10832TIP3   OH253986   6.246   2.872   4.558 -0.2246 -0.7311 -0.5081
10832TIP3    H153987   6.251   2.875   4.654  1.8239  1.1281 -0.5863
10832TIP3    H253988   6.298   2.795   4.534  1.7822  0.4383 -0.1501
10833TIP3   OH253989   2.207   0.252   5.378  0.3331 -0.0703 -0.3892
10833TIP3    H153990   2.117   0.258   5.412 -0.3105  1.0469 -2.1292
10833TIP3    H253991   2.208   0.170   5.329  0.9357 -1.1444  1.3708
10834TIP3   OH253992   5.880   0.141   0.863 -0.3957  0.2525  0.5199
10834TIP3    H153993   5.870   0.220   0.809  1.8664 -0.5912 -1.2991
10834TIP3    H253994   5.876   0.069   0.800 -1.2272 -1.0267  1.9900
10835TIP3   OH253995   0.751   0.039   5.193 -0.0645 -0.4914 -0.0407
10835TIP3    H153996   0.777   0.075   5.278  2.5507 -2.3367  0.0955
10835TIP3    H253997   0.712  -0.046   5.214  0.2979 -0.8153 -0.6355
10836TIP3   OH253998   1.794   6.249   5.080  0.3165 -0.2612 -0.2411
10836TIP3    H153999   1.752   6.206   5.006  0.1196  0.8966 -0.8319
10836TIP3    H254000   1.888   6.239   5.064  0.2839 -1.5770  0.3118
10837TIP3   OH254001   0.318   4.008  11.216 -1.0424  0.0462  0.2592
10837TIP3    H154002   0.390   3.946  11.232 -0.4486  0.9009  1.0816
10837TIP3    H254003   0.349   4.062  11.143  0.1355  1.7499  1.9054
10838TIP3   OH254004   2.573   4.381   5.689 -0.0607 -0.3409  0.2150
10838TIP3    H154005   2.581   4.396   5.783 -0.0290 -1.7544  0.4496
10838TIP3    H254006   2.657   4.410   5.653  0.9821 -2.2416  0.9734
10839TIP3   OH254007   6.841   2.256   2.910 -0.3018  0.1122  0.2771
10839TIP3    H154008   6.891   2.332   2.880  1.9192 -1.7528 -0.9812
10839TIP3    H254009   6.883   2.229   2.992  1.1776 -1.7512 -1.0288
10840TIP3   OH254010   1.341   1.382  13.958  0.1598  0.2896 -0.0047
10840TIP3    H154011   1.366   1.473  13.941 -1.4765  0.8520  0.4858
10840TIP3    H254012   1.248   1.378  13.939  0.3049 -1.4474 -0.5750
10841TIP3   OH254013   0.825   3.693  11.316  0.0072 -0.0123  0.1728
10841TIP3    H154014   0.807   3.709  11.223  1.2403  2.1326  0.2348
10841TIP3    H254015   0.742   3.712  11.360  0.1853  1.9676 -0.2529
10842TIP3   OH254016   6.516   3.271  16.001 -0.4195 -0.0157 -0.1647
10842TIP3    H154017   6.571   3.238  16.072 -1.6848 -2.0976 -0.0405
10842TIP3    H254018   6.577   3.297  15.932  0.7622  0.1593  0.9196
10843TIP3   OH254019   2.531   5.255  16.127 -0.0991 -0.2255  0.1000
10843TIP3    H154020   2.452   5.295  16.164  1.0062 -0.3637  2.9044
10843TIP3    H254021   2.520   5.161  16.141  0.4399 -0.2649  0.2981
10844TIP3   OH254022   1.061   2.151   6.539  0.2947 -0.1751  0.3916
10844TIP3    H154023   1.068   2.058   6.560 -2.1207 -0.4596  0.2682
10844TIP3    H254024   1.027   2.154   6.450 -1.5725  0.7307  1.0764
10845TIP3   OH254025   5.019   2.612   6.278 -0.5719  0.0869  0.1884
10845TIP3    H154026   4.950   2.608   6.212  2.3823 -0.7380 -3.1184
10845TIP3    H254027   5.010   2.531   6.327 -3.2809  1.0514  1.4848
10846TIP3   OH254028   4.402   0.660   4.190 -0.3379  0.2476 -0.0801
10846TIP3    H154029   4.380   0.659   4.097 -0.0147 -1.2117 -0.1566
10846TIP3    H254030   4.327   0.619   4.233 -0.4790  0.9030  0.3218
10847TIP3   OH254031   3.505   6.159   2.069 -0.0899  0.3767  0.1776
10847TIP3    H154032   3.489   6.223   2.139 -0.4480 -0.0198  0.4620
10847TIP3    H254033   3.600   6.145   2.071 -0.2783 -1.0837  1.8956
10848TIP3   OH254034   5.507   1.518   5.538  0.7733  0.1655  0.7769
10848TIP3    H154035   5.577   1.583   5.541  0.7595  0.1980  0.3761
10848TIP3    H254036   5.427   1.570   5.537  0.7720  0.1554 -0.0133
10849TIP3   OH254037   0.515   5.870  11.671 -0.1771  0.4853  0.1798
10849TIP3    H154038   0.590   5.928  11.683  0.0091  0.2927 -0.0418
10849TIP3    H254039   0.460   5.885  11.749 -0.2384  1.1124  0.0226
10850TIP3   OH254040   3.533   4.902   2.017  0.4702  0.3840  0.2437
10850TIP3    H154041   3.481   4.922   2.095  0.6079  0.4733  0.3112
10850TIP3    H254042   3.602   4.968   2.016  0.7381  0.1077  0.2946
10851TIP3   OH254043   1.466   0.156   5.058 -0.4224  0.2290 -0.0957
10851TIP3    H154044   1.522   0.083   5.084  1.7228  2.7534  3.2364
10851TIP3    H254045   1.506   0.191   4.978  2.1980  1.2158  1.5377
10852TIP3   OH254046   3.643   5.240  12.775  0.0673  0.1765  0.2507
10852TIP3    H154047   3.693   5.259  12.855 -0.2832 -2.1540  1.0751
10852TIP3    H254048   3.552   5.233  12.805 -0.2904  0.7812 -0.6466
10853TIP3   OH254049   4.840   1.178  11.756 -0.0401  0.4440 -0.3785
10853TIP3    H154050   4.899   1.216  11.691 -0.3457 -0.0113 -0.9280
10853TIP3    H254051   4.845   1.238  11.830  1.3979  0.2056 -0.2651
10854TIP3   OH254052   3.564   4.744  12.391  0.1045  0.4690 -0.2080
10854TIP3    H154053   3.563   4.720  12.298  0.0727 -0.5777  0.0552
10854TIP3    H254054   3.474   4.731  12.420  0.4922 -0.9916  0.4013
10855TIP3   OH254055   6.246   1.873  15.772 -0.5647 -0.6645  0.1657
10855TIP3    H154056   6.324   1.827  15.803  0.0189  1.2574  1.7822
10855TIP3    H254057   6.188   1.804  15.740  1.3394 -2.2367 -0.0704
10856TIP3   OH254058   2.301   1.292  11.192  0.5434 -0.0167  0.1073
10856TIP3    H154059   2.392   1.265  11.206  0.5309 -0.5620 -0.7785
10856TIP3    H254060   2.294   1.378  11.233  1.2596 -0.2916  0.8231
10857TIP3   OH254061   4.012   2.538   3.868 -0.4411 -0.1352 -0.3677
10857TIP3    H154062   3.969   2.474   3.925 -1.9972  0.9505 -0.2602
10857TIP3    H254063   4.024   2.615   3.923  1.6711 -0.3591 -0.4163
10858TIP3   OH254064   2.801   1.955  11.749 -0.2153  0.1728  0.3996
10858TIP3    H154065   2.877   1.936  11.694  0.0420 -0.0121  0.8104
10858TIP3    H254066   2.817   2.044  11.781 -0.3572  0.2745  0.1893
10859TIP3   OH254067   4.080   1.896   2.462  0.1019  0.1212 -0.4227
10859TIP3    H154068   4.144   1.923   2.397  0.3060 -1.3560 -0.8862
10859TIP3    H254069   4.130   1.843   2.524 -0.5178 -0.4463 -0.3907
10860TIP3   OH254070   2.849   6.290  11.537  0.3886 -0.5186 -0.2269
10860TIP3    H154071   2.860   6.219  11.600  0.1610  0.7705  1.3549
10860TIP3    H254072   2.756   6.310  11.538  0.4406 -0.2257 -0.6995
10861TIP3   OH254073   4.275   2.300  13.475  0.3793 -0.1185 -0.3193
10861TIP3    H154074   4.362   2.332  13.500  0.6929 -1.2862  0.1159
10861TIP3    H254075   4.262   2.221  13.527  0.1241 -1.3827 -2.2006
10862TIP3   OH254076   0.485   5.131  11.524 -0.4993 -0.2629 -0.1935
10862TIP3    H154077   0.510   5.224  11.525 -1.2593 -0.0258 -1.5423
10862TIP3    H254078   0.488   5.106  11.432  2.6063 -2.4265  0.3436
10863TIP3   OH254079   5.427   4.619   2.222 -0.0793  0.5267  0.4325
10863TIP3    H154080   5.370   4.674   2.276 -0.0885  1.3474 -0.3855
10863TIP3    H254081   5.511   4.621   2.267  0.2804  2.2970 -0.2356
10864TIP3   OH254082   4.798   5.644   2.855 -0.0911 -0.0045  0.4369
10864TIP3    H154083   4.871   5.659   2.795 -1.0992  0.7669 -0.6519
10864TIP3    H254084   4.773   5.732   2.884 -1.7160 -0.0593 -0.6481
10865TIP3   OH254085   5.647   1.886   3.548  0.2165 -0.3742  0.3637
10865TIP3    H154086   5.699   1.879   3.468  2.4198 -0.0839  1.6714
10865TIP3    H254087   5.712   1.883   3.619 -1.2563  2.6191  2.0487
10866TIP3   OH254088   3.926   1.103  12.399 -0.0636 -0.0945 -0.1453
10866TIP3    H154089   4.013   1.107  12.360 -0.3745 -1.5887 -1.0676
10866TIP3    H254090   3.898   1.012  12.387 -0.8591 -0.2246  2.1342
10867TIP3   OH254091   0.155   1.327  12.071  0.2286 -0.1187 -0.2363
10867TIP3    H154092   0.139   1.258  12.007 -1.4525  0.8793 -0.9796
10867TIP3    H254093   0.073   1.377  12.072  1.5027  2.0895 -0.0287
10868TIP3   OH254094   2.202   4.890   5.459 -0.1905 -0.4027 -0.4132
10868TIP3    H154095   2.293   4.914   5.476 -0.7722  0.2133  2.2027
10868TIP3    H254096   2.197   4.796   5.479 -0.2333 -0.3336 -0.1026
10869TIP3   OH254097   3.649   5.134  11.304 -0.2372 -0.1639 -0.0954
10869TIP3    H154098   3.720   5.199  11.302  0.0404 -0.4730 -0.6936
10869TIP3    H254099   3.570   5.186  11.293 -0.1169  0.1957  0.6662
10870TIP3   OH254100   4.855   6.787  13.861  0.4379  0.4024 -0.1812
10870TIP3    H154101   4.914   6.712  13.853  1.1124  0.7818  1.0519
10870TIP3    H254102   4.845   6.819  13.771  1.8763  0.1474 -0.4476
10871TIP3   OH254103   6.639   3.348   0.016  0.0576 -0.1810 -0.0402
10871TIP3    H154104   6.585   3.295  -0.043  0.9342  0.6287 -1.6364
10871TIP3    H254105   6.585   3.425   0.035  0.3078  0.2409 -0.9750
10872TIP3   OH254106   3.718   5.058  13.706 -0.4049 -0.1510  0.2226
10872TIP3    H154107   3.788   5.010  13.661 -0.0746  0.6938 -0.1929
10872TIP3    H254108   3.765   5.116  13.766 -0.7971 -0.3696  0.7393
10873TIP3   OH254109   6.062   5.134  16.769 -0.1074 -0.6206 -0.3525
10873TIP3    H154110   6.149   5.130  16.807 -0.0141 -0.2968 -0.5244
10873TIP3    H254111   6.007   5.083  16.828 -0.0696  0.3338  0.5248
10874TIP3   OH254112   3.339   3.157   5.256  0.1802 -0.0071 -0.2012
10874TIP3    H154113   3.350   3.248   5.282 -0.7112 -0.0260  0.2817
10874TIP3    H254114   3.248   3.151   5.227  0.0965 -0.8327  0.1968
10875TIP3   OH254115   3.973   5.306   4.271 -0.2104 -0.2347  0.0956
10875TIP3    H154116   3.997   5.306   4.364  1.0251 -0.5692 -0.2042
10875TIP3    H254117   4.031   5.371   4.232  0.1425 -0.9979 -0.6538
10876TIP3   OH254118   5.714   0.434   5.312 -0.0617 -0.0511  0.0853
10876TIP3    H154119   5.742   0.446   5.221  0.0542  0.4792  0.1919
10876TIP3    H254120   5.746   0.346   5.335 -0.3136 -0.2873 -0.4639
10877TIP3   OH254121   4.257   4.487   0.746  0.3710  0.4816  0.5355
10877TIP3    H154122   4.316   4.559   0.768  1.1315  0.5667 -1.5545
10877TIP3    H254123   4.234   4.501   0.654  0.2338 -1.7138  0.1718
10878TIP3   OH254124   6.692   3.751  16.992 -0.1034  0.0185 -0.2781
10878TIP3    H154125   6.623   3.778  16.932  0.0349  1.6243  0.2207
10878TIP3    H254126   6.646   3.724  17.071 -0.2206 -0.5094 -0.5263
10879TIP3   OH254127   2.157   6.742  11.291 -0.0784 -0.1619  0.3658
10879TIP3    H154128   2.099   6.780  11.225  1.0379 -0.1782 -0.6505
10879TIP3    H254129   2.234   6.799  11.292  0.3239 -0.7000  0.9818
10880TIP3   OH254130   3.157   6.530   4.319 -0.3756 -0.1949 -0.2679
10880TIP3    H154131   3.092   6.545   4.388 -1.9872 -1.5559 -1.4310
10880TIP3    H254132   3.212   6.609   4.321 -1.3219  0.4783  1.5306
10881TIP3   OH254133   5.634   0.706   5.320  0.1539  0.0465  0.1849
10881TIP3    H154134   5.684   0.626   5.301  0.7060  0.0674  1.4438
10881TIP3    H254135   5.596   0.691   5.407 -1.6096  0.2594 -0.5142
10882TIP3   OH254136   5.872   4.459   1.955  0.3280  0.5180 -0.2299
10882TIP3    H154137   5.787   4.500   1.945  0.3333  0.2683 -1.3883
10882TIP3    H254138   5.924   4.523   2.003 -0.9445  0.0287  1.9269
10883TIP3   OH254139   5.261   0.159  14.686  0.1970  0.0973 -0.4603
10883TIP3    H154140   5.304   0.244  14.693 -2.2211  1.4492 -0.7449
10883TIP3    H254141   5.168   0.178  14.699 -0.3609 -2.6514  0.3832
10884TIP3   OH254142   4.096   2.030  11.747 -0.0063 -0.1524 -0.2662
10884TIP3    H154143   4.071   1.966  11.680  1.9344 -0.6975 -0.5231
10884TIP3    H254144   4.021   2.090  11.751 -0.8359 -1.0121 -1.7813
10885TIP3   OH254145   1.977   5.197   4.502 -0.0357  0.2554 -0.2846
10885TIP3    H154146   2.071   5.181   4.493 -0.0640  0.3457 -0.7522
10885TIP3    H254147   1.937   5.138   4.438 -0.2912  0.3238 -0.1881
10886TIP3   OH254148   2.411   1.825   4.599  0.1343  0.3988  0.7439
10886TIP3    H154149   2.448   1.817   4.511 -0.6127 -0.8126  0.5191
10886TIP3    H254150   2.466   1.769   4.653 -1.6140 -1.8833  0.2992
10887TIP3   OH254151   4.753   0.475  12.593  0.2852  0.0395 -1.0843
10887TIP3    H154152   4.665   0.491  12.560  0.3788 -0.2212 -1.4757
10887TIP3    H254153   4.809   0.483  12.515  0.5347 -0.4010 -0.9529
10888TIP3   OH254154   1.573   3.294   5.085  0.5419  0.3780 -0.4503
10888TIP3    H154155   1.520   3.221   5.117  0.7931  0.1820 -0.4771
10888TIP3    H254156   1.581   3.353   5.160 -0.8326  1.0634 -0.8233
10889TIP3   OH254157   4.357   0.405  13.250  0.3136  0.3993 -0.6151
10889TIP3    H154158   4.291   0.414  13.181 -1.1864  1.0650  0.8151
10889TIP3    H254159   4.389   0.315  13.241 -1.2547 -0.1585 -0.9843
10890TIP3   OH254160   6.559   3.491   3.573  0.0502  0.4442 -0.1027
10890TIP3    H154161   6.572   3.537   3.656  1.5347  0.5578 -0.3737
10890TIP3    H254162   6.583   3.555   3.506 -0.5135  0.1425 -0.6049
10891TIP3   OH254163   6.340   4.127  13.448  0.2829  0.5317  0.6908
10891TIP3    H154164   6.324   4.190  13.377 -0.9635  0.4102  0.8365
10891TIP3    H254165   6.273   4.059  13.434  0.5708  0.0802  1.4887
10892TIP3   OH254166   1.280   5.606  11.582  0.1794  0.3412 -0.4158
10892TIP3    H154167   1.201   5.616  11.529 -1.9673 -0.4320  2.4292
10892TIP3    H254168   1.261   5.533  11.641  1.8551  1.9319  2.2953
10893TIP3   OH254169   0.022   1.361  13.494 -0.4672 -0.5812  0.2132
10893TIP3    H154170   0.086   1.325  13.555  0.9253  0.9209 -0.2813
10893TIP3    H254171   0.056   1.449  13.473 -1.8763 -0.3453 -1.2742
10894TIP3   OH254172   0.725   1.392   1.996 -0.4276 -0.0978 -0.3336
10894TIP3    H154173   0.658   1.443   1.950 -1.5035 -1.5747 -0.4885
10894TIP3    H254174   0.808   1.419   1.957 -1.2343 -0.8415 -2.7553
10895TIP3   OH254175   5.660   2.724  16.149 -0.5817 -0.0036 -0.1778
10895TIP3    H154176   5.617   2.665  16.088 -0.7298 -1.0089  0.8873
10895TIP3    H254177   5.731   2.672  16.188  1.6706  1.5811 -1.8770
10896TIP3   OH254178   6.348   5.414   6.441 -0.2675 -0.1125  0.6770
10896TIP3    H154179   6.360   5.504   6.414  1.4427  0.4658  3.0279
10896TIP3    H254180   6.434   5.387   6.475 -1.2221 -1.9339  1.8292
10897TIP3   OH254181   5.616   4.006  15.550  0.0415  0.7854 -0.6973
10897TIP3    H154182   5.544   3.971  15.498 -0.6171 -1.4219  1.5146
10897TIP3    H254183   5.687   3.942  15.539  0.6761  1.4568 -0.6061
10898TIP3   OH254184   6.265   5.271   1.057  0.8406 -0.1078  0.3675
10898TIP3    H154185   6.301   5.190   1.021  0.1830 -0.6865  0.9996
10898TIP3    H254186   6.180   5.280   1.014  1.1790  0.6032 -0.1865
10899TIP3   OH254187   4.787   4.127  11.540 -0.8998  0.0865  0.0730
10899TIP3    H154188   4.880   4.122  11.518 -1.0916  0.7147 -0.9307
10899TIP3    H254189   4.749   4.048  11.501 -1.1979  1.0783 -1.7738
10900TIP3   OH254190   0.243   2.626  12.810  0.0562  0.2510 -0.0023
10900TIP3    H154191   0.271   2.684  12.739  0.7343 -0.6999 -0.5384
10900TIP3    H254192   0.293   2.545  12.796 -1.5628 -0.8306  0.1322
10901TIP3   OH254193   4.780   1.230   1.155 -0.0234 -0.4267 -0.3597
10901TIP3    H154194   4.869   1.263   1.143 -0.2523  0.1264 -0.5985
10901TIP3    H254195   4.765   1.235   1.249 -0.2968  0.8522 -0.4478
10902TIP3   OH254196   4.665   0.418  13.536  0.7065 -0.5371  0.6942
10902TIP3    H154197   4.633   0.337  13.575  1.9107 -1.5067 -0.2185
10902TIP3    H254198   4.760   0.413  13.545  0.9706 -0.3295 -1.3663
10903TIP3   OH254199   5.955   3.284  10.399 -0.1359  0.0659  0.2782
10903TIP3    H154200   6.029   3.282  10.460 -1.2123  1.0905  1.6634
10903TIP3    H254201   5.933   3.377  10.392 -1.7678 -0.2901  0.4639
10904TIP3   OH254202   4.161   0.051   0.431 -0.1606 -0.8727  0.3977
10904TIP3    H154203   4.147   0.136   0.473  0.2498 -0.9222  0.6409
10904TIP3    H254204   4.199   0.072   0.346  2.1608 -0.8662  1.3644
10905TIP3   OH254205   3.447   0.596   1.252  0.1156 -0.3764  0.3955
10905TIP3    H154206   3.394   0.517   1.264  0.3589 -0.3318  2.1036
10905TIP3    H254207   3.464   0.627   1.342  0.1424  1.5408 -0.2189
10906TIP3   OH254208   3.177   3.392   1.262 -0.3466  0.1866 -1.0275
10906TIP3    H154209   3.271   3.378   1.259  0.4163  3.2143  2.2081
10906TIP3    H254210   3.164   3.480   1.227 -1.9329 -0.0164 -1.0492
10907TIP3   OH254211   1.218   6.507  16.228  0.1518  0.0215  0.8019
10907TIP3    H154212   1.266   6.576  16.182  0.3846  0.5166  1.7678
10907TIP3    H254213   1.247   6.514  16.319  1.6188 -2.5828  0.6328
10908TIP3   OH254214   6.844   5.536  17.084 -0.0351 -0.3261 -0.1658
10908TIP3    H154215   6.892   5.597  17.139 -0.7692  0.7052 -0.6356
10908TIP3    H254216   6.859   5.450  17.123  0.0924  0.2938  1.1744
10909TIP3   OH254217   4.020   2.727  10.256 -0.5429 -0.0242  0.4852
10909TIP3    H154218   4.011   2.822  10.245 -2.4912 -0.1930  0.3858
10909TIP3    H254219   4.043   2.716  10.348 -2.5128  0.4651  1.0744
10910TIP3   OH254220   0.527   3.004  11.835  0.4837  0.0419  0.2064
10910TIP3    H154221   0.620   2.991  11.814  0.5911  2.4624 -1.3016
10910TIP3    H254222   0.491   3.046  11.756 -1.7143 -0.1296  1.0502
10911TIP3   OH254223   1.566   4.603  15.219 -0.6383 -0.4484 -0.3718
10911TIP3    H154224   1.650   4.612  15.173  0.1796 -0.5136  1.0371
10911TIP3    H254225   1.502   4.587  15.149  1.0469 -4.2047 -1.3426
10912TIP3   OH254226   6.492   4.284  12.213 -0.8221 -0.5529 -0.1223
10912TIP3    H154227   6.586   4.300  12.202 -1.1529  0.0770 -2.6315
10912TIP3    H254228   6.484   4.189  12.215 -0.1842 -0.6346 -0.8110
10913TIP3   OH254229   4.347   1.273   3.616 -0.1443  0.0818  0.5888
10913TIP3    H154230   4.425   1.326   3.635  0.2646  1.6077 -4.0391
10913TIP3    H254231   4.280   1.337   3.594 -0.9200 -1.2484 -1.0969
10914TIP3   OH254232   3.333   0.020  11.548  0.2813 -0.1275  0.2141
10914TIP3    H154233   3.278   0.094  11.576  0.0508 -0.4852  0.7267
10914TIP3    H254234   3.275  -0.034  11.494  0.4416  0.0569 -0.1373
10915TIP3   OH254235   6.409   5.491  13.346  0.4282  0.1863 -0.3311
10915TIP3    H154236   6.348   5.480  13.419  1.3478  0.1355  0.4553
10915TIP3    H254237   6.476   5.424  13.360 -0.1553 -0.8261 -2.0734
10916TIP3   OH254238   3.246   5.708  16.253  0.0159  0.0475  0.5427
10916TIP3    H154239   3.316   5.665  16.205  0.9512  2.3208 -0.2177
10916TIP3    H254240   3.249   5.799  16.225 -4.0307  0.0564 -0.4582
10917TIP3   OH254241   4.087   2.233   4.305 -0.7626 -0.1709  0.1419
10917TIP3    H154242   4.058   2.280   4.383  0.5226  0.0200  0.5377
10917TIP3    H254243   4.042   2.277   4.233  0.8174  2.1403  0.4429
10918TIP3   OH254244   4.767   2.921   0.089 -0.2681  0.3500 -0.0346
10918TIP3    H154245   4.700   2.879   0.035 -1.0229  0.1087  1.0580
10918TIP3    H254246   4.803   2.850   0.142  0.8053  0.4945 -0.5497
10919TIP3   OH254247   6.104   1.602  15.175 -0.4430  0.6387 -0.0719
10919TIP3    H154248   6.171   1.543  15.141 -0.8978 -1.2035  2.0170
10919TIP3    H254249   6.021   1.563  15.147 -0.7245  1.4841 -0.4484
10920TIP3   OH254250   1.747   6.272   5.343 -0.1070 -0.2309  0.6016
10920TIP3    H154251   1.717   6.363   5.349 -0.1105 -0.1018 -1.0812
10920TIP3    H254252   1.751   6.254   5.250  0.2935 -1.8462  0.9073
10921TIP3   OH254253   3.036   4.808  10.592 -0.1746 -0.4648  0.3452
10921TIP3    H154254   3.112   4.772  10.545 -0.9998 -0.4815 -1.0333
10921TIP3    H254255   2.984   4.731  10.615 -0.5706 -0.3506 -0.1539
10922TIP3   OH254256   1.545   4.899   3.988  0.8681 -0.1454 -0.0543
10922TIP3    H154257   1.596   4.829   3.946  0.1304  0.2371 -1.6784
10922TIP3    H254258   1.502   4.944   3.915 -0.1066  0.8740  1.1086
10923TIP3   OH254259   0.870   2.445   4.082  0.2719  0.1757 -0.1057
10923TIP3    H154260   0.810   2.504   4.036  0.3216 -0.9994 -1.7349
10923TIP3    H254261   0.949   2.445   4.029  0.3124 -1.2428 -0.0867
10924TIP3   OH254262   5.018   1.641   1.904  0.2410 -0.1074 -0.0377
10924TIP3    H154263   5.017   1.603   1.817  0.6687  2.0761 -1.0645
10924TIP3    H254264   4.980   1.728   1.893 -2.1329 -0.6545  2.4537
10925TIP3   OH254265   3.712   1.475  15.329 -0.2992 -0.0803 -0.3011
10925TIP3    H154266   3.737   1.456  15.239  1.3932 -1.2496  0.3559
10925TIP3    H254267   3.790   1.517  15.367 -1.2644  1.1144  0.4113
10926TIP3   OH254268   4.669   1.475  14.775 -0.0117 -0.0572  0.3940
10926TIP3    H154269   4.653   1.396  14.724 -1.9754 -0.6165  1.7295
10926TIP3    H254270   4.726   1.446  14.847 -0.4298 -0.2052  0.6738
10927TIP3   OH254271   4.263   2.480  14.036 -0.2049 -0.1729  0.1147
10927TIP3    H154272   4.274   2.441  14.123  0.5814 -1.1023 -0.3753
10927TIP3    H254273   4.348   2.467  13.994 -0.6254  0.1265 -0.8403
10928TIP3   OH254274   2.502   2.212   0.687  0.3182 -0.0411  0.7260
10928TIP3    H154275   2.581   2.181   0.643  1.2965  1.8530  1.0459
10928TIP3    H254276   2.505   2.171   0.774 -0.0218 -1.3762  0.1312
10929TIP3   OH254277   6.179   6.473   5.705 -0.0553 -0.4219 -0.4126
10929TIP3    H154278   6.143   6.557   5.735  0.5634  0.4052 -1.8773
10929TIP3    H254279   6.124   6.407   5.748 -2.1258  0.7654 -1.0660
10930TIP3   OH254280   4.517   6.678  15.962 -0.1521  0.8697  0.3421
10930TIP3    H154281   4.504   6.756  15.908 -0.7612  0.0760 -0.7022
10930TIP3    H254282   4.441   6.622  15.942  1.2440 -0.8439 -0.4625
10931TIP3   OH254283   3.961   4.346   0.030  0.5904  0.0155  0.4623
10931TIP3    H154284   4.012   4.374   0.105  1.5062 -2.2025  0.7614
10931TIP3    H254285   4.023   4.342  -0.042  0.4969 -1.0974  0.4262
10932TIP3   OH254286   1.069   3.984   3.553  0.8075  0.4455  0.3658
10932TIP3    H154287   1.078   4.035   3.472 -1.5660  0.7002  0.1881
10932TIP3    H254288   1.117   3.903   3.535  1.4140  1.0254 -0.8026
10933TIP3   OH254289   3.669   1.626   0.255 -0.1755 -0.8919  0.4259
10933TIP3    H154290   3.632   1.594   0.172 -1.9276  1.5802  0.1378
10933TIP3    H254291   3.593   1.637   0.312  0.6982 -0.0907  1.4629
10934TIP3   OH254292   1.443   0.227  13.360  0.0701 -0.1150  0.2547
10934TIP3    H154293   1.438   0.317  13.392 -0.0344  0.6399 -1.7602
10934TIP3    H254294   1.354   0.193  13.370 -0.3675  0.6803 -0.7373
10935TIP3   OH254295   0.391   6.300  12.987  0.4832 -0.2691  0.0137
10935TIP3    H154296   0.315   6.256  12.949  0.0196 -1.5844  2.2819
10935TIP3    H254297   0.449   6.229  13.013  2.6860  0.7135 -1.8583
10936TIP3   OH254298   3.996   2.691   5.686 -0.3190 -0.5616 -0.3864
10936TIP3    H154299   4.027   2.711   5.598 -0.0808  1.9141  0.1999
10936TIP3    H254300   3.927   2.755   5.703 -0.9227 -1.5150  0.9486
10937TIP3   OH254301   3.739   2.221  11.429  0.1784  0.2992  0.9962
10937TIP3    H154302   3.654   2.231  11.385  1.1274  1.9678 -0.5784
10937TIP3    H254303   3.717   2.218  11.522 -1.5695  1.5688  0.6717
10938TIP3   OH254304   4.615   0.494   3.741 -0.0255 -0.7706  0.1519
10938TIP3    H154305   4.608   0.549   3.663 -1.7307 -0.6861  0.3351
10938TIP3    H254306   4.634   0.407   3.707  1.4017 -0.3402 -0.2125
10939TIP3   OH254307   5.080   0.667  15.933  0.1507 -0.5107 -0.3136
10939TIP3    H154308   5.141   0.604  15.970  0.7632  0.1235 -0.2354
10939TIP3    H254309   5.120   0.695  15.851  0.2830  0.3854  0.0468
10940TIP3   OH254310   3.784   2.193   1.014 -0.3098 -0.1853 -0.7761
10940TIP3    H154311   3.855   2.243   1.054 -0.2434  0.6513 -1.8778
10940TIP3    H254312   3.742   2.255   0.954  0.5618 -1.7452 -3.1521
10941TIP3   OH254313   2.634   1.409  12.628 -0.3029  0.5068 -0.5764
10941TIP3    H154314   2.681   1.382  12.549  0.2230 -2.0778  0.5014
10941TIP3    H254315   2.557   1.455  12.596  0.2367  0.1084 -2.5687
10942TIP3   OH254316   1.359   4.179  12.540  0.4332 -0.1016 -0.0873
10942TIP3    H154317   1.427   4.160  12.476  0.3889  0.0657 -0.1867
10942TIP3    H254318   1.405   4.225  12.611  0.4238  0.0098 -0.1533
10943TIP3   OH254319   6.285   3.589   3.667  0.5303 -0.0673  0.2983
10943TIP3    H154320   6.377   3.614   3.655  0.9933 -1.5173  0.6611
10943TIP3    H254321   6.288   3.496   3.689 -1.0085 -0.0460  0.6973
10944TIP3   OH254322   5.085   4.782   5.367  0.1752  0.3480 -0.3634
10944TIP3    H154323   5.105   4.841   5.439  0.3693 -1.2267  0.9226
10944TIP3    H254324   4.991   4.764   5.377 -0.3114  1.7881 -1.8392
10945TIP3   OH254325   3.946   4.518   6.446  0.1545 -0.1704  0.5469
10945TIP3    H154326   4.037   4.494   6.430  0.3185  0.5373  0.3844
10945TIP3    H254327   3.908   4.442   6.490  0.7073 -0.6384  0.2197
10946TIP3   OH254328   1.269   2.575  13.311 -0.1349  0.0625 -0.0294
10946TIP3    H154329   1.310   2.517  13.375  0.2681 -1.2184 -1.3783
10946TIP3    H254330   1.181   2.538  13.298 -0.1480  0.2023 -0.3465
10947TIP3   OH254331   6.161   6.128   3.021 -0.4835  0.0035  0.5167
10947TIP3    H154332   6.079   6.135   2.971 -0.7387 -0.3888  0.8699
10947TIP3    H254333   6.225   6.097   2.957 -0.3038  1.4909 -0.0590
10948TIP3   OH254334   6.398   1.979   3.752 -0.3668 -0.0406  0.7837
10948TIP3    H154335   6.486   1.955   3.782 -0.2273 -0.6540 -0.0793
10948TIP3    H254336   6.412   2.055   3.696 -0.4198 -0.0076  0.8147
10949TIP3   OH254337   5.609   1.888  11.224  0.1591 -0.2082 -0.6888
10949TIP3    H154338   5.562   1.813  11.186 -0.2351  0.3344 -1.2920
10949TIP3    H254339   5.649   1.853  11.303 -1.9916 -0.4921  0.3433
10950TIP3   OH254340   6.237   6.026  13.541 -0.3215  0.1522  0.2316
10950TIP3    H154341   6.263   5.949  13.490 -0.0789 -0.6399  1.5011
10950TIP3    H254342   6.285   6.018  13.624 -0.3023  1.6680  0.4055
10951TIP3   OH254343   2.522   4.736   0.714 -0.4487  0.4022  0.0499
10951TIP3    H154344   2.614   4.743   0.690 -0.4205 -1.1139 -0.3984
10951TIP3    H254345   2.474   4.765   0.636 -0.3775  2.1904  0.6396
10952TIP3   OH254346   0.896   3.110  15.167 -0.0526  0.1079  0.8687
10952TIP3    H154347   0.991   3.110  15.177 -0.0400  1.0010  0.8063
10952TIP3    H254348   0.881   3.151  15.082 -0.5222  0.7217  1.2405
10953TIP3   OH254349   1.813   2.882   4.970  0.2881 -0.1567 -0.2282
10953TIP3    H154350   1.821   2.805   4.914  2.0207 -0.0638 -0.1414
10953TIP3    H254351   1.810   2.956   4.908  0.8656 -0.1451 -0.2435
10954TIP3   OH254352   4.433   2.370   0.643  0.4336  0.4165 -0.2370
10954TIP3    H154353   4.480   2.451   0.662 -0.6998  0.9851  0.2251
10954TIP3    H254354   4.449   2.354   0.550 -0.5407  1.9908 -0.7121
10955TIP3   OH254355   5.274   4.827  10.947 -0.3473  0.2196  0.2499
10955TIP3    H154356   5.320   4.867  10.873  2.4078  3.3837  3.3248
10955TIP3    H254357   5.183   4.819  10.917  0.3965  2.2565 -3.0864
10956TIP3   OH254358   6.032   2.642   3.762  0.4587 -0.0143 -0.1197
10956TIP3    H154359   5.972   2.716   3.753 -1.2929 -1.4599 -0.9905
10956TIP3    H254360   6.069   2.653   3.850 -0.4403  1.3865  0.1283
10957TIP3   OH254361   1.950   6.476   6.022  0.3130  0.3398  0.1718
10957TIP3    H154362   1.975   6.521   5.941  0.4334  0.7179  0.4190
10957TIP3    H254363   2.026   6.420   6.042 -0.0295 -0.3496 -0.3948
10958TIP3   OH254364   5.665   6.213   5.671  0.6100  0.0997  0.3696
10958TIP3    H154365   5.727   6.283   5.650  0.1057 -0.2923 -3.0465
10958TIP3    H254366   5.581   6.243   5.637  0.5278 -2.3378 -1.9648
10959TIP3   OH254367   1.923   3.850  16.151 -0.4443 -0.0987  0.4903
10959TIP3    H154368   1.896   3.882  16.237 -1.8695 -0.3935  0.1686
10959TIP3    H254369   1.852   3.793  16.123  0.3964 -0.6699 -0.5274
10960TIP3   OH254370   3.333   3.982   5.002  0.3599  0.7847  0.1450
10960TIP3    H154371   3.305   4.058   5.054 -2.8206 -0.4521  0.4991
10960TIP3    H254372   3.254   3.929   4.993  2.2545 -2.1452 -0.7420
10961TIP3   OH254373   3.815   2.724   0.916 -0.0785  0.2040  0.1186
10961TIP3    H154374   3.758   2.798   0.897 -1.3782 -1.0962 -1.4077
10961TIP3    H254375   3.774   2.680   0.991  0.9541  1.2344  1.3319
10962TIP3   OH254376   5.333   0.304   4.822 -0.3614 -0.5848  0.4957
10962TIP3    H154377   5.258   0.315   4.881 -1.5562  0.2606 -1.1098
10962TIP3    H254378   5.385   0.382   4.836 -1.5612  0.4911 -0.7805
10963TIP3   OH254379   5.610   1.346  16.949 -0.2898 -0.0477  0.0409
10963TIP3    H154380   5.548   1.374  17.016 -3.0234  0.2034 -2.4260
10963TIP3    H254381   5.629   1.426  16.899  2.3835 -0.0463  0.9027
10964TIP3   OH254382   1.698   1.350  12.504  0.2696  0.0973  0.9588
10964TIP3    H154383   1.641   1.281  12.471  0.0917 -0.0611  1.5829
10964TIP3    H254384   1.785   1.326  12.472 -0.2323  1.3599 -1.6427
10965TIP3   OH254385   3.906   6.040   5.659  0.1710 -0.0469 -0.1681
10965TIP3    H154386   3.998   6.017   5.644  0.7956  1.8373  0.5528
10965TIP3    H254387   3.879   5.984   5.732  0.7631 -0.5411 -0.3139
10966TIP3   OH254388   0.148   4.239   2.590 -0.0244  0.0317 -0.5193
10966TIP3    H154389   0.100   4.297   2.531  0.7890  0.1980 -1.0284
10966TIP3    H254390   0.180   4.168   2.535  0.9499  0.3150 -0.3350
10967TIP3   OH254391   0.116   6.175   4.704  0.1809 -0.5446 -0.3488
10967TIP3    H154392   0.081   6.143   4.621  1.0670 -0.4208 -0.7846
10967TIP3    H254393   0.093   6.268   4.706  0.1934 -0.5388 -0.4724
10968TIP3   OH254394   2.673   1.990  12.844 -0.1561  0.6004  0.1627
10968TIP3    H154395   2.655   2.044  12.921  2.1870  0.3429  0.9904
10968TIP3    H254396   2.715   1.911  12.880 -0.4892 -0.2539 -1.2693
10969TIP3   OH254397   2.851   6.166  15.761 -0.1467 -0.7900 -0.3108
10969TIP3    H154398   2.766   6.209  15.755 -0.4800 -1.0200  1.8454
10969TIP3    H254399   2.915   6.238  15.764 -0.4604 -0.5245  0.1918
10970TIP3   OH254400   1.790   0.987  11.745  0.6479  0.1428  0.2606
10970TIP3    H154401   1.761   1.077  11.756 -0.0396 -0.0902  0.3614
10970TIP3    H254402   1.859   0.976  11.811 -0.1272  0.2250  1.1096
10971TIP3   OH254403   5.855   2.562   6.181 -0.1279  0.4380 -0.5261
10971TIP3    H154404   5.927   2.613   6.144  0.2829  0.1758 -0.1068
10971TIP3    H254405   5.853   2.587   6.274  0.8707 -1.1767 -0.0252
10972TIP3   OH254406   5.511   2.670  12.263  0.3332  0.4557  0.2527
10972TIP3    H154407   5.480   2.595  12.314 -0.2665  0.0262 -0.7194
10972TIP3    H254408   5.605   2.673  12.280  0.5060 -0.9975 -0.2986
10973TIP3   OH254409   2.389   0.192  12.787  0.0112 -0.2513 -0.0315
10973TIP3    H154410   2.369   0.101  12.764  0.1957 -0.0901 -0.8455
10973TIP3    H254411   2.303   0.230  12.808 -0.4750  0.1330 -2.4313
10974TIP3   OH254412   4.697   6.168   3.095  0.0141  0.1115  0.3244
10974TIP3    H154413   4.603   6.185   3.098 -0.0864 -0.1731 -0.8359
10974TIP3    H254414   4.734   6.241   3.045  0.1275 -0.7870 -0.9580
10975TIP3   OH254415   3.429   1.320   4.892  0.2003 -0.5069  0.2153
10975TIP3    H154416   3.356   1.364   4.848 -0.0404 -0.2996  0.8196
10975TIP3    H254417   3.393   1.236   4.920  0.1171 -0.2984  0.7410
10976TIP3   OH254418   5.776   6.421   2.546  0.2715 -0.1991 -0.0662
10976TIP3    H154419   5.827   6.484   2.597 -1.2668  2.3811 -1.4940
10976TIP3    H254420   5.695   6.409   2.597  1.0979 -2.2167  0.8849
10977TIP3   OH254421   5.236   3.187   2.118 -0.0700 -0.6644 -0.0374
10977TIP3    H154422   5.166   3.201   2.182 -0.0990  2.9876 -0.6649
10977TIP3    H254423   5.231   3.093   2.098 -2.0600 -1.3462  2.9455
10978TIP3   OH254424   4.879   6.467   4.017 -0.2890  0.1499  0.3953
10978TIP3    H154425   4.943   6.532   3.987  0.8181 -0.9096  0.3642
10978TIP3    H254426   4.817   6.459   3.945  0.4897  0.0094 -0.2713
10979TIP3   OH254427   4.338   5.417  14.715  0.4317  0.2688  0.0668
10979TIP3    H154428   4.277   5.377  14.777 -0.2149  2.7237  1.1592
10979TIP3    H254429   4.390   5.477  14.768  2.0838  0.0883 -1.2818
10980TIP3   OH254430   5.420   3.172   3.462 -0.4100 -0.1195  0.7690
10980TIP3    H154431   5.356   3.230   3.420 -0.2408  0.5437  1.4120
10980TIP3    H254432   5.447   3.219   3.541  1.8171  0.1843 -0.1202
10981TIP3   OH254433   0.865   3.639   3.364  0.2118  0.1509  0.1841
10981TIP3    H154434   0.914   3.587   3.427 -0.0985 -2.1749 -1.3783
10981TIP3    H254435   0.932   3.669   3.301  0.2705  1.0268  0.6447
10982TIP3   OH254436   4.345   0.199   2.238  0.1824 -0.4076  0.3427
10982TIP3    H154437   4.356   0.178   2.145 -1.3109 -0.8679  0.2483
10982TIP3    H254438   4.382   0.287   2.246  2.0980 -1.1016 -0.2585
10983TIP3   OH254439   1.365   3.018   2.351  0.6807  0.4607  0.1230
10983TIP3    H154440   1.429   3.062   2.295  1.4724 -0.9912 -0.1770
10983TIP3    H254441   1.298   2.987   2.290  0.7944  0.1370  0.1615
10984TIP3   OH254442   0.922   3.368   5.797 -0.3704 -0.2090 -0.1511
10984TIP3    H154443   0.942   3.288   5.844  0.1947  0.9919  1.7753
10984TIP3    H254444   0.835   3.393   5.828  0.5139  1.2530  1.3396
10985TIP3   OH254445   2.212   4.538   5.295  0.4337 -0.2541 -0.2432
10985TIP3    H154446   2.179   4.493   5.218  0.2267  0.6520 -0.6951
10985TIP3    H254447   2.166   4.498   5.368  1.0150 -1.4840 -0.5255
10986TIP3   OH254448   6.613   6.317   1.442  0.9037  0.1525 -0.0752
10986TIP3    H154449   6.592   6.390   1.384 -0.7825 -0.1980  0.0529
10986TIP3    H254450   6.629   6.356   1.527 -1.3156  0.3110  0.3172
10987TIP3   OH254451   6.049   2.908   3.506 -0.3525 -0.1034  0.9986
10987TIP3    H154452   5.994   2.869   3.574 -2.1841  1.7971  0.7161
10987TIP3    H254453   6.033   2.854   3.428  0.2956 -1.1502  1.5629
10988TIP3   OH254454   4.521   5.060   5.866  0.3507 -0.1567  0.4266
10988TIP3    H154455   4.540   5.107   5.785  0.1395  0.2160  0.5897
10988TIP3    H254456   4.568   4.977   5.858  1.1358  0.2902  0.3554
10989TIP3   OH254457   6.582   1.116  16.961 -0.0337 -0.4926 -0.4604
10989TIP3    H154458   6.520   1.044  16.966 -1.5129  0.7955  0.6802
10989TIP3    H254459   6.564   1.158  16.877 -0.8101 -0.0520 -0.0805
10990TIP3   OH254460   2.302   4.908  16.339  0.8128 -0.2274  0.4282
10990TIP3    H154461   2.376   4.939  16.391  0.9029  0.4265 -0.0806
10990TIP3    H254462   2.226   4.954  16.375  0.6046 -1.0198  1.0587
10991TIP3   OH254463   6.023   2.781  16.125 -0.2955 -0.2081  0.0626
10991TIP3    H154464   6.091   2.835  16.164  0.0882 -0.3326 -0.4216
10991TIP3    H254465   5.976   2.744  16.200 -0.1048  0.2189  0.3965
10992TIP3   OH254466   5.400   4.382  15.370  0.1384  0.7658 -0.6136
10992TIP3    H154467   5.445   4.338  15.442  2.4312  1.6962 -1.3760
10992TIP3    H254468   5.399   4.317  15.299 -1.7513 -0.0068  0.0633
10993TIP3   OH254469   5.461   5.035   0.626  0.3802  0.1785  0.0342
10993TIP3    H154470   5.390   5.097   0.609  1.7313  1.0346 -3.3673
10993TIP3    H254471   5.527   5.086   0.673 -0.0604  0.1977  0.6409
10994TIP3   OH254472   0.043   5.149  16.370  0.3100  0.1909  0.6383
10994TIP3    H154473   0.085   5.134  16.286 -1.4012  0.3243 -0.2940
10994TIP3    H254474   0.038   5.063  16.410  0.2522 -0.0319  0.1592
10995TIP3   OH254475   2.275   1.738   3.858  0.4645  0.3348 -0.3943
10995TIP3    H154476   2.336   1.798   3.816  0.9142 -1.0619 -1.8406
10995TIP3    H254477   2.331   1.679   3.909  0.1240  0.4445  0.1151
10996TIP3   OH254478   6.474   3.095  17.008  0.5800 -0.3950 -0.4683
10996TIP3    H154479   6.399   3.048  16.970 -0.1044 -0.3153  0.7104
10996TIP3    H254480   6.505   3.038  17.078  0.1130  0.5956  0.5950
10997TIP3   OH254481   5.338   5.362  15.184 -0.1816  0.4680  0.4212
10997TIP3    H154482   5.281   5.286  15.192 -0.0656  0.4952  1.7235
10997TIP3    H254483   5.357   5.369  15.090  1.8831 -2.6779  0.4662
10998TIP3   OH254484   3.869   4.590   2.986  0.0711  0.2922 -0.4644
10998TIP3    H154485   3.798   4.635   2.941 -1.2260  1.4405  2.4549
10998TIP3    H254486   3.834   4.503   3.006 -1.3676  1.4013  2.4544
10999TIP3   OH254487   6.467   5.979  15.609 -0.4882 -0.3921 -0.1312
10999TIP3    H154488   6.516   6.015  15.535  0.2160  1.0031  0.9627
10999TIP3    H254489   6.492   5.886  15.611  0.9292 -0.0507 -0.5454
11000TIP3   OH254490   0.894   0.350   3.468 -0.1012  0.2810 -0.2922
11000TIP3    H154491   0.939   0.400   3.535 -1.7535  0.0041  1.1146
11000TIP3    H254492   0.835   0.292   3.517 -1.0630 -0.2450 -1.9725
11001TIP3   OH254493   2.554   5.159   4.605 -0.1549 -0.0174 -0.1051
11001TIP3    H154494   2.647   5.177   4.617  0.8119 -2.6148 -2.4209
11001TIP3    H254495   2.532   5.199   4.521 -1.0525  0.2550  0.2440
11002TIP3   OH254496   5.991   3.983   5.043 -0.1482  0.1886 -0.2109
11002TIP3    H154497   5.924   4.052   5.046  0.6632  1.1260 -1.8635
11002TIP3    H254498   6.037   3.999   4.960  0.4256 -2.0342 -0.3676
11003TIP3   OH254499   0.680   6.236   0.719  0.4161 -0.1494 -0.4711
11003TIP3    H154500   0.673   6.180   0.641 -0.7221 -0.0715 -0.4409
11003TIP3    H254501   0.617   6.306   0.703  0.1939 -0.1219  0.5152
11004TIP3   OH254502   0.475   2.634   2.283 -0.3412  0.4171  0.1479
11004TIP3    H154503   0.458   2.625   2.189 -0.9329  1.3441  0.1572
11004TIP3    H254504   0.467   2.727   2.300  0.7193  0.3696  0.9544
11005TIP3   OH254505   4.051   0.044   0.859 -0.2278 -0.2222 -0.4412
11005TIP3    H154506   4.024   0.043   0.767 -0.5941  1.2574 -0.3767
11005TIP3    H254507   3.971   0.023   0.907  0.2665 -2.4490 -0.4623
11006TIP3   OH254508   5.268   1.066   2.286 -0.6146 -0.0437  0.3023
11006TIP3    H154509   5.226   1.138   2.240  0.4280  0.0560 -0.5310
11006TIP3    H254510   5.234   1.071   2.375  0.2167  2.1349  0.5650
11007TIP3   OH254511   4.999   3.587   5.887  0.5417  0.5110  0.0990
11007TIP3    H154512   5.029   3.517   5.944  1.7322  0.1272 -0.9692
11007TIP3    H254513   4.915   3.614   5.925  1.2156  0.1805  1.9306
11008TIP3   OH254514   2.013   3.969  13.698  0.3898  0.0290  0.2503
11008TIP3    H154515   2.013   3.951  13.792 -0.9740 -2.2991 -0.1088
11008TIP3    H254516   2.077   3.908  13.661  0.8565  0.8611 -0.3424
11009TIP3   OH254517   1.144   2.032  10.638 -0.0411 -0.5718  0.1393
11009TIP3    H154518   1.066   2.058  10.589  1.4106  1.3807 -1.3131
11009TIP3    H254519   1.179   1.957  10.590 -0.7074 -1.1140  0.4835
11010TIP3   OH254520   1.849   3.254   0.462  0.4433  0.2083 -0.4714
11010TIP3    H154521   1.912   3.250   0.534  1.3923  1.6280 -1.1723
11010TIP3    H254522   1.828   3.163   0.442  1.5571 -0.2533  0.4089
11011TIP3   OH254523   2.482   1.965  14.366  0.5893  0.3408  0.3160
11011TIP3    H154524   2.453   2.056  14.373  0.4150  0.2228  1.1674
11011TIP3    H254525   2.423   1.927  14.301 -0.3412  0.4463  1.0663
11012TIP3   OH254526   6.505   6.672   4.277  0.0630 -0.1669 -0.2974
11012TIP3    H154527   6.445   6.599   4.296 -0.1803  0.3576  1.0455
11012TIP3    H254528   6.504   6.725   4.357  1.4953  0.4355 -0.6591
11013TIP3   OH254529   1.584   1.854  14.221  0.1662  0.7748 -0.7343
11013TIP3    H154530   1.569   1.770  14.176 -0.0166  1.1036 -1.2949
11013TIP3    H254531   1.670   1.882  14.191  1.9119 -0.9309  2.2015
11014TIP3   OH254532   1.979   1.619  14.728 -0.4734  0.3170  0.7061
11014TIP3    H154533   1.999   1.657  14.642  0.2485 -0.2737  0.6093
11014TIP3    H254534   1.883   1.622  14.733 -0.4783  1.2201  0.2820
11015TIP3   OH254535   0.601   4.910  16.681 -0.0458  0.3101  0.0790
11015TIP3    H154536   0.587   4.859  16.601 -0.1235  0.6592 -0.1304
11015TIP3    H254537   0.696   4.918  16.689  0.0207 -0.9406  0.7917
11016TIP3   OH254538   6.630   3.766   0.732 -0.2781  0.0391  0.5272
11016TIP3    H154539   6.612   3.833   0.666 -0.2565 -0.6464 -0.1941
11016TIP3    H254540   6.601   3.684   0.692  0.2158 -0.4633  1.1653
11017TIP3   OH254541   3.303   6.229   2.801  0.6871 -0.1244 -0.1979
11017TIP3    H154542   3.264   6.253   2.886  0.0443  0.7969 -0.7316
11017TIP3    H254543   3.378   6.287   2.792 -0.2870  1.0315 -1.0457
11018TIP3   OH254544   6.097   5.982   2.115  0.4052 -0.2715  0.4663
11018TIP3    H154545   6.029   5.916   2.109  0.0046  0.1160  0.7161
11018TIP3    H254546   6.168   5.939   2.164  0.4492 -0.7589 -0.0237
11019TIP3   OH254547   0.014   5.163  12.682 -0.2923  0.2310 -0.1070
11019TIP3    H154548  -0.000   5.079  12.726  1.7789  0.1148  0.4380
11019TIP3    H254549   0.037   5.140  12.592  1.7408  0.0620  0.4030
11020TIP3   OH254550   1.449   5.262  15.541 -0.7558  0.4378  0.8236
11020TIP3    H154551   1.416   5.197  15.603 -3.5206  0.2395 -0.6988
11020TIP3    H254552   1.375   5.281  15.483  0.8728  2.6324 -0.7549
11021TIP3   OH254553   5.088   0.599  17.134 -0.1559 -0.2962  0.3011
11021TIP3    H154554   5.135   0.567  17.211  1.2113  0.0408 -0.3532
11021TIP3    H254555   5.028   0.529  17.111  2.3674 -2.2452 -0.7796
11022TIP3   OH254556   4.418   4.501   3.277 -0.2124 -0.5234 -0.2239
11022TIP3    H154557   4.356   4.488   3.349  0.0354  1.4324  0.4144
11022TIP3    H254558   4.497   4.535   3.319  1.1460 -2.4299 -1.0969
11023TIP3   OH254559   2.028   6.082   0.444  0.1704  0.0948  0.0276
11023TIP3    H154560   1.943   6.115   0.416 -0.5180 -2.1663 -0.7228
11023TIP3    H254561   2.018   5.987   0.448  2.3485 -0.1718  1.0282
11024TIP3   OH254562   0.839   5.604   3.024 -0.1889  0.0381 -0.9081
11024TIP3    H154563   0.857   5.544   3.097 -2.4873  0.6855  0.2794
11024TIP3    H254564   0.834   5.548   2.947  2.7133 -0.6170 -0.7556
11025TIP3   OH254565   6.635   0.589   4.241  0.0572  0.3236 -0.2488
11025TIP3    H154566   6.558   0.644   4.248  0.0312  0.5429 -1.8855
11025TIP3    H254567   6.601   0.500   4.234  0.0174  0.2836  0.4243
11026TIP3   OH254568   4.700   5.539  12.740 -0.5028  0.1986 -0.2360
11026TIP3    H154569   4.640   5.506  12.673 -0.3324 -0.2390 -0.1777
11026TIP3    H254570   4.662   5.623  12.767 -2.0434 -0.8294  1.0203
11027TIP3   OH254571   1.943   5.289   4.145 -0.6776  0.3139 -0.2403
11027TIP3    H154572   1.880   5.351   4.182  0.2448  1.8155 -1.0966
11027TIP3    H254573   2.016   5.290   4.207 -1.3901 -1.3358  0.6910
11028TIP3   OH254574   5.807   5.307   4.203  0.5814  0.1227 -0.0586
11028TIP3    H154575   5.772   5.368   4.137 -1.3467 -0.2517  0.5515
11028TIP3    H254576   5.748   5.316   4.278 -0.9105 -3.6561 -0.5379
11029TIP3   OH254577   6.495   5.052   3.824 -0.1395 -0.0769  0.2299
11029TIP3    H154578   6.461   4.965   3.804  0.2497  0.0130 -0.8416
11029TIP3    H254579   6.587   5.048   3.798  0.1722  0.3107  1.2287
11030TIP3   OH254580   1.173   0.113   2.863  0.0725  0.0105  0.3646
11030TIP3    H154581   1.081   0.133   2.878 -0.1094 -0.7153  0.2121
11030TIP3    H254582   1.193   0.154   2.779  0.3172  1.5199  1.1062
11031TIP3   OH254583   1.631   3.058   4.587  0.3101  0.4970  0.4964
11031TIP3    H154584   1.636   3.119   4.660  1.2900  0.4250  0.5076
11031TIP3    H254585   1.621   3.114   4.510 -1.9465  0.5337  0.7466
11032TIP3   OH254586   6.705   2.296   5.786  0.1859 -0.1116  0.8354
11032TIP3    H154587   6.776   2.234   5.765  0.0674  0.4002 -1.2840
11032TIP3    H254588   6.633   2.241   5.815  0.5845 -0.8566  0.4392
11033TIP3   OH254589   3.015   5.693   6.334  0.2773  0.4081  0.0908
11033TIP3    H154590   2.996   5.637   6.410  0.3883  0.7330  0.3617
11033TIP3    H254591   3.034   5.779   6.372  0.2298  0.5988 -0.3150
11034TIP3   OH254592   1.883   4.802   2.650 -0.8059  0.5237 -0.3167
11034TIP3    H154593   1.927   4.810   2.734 -1.2977  0.0184 -0.0025
11034TIP3    H254594   1.896   4.887   2.608  2.6482 -0.3755 -1.3674
11035TIP3   OH254595   2.902   3.076   5.501 -0.3810 -0.0413 -0.1725
11035TIP3    H154596   2.817   3.053   5.464 -0.4049 -0.4298  0.1247
11035TIP3    H254597   2.883   3.101   5.591 -0.0535 -1.1381  0.2185
11036TIP3   OH254598   1.029   0.926  14.795 -0.1524  0.3463 -0.0564
11036TIP3    H154599   0.976   0.963  14.725  0.9884 -0.9787 -1.6967
11036TIP3    H254600   1.102   0.987  14.804 -1.4999  1.8219  1.7549
11037TIP3   OH254601   1.123   2.854   5.897 -0.0517  0.3149  0.1262
11037TIP3    H154602   1.104   2.940   5.858 -2.4788  0.2990  1.0484
11037TIP3    H254603   1.047   2.837   5.954  0.9947 -1.8637  0.9795
11038TIP3   OH254604   5.729   2.847  11.521 -0.0217 -0.0460  0.0597
11038TIP3    H154605   5.742   2.759  11.486 -0.2879  0.4970 -1.4696
11038TIP3    H254606   5.783   2.849  11.600  0.9316 -1.2004 -0.5254
11039TIP3   OH254607   3.423   2.205   0.544  0.5769 -0.4546  0.6826
11039TIP3    H154608   3.460   2.130   0.591  0.1617 -1.0716  0.0504
11039TIP3    H254609   3.331   2.182   0.532  0.7084 -0.4140 -0.5993
11040TIP3   OH254610   4.581   3.414  14.984  0.1472 -0.2614 -0.4122
11040TIP3    H154611   4.662   3.418  14.933  1.0140 -0.5151  0.8830
11040TIP3    H254612   4.605   3.452  15.069 -0.9258 -0.9113  0.1992
11041TIP3   OH254613   4.394   3.854   2.809  0.1747 -0.1001  0.1550
11041TIP3    H154614   4.356   3.766   2.814  1.1933 -0.4814  2.4085
11041TIP3    H254615   4.363   3.898   2.888  1.5039  0.7759  0.2222
11042TIP3   OH254616   4.584   1.521  12.801  0.1981  0.3327  0.1799
11042TIP3    H154617   4.524   1.481  12.738  1.3320  0.0224 -0.7411
11042TIP3    H254618   4.540   1.602  12.827 -0.4968  0.2571 -0.6837
11043TIP3   OH254619   3.038   3.046   1.523  0.2256 -0.3530  0.1359
11043TIP3    H154620   3.128   3.013   1.520  0.1265 -0.6961  0.6425
11043TIP3    H254621   3.005   3.035   1.434  0.5868 -0.5097  0.0193
11044TIP3   OH254622   4.921   6.827  14.622 -0.6536 -0.6495  0.2705
11044TIP3    H154623   4.831   6.796  14.633 -1.0354  0.0446 -0.7410
11044TIP3    H254624   4.919   6.878  14.541  0.6586 -0.6307  0.2326
11045TIP3   OH254625   1.923   5.833  12.590 -0.4587 -0.3934 -0.0147
11045TIP3    H154626   1.915   5.760  12.529  0.7289  0.1937 -0.9087
11045TIP3    H254627   1.919   5.911  12.534  0.2567  0.1656  0.7049
11046TIP3   OH254628   3.048   1.088   3.980 -0.6072  0.7007  0.5641
11046TIP3    H154629   2.984   1.017   3.977 -0.4336  0.5389  0.6150
11046TIP3    H254630   3.029   1.135   4.061 -0.5430  0.5410  0.6720
11047TIP3   OH254631   1.929   6.008  16.882 -0.4841  0.3711  0.0860
11047TIP3    H154632   1.976   6.009  16.965  3.5476  0.5998 -1.9616
11047TIP3    H254633   1.890   5.921  16.877  1.0220 -0.4087  1.3398
11048TIP3   OH254634   4.159   3.295   3.017  0.1555 -0.2384  0.3066
11048TIP3    H154635   4.241   3.313   2.969 -0.8300  1.6452 -0.8224
11048TIP3    H254636   4.155   3.200   3.022  2.0295 -0.4077 -0.3081
11049TIP3   OH254637   6.577   4.779   3.922 -0.3402 -0.2929 -0.3092
11049TIP3    H154638   6.501   4.729   3.892 -0.8949  0.7965 -0.7565
11049TIP3    H254639   6.547   4.823   4.002 -0.1703  0.1171 -0.4679
11050TIP3   OH254640   4.516   0.401  12.915 -0.1709  0.2337 -0.0306
11050TIP3    H154641   4.485   0.314  12.939 -0.7417  0.6380  0.7449
11050TIP3    H254642   4.608   0.388  12.893 -0.9815 -1.1214 -3.1120
11051TIP3   OH254643   0.199   2.260   1.771  0.4064 -0.2455  0.6788
11051TIP3    H154644   0.278   2.207   1.765 -0.0227 -0.9401  0.9791
11051TIP3    H254645   0.167   2.266   1.681  0.6443 -0.2094  0.5975
11052TIP3   OH254646   3.817   5.024  14.189  0.0846 -0.3077  0.5161
11052TIP3    H154647   3.741   5.053  14.139 -0.5099 -0.6086  1.2262
11052TIP3    H254648   3.859   4.959  14.132  1.2255  1.5683 -0.9287
11053TIP3   OH254649   3.617   2.423  12.299  0.0677  0.0273 -0.1463
11053TIP3    H154650   3.565   2.396  12.375  3.5026 -1.0351  2.0410
11053TIP3    H254651   3.607   2.352  12.236  1.4290 -1.8702  1.6549
11054TIP3   OH254652   5.217   6.343  16.574 -0.0301 -0.5470  0.2170
11054TIP3    H154653   5.288   6.282  16.592  2.0264  0.9774 -2.1053
11054TIP3    H254654   5.155   6.294  16.521  1.2346 -0.8908 -1.0013
11055TIP3   OH254655   5.721   3.072   1.086 -0.1775 -0.1600  0.2955
11055TIP3    H154656   5.768   3.007   1.034  0.6655 -0.0904  0.9538
11055TIP3    H254657   5.740   3.048   1.177 -1.0413  0.1484  0.5640
11056TIP3   OH254658   5.440   2.390  15.153  0.2321 -0.1445  0.4668
11056TIP3    H154659   5.531   2.403  15.181  0.4839  0.8240 -0.7445
11056TIP3    H254660   5.425   2.296  15.165  1.2484 -0.2499  1.0693
11057TIP3   OH254661   6.279   2.986   5.036  0.1723 -0.2691 -0.5630
11057TIP3    H154662   6.195   3.018   5.002  0.1013  2.2640  1.6518
11057TIP3    H254663   6.276   3.005   5.130  3.1726 -0.2205 -0.3714
11058TIP3   OH254664   5.889   5.832   2.886  0.4416 -0.0119  0.1668
11058TIP3    H154665   5.821   5.774   2.920  2.0125 -0.6120  2.5602
11058TIP3    H254666   5.938   5.779   2.824 -0.8425  0.2265 -1.0829
11059TIP3   OH254667   2.159   5.282  14.382 -0.3835 -0.2672  0.1656
11059TIP3    H154668   2.068   5.301  14.407 -0.4645 -0.0136 -0.3164
11059TIP3    H254669   2.160   5.290  14.287  0.1712 -0.1545  0.1772
11060TIP3   OH254670   2.378   4.662   4.201  0.4266 -0.1334  0.4228
11060TIP3    H154671   2.428   4.600   4.254 -0.4914 -1.4278 -0.1420
11060TIP3    H254672   2.444   4.711   4.152  1.1822 -2.1111 -0.6571
11061TIP3   OH254673   5.267   3.255   1.735  0.4191  0.7920 -0.2229
11061TIP3    H154674   5.282   3.176   1.683  1.7397  1.1267 -0.3644
11061TIP3    H254675   5.326   3.247   1.809  0.2735  1.4678 -0.0248
11062TIP3   OH254676   2.737   0.922  13.595 -0.2204  0.5129  1.1895
11062TIP3    H154677   2.832   0.920  13.582 -0.2449 -0.0959  1.0721
11062TIP3    H254678   2.711   1.008  13.563  0.5038  1.3803  2.8030
11063TIP3   OH254679   5.153   1.615   0.293 -0.4510  0.1279 -0.0220
11063TIP3    H154680   5.115   1.649   0.375 -0.9875  1.7614 -0.9113
11063TIP3    H254681   5.241   1.652   0.291 -0.3789 -0.0500 -0.1089
11064TIP3   OH254682   1.847   0.315   3.431  0.0496 -0.1379 -0.0513
11064TIP3    H154683   1.885   0.400   3.408  0.0274 -0.0531  0.2297
11064TIP3    H254684   1.753   0.329   3.425  0.0511 -0.2855 -0.5168
11065TIP3   OH254685   6.057   4.404  16.041  0.4280 -0.3245 -0.0175
11065TIP3    H154686   6.127   4.448  16.091 -0.3252  0.2108  0.5811
11065TIP3    H254687   5.986   4.395  16.103 -0.7042  0.7478 -1.1003
11066TIP3   OH254688   5.050   0.801  12.065 -0.3252  0.2027 -0.0949
11066TIP3    H154689   5.029   0.798  11.971 -1.9510 -0.9625  0.2537
11066TIP3    H254690   5.045   0.894  12.087  0.5779  0.5451 -1.2563
11067TIP3   OH254691   0.985   4.432   6.084 -0.3373  0.0724 -0.0789
11067TIP3    H154692   0.981   4.463   6.175  0.2429  1.4349 -0.4921
11067TIP3    H254693   0.954   4.342   6.088 -1.3960  0.4666  1.3040
11068TIP3   OH254694   5.339   6.110   4.242 -0.8922  0.0751  0.0623
11068TIP3    H154695   5.380   6.025   4.225 -0.0111  0.7569 -1.3614
11068TIP3    H254696   5.245   6.095   4.229 -0.8906 -0.9456  1.0431
11069TIP3   OH254697   1.164   1.517   3.015 -0.2163  0.3886 -0.0280
11069TIP3    H154698   1.185   1.450   3.080  0.1122  0.4322 -0.0871
11069TIP3    H254699   1.099   1.476   2.958  0.3412 -0.0571 -0.3602
11070TIP3   OH254700   5.906   1.205  14.673 -0.1689 -0.2798 -0.7890
11070TIP3    H154701   5.822   1.250  14.660  0.3562  0.8296 -0.4387
11070TIP3    H254702   5.930   1.226  14.763  0.0148 -1.4149 -0.5621
11071TIP3   OH254703   5.230   5.372   1.965 -0.4940  0.0282 -0.2817
11071TIP3    H154704   5.210   5.458   1.926  2.1762  0.3631 -1.0976
11071TIP3    H254705   5.171   5.366   2.040 -3.4085  0.8892 -2.3045
11072TIP3   OH254706   6.512   5.519  15.730 -0.0625 -0.1903 -0.6867
11072TIP3    H154707   6.481   5.569  15.805  0.2237 -1.5840  0.4058
11072TIP3    H254708   6.466   5.435  15.736 -1.2585  0.2135 -3.0143
11073TIP3   OH254709   4.995   2.232  14.923 -0.4054  0.6507 -0.3123
11073TIP3    H154710   4.901   2.238  14.941 -0.5113 -1.5405  0.0694
11073TIP3    H254711   5.008   2.290  14.848 -2.2060  0.4313 -0.8610
11074TIP3   OH254712   2.053   6.289   0.954 -0.1551  0.1407 -0.6260
11074TIP3    H154713   2.147   6.304   0.960 -0.2075  0.9357 -1.6047
11074TIP3    H254714   2.016   6.373   0.928 -1.5956  0.9339  3.2184
11075TIP3   OH254715   6.678   1.612  15.930  0.0112  0.8221  0.6675
11075TIP3    H154716   6.719   1.669  15.864  0.8087  0.2165  0.6202
11075TIP3    H254717   6.705   1.524  15.905 -0.3153  0.5192  1.3686
11076TIP3   OH254718   0.847   5.675  10.870  0.8265  1.0941  0.1542
11076TIP3    H154719   0.886   5.677  10.783 -0.8061 -0.0468 -0.6535
11076TIP3    H254720   0.770   5.620  10.860  0.4578  1.1560  2.2779
11077TIP3   OH254721   1.162   5.538  16.804 -0.1581  0.0835 -0.3106
11077TIP3    H154722   1.234   5.601  16.798 -0.8753  0.9678  0.1446
11077TIP3    H254723   1.201   5.461  16.846  0.5622  0.4632 -0.2586
11078TIP3   OH254724   3.100   2.975   1.982 -0.3194 -0.6192 -0.0917
11078TIP3    H154725   3.190   2.949   1.962 -0.3555  0.4993 -1.8553
11078TIP3    H254726   3.072   3.027   1.907 -0.8320  3.0679  2.3818
11079TIP3   OH254727   3.991   6.843   4.639 -0.9312  0.2066 -0.8750
11079TIP3    H154728   4.011   6.911   4.574  0.7834  1.0566  0.4964
11079TIP3    H254729   3.918   6.880   4.689 -0.0213  1.0605 -0.1456
11080TIP3   OH254730   0.170   0.464  11.080 -0.0688  0.4054 -0.1737
11080TIP3    H154731   0.225   0.393  11.113  0.0006  0.8049  0.6065
11080TIP3    H254732   0.217   0.498  11.004  0.3601  0.2154  0.0029
11081TIP3   OH254733   3.281   1.253   5.536  0.2287  0.3369 -0.4334
11081TIP3    H154734   3.280   1.196   5.613 -0.2043 -0.0327 -0.7076
11081TIP3    H254735   3.372   1.250   5.505  0.6290  1.2053  0.5778
11082TIP3   OH254736   3.224   1.274   5.281  0.0049  0.4328  0.3801
11082TIP3    H154737   3.226   1.258   5.375 -1.7976 -1.0771  0.2232
11082TIP3    H254738   3.178   1.358   5.272 -1.4885 -0.2970  0.8271
11083TIP3   OH254739   5.941   1.331   0.993  0.3212  0.3006 -0.0286
11083TIP3    H154740   6.033   1.314   1.012  1.1663  1.6210 -2.5062
11083TIP3    H254741   5.902   1.244   0.981  0.9923 -0.3089  1.8541
11084TIP3   OH254742   4.951   1.295   0.086 -0.2296 -0.4593  0.4205
11084TIP3    H154743   4.861   1.328   0.087  0.3240  1.1527  0.3113
11084TIP3    H254744   4.969   1.276  -0.006  0.0925  0.9339  0.1634
11085TIP3   OH254745   1.401   4.048  10.951 -0.0679  0.3769 -0.3977
11085TIP3    H154746   1.404   4.089  11.038 -0.3850  1.2622 -0.7858
11085TIP3    H254747   1.319   4.081  10.913  0.0831  0.0200 -1.0384
11086TIP3   OH254748   2.655   2.934  17.010 -0.7414  1.3276  0.0093
11086TIP3    H154749   2.587   2.871  17.031 -0.3852  1.2397  0.9424
11086TIP3    H254750   2.607   3.014  16.988 -1.1507  1.1604  0.2871
11087TIP3   OH254751   5.487   0.953   5.334 -0.2439  0.2889 -0.4911
11087TIP3    H154752   5.485   0.999   5.250 -1.0645 -0.2303 -0.7708
11087TIP3    H254753   5.572   0.908   5.335 -0.6934 -0.6637 -1.5940
11088TIP3   OH254754   0.603   2.017   4.978 -0.2978  0.3286  0.1891
11088TIP3    H154755   0.570   2.101   5.010  0.6836  1.3079 -1.2000
11088TIP3    H254756   0.678   1.997   5.034 -1.8859 -0.8501  2.0116
11089TIP3   OH254757   3.729   5.662  15.335  0.4059 -0.4089 -0.4746
11089TIP3    H154758   3.695   5.616  15.412 -1.3741  0.5421 -0.6128
11089TIP3    H254759   3.677   5.628  15.262 -0.9033  1.6486 -0.5932
11090TIP3   OH254760   0.729   2.756   2.612 -0.5479 -0.9524  0.2718
11090TIP3    H154761   0.650   2.720   2.572 -0.2053  0.5105 -1.8786
11090TIP3    H254762   0.714   2.850   2.616  0.1091 -0.8744  2.2168
11091TIP3   OH254763   3.036   2.812  11.473 -0.7928 -0.0999  0.3619
11091TIP3    H154764   3.088   2.826  11.394  1.0612 -0.1373  1.5150
11091TIP3    H254765   2.967   2.879  11.469  0.7852  1.5851 -0.0639
11092TIP3   OH254766   4.784   0.775  14.607 -0.4567  0.5522  0.0668
11092TIP3    H154767   4.872   0.745  14.581 -0.2193 -0.2442  1.6811
11092TIP3    H254768   4.727   0.742  14.537  0.2401 -0.9534  0.1627
11093TIP3   OH254769   0.294   6.392   5.928  0.0309 -0.3825  0.1546
11093TIP3    H154770   0.329   6.423   6.011  1.3690  0.9243 -0.8501
11093TIP3    H254771   0.228   6.458   5.904  0.8762  0.1971 -0.6290
11094TIP3   OH254772   0.414   4.634  16.961 -0.0725 -0.4555 -0.4145
11094TIP3    H154773   0.356   4.692  17.010  2.2865  0.7868  1.1148
11094TIP3    H254774   0.444   4.570  17.025  1.5210 -0.0155 -0.6726
11095TIP3   OH254775   0.203   6.755   4.576 -0.3571 -0.4685  0.0938
11095TIP3    H154776   0.124   6.720   4.535  0.0027 -1.5531  0.3075
11095TIP3    H254777   0.241   6.681   4.623  0.0248  0.3795  1.1874
11096TIP3   OH254778   3.814   0.546  15.255  0.3668 -0.4915  0.1083
11096TIP3    H154779   3.895   0.585  15.223  0.8067  0.4342  2.2081
11096TIP3    H254780   3.799   0.471  15.197  2.0870 -0.0249 -1.0168
11097TIP3   OH254781   4.293   4.486  16.497 -0.2917 -0.0550  0.3972
11097TIP3    H154782   4.214   4.488  16.444  0.5035  2.2970 -0.8463
11097TIP3    H254783   4.353   4.428  16.450 -0.0266  1.0442 -0.6511
11098TIP3   OH254784   2.875   3.086  15.379  0.3198  0.6302  0.0434
11098TIP3    H154785   2.818   3.050  15.312  0.5099  0.9358 -0.2852
11098TIP3    H254786   2.883   3.179  15.358  1.2236  0.5269 -0.1320
11099TIP3   OH254787   4.311   5.782   5.288 -0.1201  0.4116 -0.2943
11099TIP3    H154788   4.240   5.833   5.249  1.5847  1.5609 -2.1418
11099TIP3    H254789   4.355   5.843   5.348 -0.1952 -0.0318  0.2240
11100TIP3   OH254790   0.686   0.777  13.348 -0.1198 -0.4016 -0.7164
11100TIP3    H154791   0.771   0.817  13.330 -0.0307 -0.5338 -0.5904
11100TIP3    H254792   0.671   0.717  13.275 -0.9398  0.9497 -1.7094
11101TIP3   OH254793   0.697   3.971   4.535 -0.4589 -0.4895  0.3444
11101TIP3    H154794   0.686   4.008   4.448 -0.5549 -0.1790  0.4861
11101TIP3    H254795   0.750   3.893   4.522  0.2244  0.0032  0.1145
11102TIP3   OH254796   1.191   3.511   4.355  0.0951 -0.2012  0.3849
11102TIP3    H154797   1.145   3.443   4.305  0.8899 -0.7153  0.3333
11102TIP3    H254798   1.283   3.483   4.354  0.1645 -0.0702  1.9154
11103TIP3   OH254799   5.412   5.904  11.366  0.5480 -0.3076 -0.0337
11103TIP3    H154800   5.438   5.929  11.455  0.2049  0.3596 -0.1075
11103TIP3    H254801   5.490   5.917  11.313  0.2339  1.2298 -0.1726
11104TIP3   OH254802   6.371   4.185  12.440 -0.5956 -0.1713 -0.3064
11104TIP3    H154803   6.439   4.203  12.505 -1.2181  1.5857 -0.0930
11104TIP3    H254804   6.392   4.243  12.367 -1.5311 -0.0127 -0.4640
11105TIP3   OH254805   3.858   2.491   6.073 -0.1723 -0.1556 -0.0237
11105TIP3    H154806   3.782   2.515   6.127  0.7994  0.5686  1.0644
11105TIP3    H254807   3.932   2.533   6.116  0.8528 -0.8142 -1.0961
11106TIP3   OH254808   2.787   3.641   4.922  0.2719 -0.6039 -0.4402
11106TIP3    H154809   2.712   3.597   4.883 -0.0412 -1.3823  1.0000
11106TIP3    H254810   2.783   3.730   4.885 -1.1448 -0.7271 -0.6652
11107TIP3   OH254811   0.624   1.947   3.989 -0.3507 -0.2637  0.1726
11107TIP3    H154812   0.676   2.022   4.019  1.6751 -0.3252 -2.7654
11107TIP3    H254813   0.535   1.982   3.978 -0.3891  0.5885  2.6508
11108TIP3   OH254814   5.754   5.366   4.614 -0.0045  0.1372  0.0541
11108TIP3    H154815   5.682   5.313   4.579  1.2282 -0.9422 -0.9243
11108TIP3    H254816   5.758   5.442   4.555 -1.9043  1.5225  1.5769
11109TIP3   OH254817   6.220   2.988   1.012 -0.4232 -0.4012  0.5841
11109TIP3    H154818   6.140   2.976   1.063 -0.8644  0.2571  0.0720
11109TIP3    H254819   6.228   3.083   1.003  0.8508 -0.4193  1.2969
11110TIP3   OH254820   4.220   0.064   2.430 -0.0414 -0.0209  0.1500
11110TIP3    H154821   4.203  -0.021   2.388 -2.2322  0.2483  0.3347
11110TIP3    H254822   4.256   0.119   2.361  0.0737 -0.7053 -0.3411
11111TIP3   OH254823   1.874   1.282   4.153 -0.3497 -0.4602  0.0759
11111TIP3    H154824   1.843   1.218   4.217  0.4690 -0.6270  0.3173
11111TIP3    H254825   1.924   1.231   4.089 -0.1073 -0.1311 -0.0048
11112TIP3   OH254826   3.827   1.757  14.100 -0.1438  0.1108  0.1384
11112TIP3    H154827   3.830   1.783  14.008 -2.2507  0.9151  0.2389
11112TIP3    H254828   3.919   1.753  14.127  0.4825  0.8942 -1.7114
11113TIP3   OH254829   5.332   0.329   5.943 -0.5253  0.0885  0.7782
11113TIP3    H154830   5.260   0.290   5.993 -0.3517  0.3111  1.2069
11113TIP3    H254831   5.380   0.382   6.007  0.1871 -0.2774  0.5607
11114TIP3   OH254832   1.451   2.784   6.241  0.5216 -0.1161  0.2576
11114TIP3    H154833   1.536   2.821   6.267  0.0863  0.6049  0.7119
11114TIP3    H254834   1.387   2.845   6.278 -0.1947 -0.6573 -0.0740
11115TIP3   OH254835   5.431   0.753   0.005  0.5719  0.0777 -0.0890
11115TIP3    H154836   5.500   0.723  -0.055 -0.8808 -1.7470 -0.9524
11115TIP3    H254837   5.460   0.723   0.091  1.1081 -0.2182 -0.3659
11116TIP3   OH254838   2.292   1.224  14.143 -0.3791  0.0290 -0.0345
11116TIP3    H154839   2.303   1.161  14.213 -0.5204  1.9596  1.8252
11116TIP3    H254840   2.198   1.228  14.128 -0.6364  1.6444  1.7167
11117TIP3   OH254841   2.019   2.300   4.213 -0.1144  0.1119  0.6312
11117TIP3    H154842   2.103   2.281   4.257 -0.1258  0.2230  0.7003
11117TIP3    H254843   1.994   2.217   4.173  1.1386  0.5876 -1.2903
11118TIP3   OH254844   0.697   1.856  14.622  0.4172 -0.1119 -0.1560
11118TIP3    H154845   0.652   1.772  14.614 -0.5806  0.5363 -2.3490
11118TIP3    H254846   0.628   1.918  14.642  0.9037  0.3842 -0.0145
11119TIP3   OH254847   5.072   1.049   1.313 -0.7106  0.4486 -0.0036
11119TIP3    H154848   5.096   1.037   1.221  0.4339  1.7401  0.0882
11119TIP3    H254849   5.030   1.135   1.316 -0.0968  0.7340  0.7880
11120TIP3   OH254850   0.304   6.697  16.681  0.0259 -0.3046 -0.5076
11120TIP3    H154851   0.367   6.633  16.714 -3.4804 -2.2090  3.2154
11120TIP3    H254852   0.338   6.781  16.712  0.8241 -1.2537  1.3661
11121TIP3   OH254853   2.409   3.577  10.307  0.1018  0.2614  0.3140
11121TIP3    H154854   2.355   3.655  10.292  0.5826  0.1031 -2.7629
11121TIP3    H254855   2.498   3.604  10.283  0.1135 -1.4459 -1.8070
11122TIP3   OH254856   5.011   3.377  11.492 -0.3164 -1.1599  0.4491
11122TIP3    H154857   5.089   3.382  11.546 -0.9724  1.5531  1.2781
11122TIP3    H254858   5.038   3.411  11.407 -0.5775 -0.0744  0.7809
11123TIP3   OH254859   6.285   2.231  11.375  0.0821  0.0407  0.3157
11123TIP3    H154860   6.272   2.274  11.290  0.0828  1.4652  1.0020
11123TIP3    H254861   6.380   2.228  11.386  0.0746  0.1713  0.4198
11124TIP3   OH254862   0.380   3.945   4.176 -0.4258 -0.4402 -0.2253
11124TIP3    H154863   0.372   3.896   4.258  2.3370  0.9626  1.0259
11124TIP3    H254864   0.396   3.878   4.109  1.0861 -1.4470  1.0680
11125TIP3   OH254865   3.292   0.282  15.173  0.0158  0.3748  0.0151
11125TIP3    H154866   3.344   0.305  15.249  0.0787 -0.4403  0.2356
11125TIP3    H254867   3.281   0.364  15.125  0.9905  0.6701  0.2748
11126TIP3   OH254868   2.672   0.374  13.140  0.3510 -0.1566 -0.1759
11126TIP3    H154869   2.639   0.409  13.223 -1.7645 -0.6886 -0.7346
11126TIP3    H254870   2.635   0.285  13.135 -0.2902  0.1707 -2.0693
11127TIP3   OH254871   2.763   3.218  10.417 -0.1572 -0.2293 -0.1346
11127TIP3    H154872   2.827   3.238  10.348  0.0115 -0.5714 -0.0784
11127TIP3    H254873   2.789   3.275  10.490  0.8862 -1.2756  0.3514
11128TIP3   OH254874   4.218   6.205   6.023  0.2675 -0.1001  0.6000
11128TIP3    H154875   4.183   6.156   6.097 -0.7604  0.9520  0.8522
11128TIP3    H254876   4.307   6.229   6.049  0.7325 -1.6484  0.5269
11129TIP3   OH254877   0.555   4.635   2.978  0.0665  0.2313  0.0017
11129TIP3    H154878   0.517   4.598   2.898 -0.1002 -0.1802  0.2679
11129TIP3    H254879   0.485   4.631   3.043 -0.3574  2.1916 -0.2925
11130TIP3   OH254880   3.444   1.065   1.226  0.2161  0.4348  0.5429
11130TIP3    H154881   3.523   1.110   1.257 -0.6040  1.7486  0.7875
11130TIP3    H254882   3.459   1.053   1.132  0.8836  0.2924  0.6594
11131TIP3   OH254883   4.345   2.139  12.577  0.4554 -0.0806 -0.3970
11131TIP3    H154884   4.425   2.121  12.626  1.4534  1.0177 -1.5688
11131TIP3    H254885   4.306   2.215  12.621  0.6946  0.1314 -0.5499
11132TIP3   OH254886   3.941   1.635  11.135 -0.1025 -0.2182  0.3948
11132TIP3    H154887   3.877   1.706  11.144  0.6156  0.7486 -1.4861
11132TIP3    H254888   3.914   1.589  11.055  0.6874 -0.7297  0.4189
11133TIP3   OH254889   4.702   5.749   4.246 -0.1705  0.3320  0.6895
11133TIP3    H154890   4.767   5.818   4.261 -1.3866  1.6556  0.1114
11133TIP3    H254891   4.657   5.741   4.330  0.9323 -0.8596  1.2087
11134TIP3   OH254892   3.587   0.433   4.444 -0.3461 -0.3070  0.4414
11134TIP3    H154893   3.541   0.360   4.404  1.3940 -0.5929 -1.2022
11134TIP3    H254894   3.572   0.507   4.385 -2.7001  0.9617  2.4602
11135TIP3   OH254895   3.232   2.380  10.605 -0.2161  0.1146  0.7383
11135TIP3    H154896   3.229   2.465  10.560  0.2163 -0.7691 -1.0316
11135TIP3    H254897   3.140   2.354  10.613 -0.2934  0.2275  0.2538
11136TIP3   OH254898   5.860   4.810   6.831 -0.2718  0.3310 -0.1009
11136TIP3    H154899   5.837   4.899   6.858 -2.2640 -0.7498  2.1488
11136TIP3    H254900   5.939   4.790   6.881  0.4423  0.9560 -0.9528
11137TIP3   OH254901   0.236   3.064  11.641 -0.2535 -0.6370  0.0768
11137TIP3    H154902   0.312   3.025  11.599  0.0067 -2.2973  1.9860
11137TIP3    H254903   0.215   3.140  11.586  3.1553  0.2945 -0.1447
11138TIP3   OH254904   4.502   3.088  17.046  0.0730  0.0053  0.7158
11138TIP3    H154905   4.462   3.078  17.133  0.3292  0.3636  0.8765
11138TIP3    H254906   4.459   3.164  17.008  0.9958  0.7452  1.1195
11139TIP3   OH254907   5.027   5.696  11.847  0.4321 -0.1541 -0.1946
11139TIP3    H154908   5.046   5.610  11.810  1.9412  0.0881 -0.0356
11139TIP3    H254909   4.987   5.677  11.932  0.7170 -0.6993 -0.1772
11140TIP3   OH254910   4.841   6.009   4.813  0.1780 -0.0999  0.1136
11140TIP3    H154911   4.919   5.961   4.843  0.2177  0.6911  1.3572
11140TIP3    H254912   4.876   6.089   4.775 -0.0115  0.1298  0.4195
11141TIP3   OH254913   2.081   4.891  15.817 -0.1390 -0.0255 -0.3659
11141TIP3    H154914   2.156   4.867  15.872 -0.9919 -3.6647 -0.5452
11141TIP3    H254915   2.017   4.927  15.879  0.1520 -0.9930  0.5371
11142TIP3   OH254916   1.088   2.745  17.005  0.6457 -0.2020 -0.3986
11142TIP3    H154917   1.148   2.773  16.937  0.2080 -0.4006 -0.8700
11142TIP3    H254918   1.133   2.672  17.048  0.5829 -0.5981 -0.9961
11143TIP3   OH254919   4.126   1.147   0.144  0.1291 -0.5477 -0.3629
11143TIP3    H154920   4.130   1.228   0.094  0.6955 -0.3525 -0.0150
11143TIP3    H254921   4.033   1.128   0.152 -0.0415  0.4817  0.2032
11144TIP3   OH254922   5.210   6.517  10.640  0.0740  0.5750 -0.0673
11144TIP3    H154923   5.183   6.451  10.704  0.2300  0.4926 -0.0873
11144TIP3    H254924   5.170   6.489  10.558  0.1757  0.4795 -0.0852
11145TIP3   OH254925   5.332   2.595  12.679 -0.2496  0.3983 -0.3783
11145TIP3    H154926   5.264   2.662  12.689 -0.7985  0.0514 -1.6150
11145TIP3    H254927   5.379   2.619  12.600  0.1263 -0.1807 -0.3396
11146TIP3   OH254928   5.032   0.354  13.111 -0.1954  0.2222  0.1119
11146TIP3    H154929   5.088   0.431  13.121 -0.6478  0.6270 -0.4089
11146TIP3    H254930   4.975   0.356  13.188  0.4148 -0.1291  0.5858
11147TIP3   OH254931   4.433   2.989   3.134 -0.2587 -0.6429 -0.1445
11147TIP3    H154932   4.484   3.070   3.136  0.1444 -0.8031 -2.0846
11147TIP3    H254933   4.484   2.926   3.185  0.3154 -0.1656 -0.1259
11148TIP3   OH254934   6.298   0.729   0.990  0.0209 -0.3692  0.1566
11148TIP3    H154935   6.371   0.745   0.930 -0.3444  1.3550  0.1335
11148TIP3    H254936   6.271   0.816   1.019 -2.6775 -0.8757 -0.5975
11149TIP3   OH254937   2.902   4.160   4.885 -0.6451  0.0411  0.1261
11149TIP3    H154938   2.986   4.203   4.899 -0.5546 -0.0536 -0.1241
11149TIP3    H254939   2.851   4.223   4.833 -0.8411  0.2312  0.5467
11150TIP3   OH254940   2.637   3.302  12.124  0.1056  0.5711  0.0907
11150TIP3    H154941   2.610   3.394  12.118 -2.8824 -0.0405  2.1616
11150TIP3    H254942   2.583   3.266  12.194  1.5620 -2.6763 -0.3068
11151TIP3   OH254943   1.706   6.673   4.020 -0.0265 -0.3643  0.1586
11151TIP3    H154944   1.768   6.707   4.085  0.7830 -0.5829 -0.4798
11151TIP3    H254945   1.668   6.751   3.981  0.5150 -0.2007 -0.0624
11152TIP3   OH254946   3.305   0.132  15.852 -0.0667 -0.6599 -0.0077
11152TIP3    H154947   3.330   0.216  15.816  1.5443 -1.1679 -0.1563
11152TIP3    H254948   3.246   0.153  15.924  0.0368  0.5709 -0.2718
11153TIP3   OH254949   0.376   3.594  14.479 -0.0640  0.1156  0.1151
11153TIP3    H154950   0.294   3.546  14.494  0.2558 -0.7886 -0.9138
11153TIP3    H254951   0.420   3.546  14.409  1.8374 -0.0014  1.3245
11154TIP3   OH254952   4.385   3.712   4.470 -0.2998  0.1362 -0.0985
11154TIP3    H154953   4.417   3.636   4.422 -0.2890  0.8089 -1.1686
11154TIP3    H254954   4.453   3.729   4.535 -0.5886 -1.1283  0.5751
11155TIP3   OH254955   6.815   5.445   2.910  0.8121  0.2981 -0.4287
11155TIP3    H154956   6.881   5.478   2.971  0.4119  1.3220 -0.5326
11155TIP3    H254957   6.740   5.423   2.966  1.0979 -0.5051 -0.3534
11156TIP3   OH254958   5.954   2.655   5.925 -0.3085  0.1766  0.3964
11156TIP3    H154959   5.922   2.687   5.841 -1.3101 -0.1000  0.6548
11156TIP3    H254960   5.979   2.564   5.908  0.8506  0.5426  0.0761
11157TIP3   OH254961   2.588   3.862  11.630 -0.3290 -0.2280  0.0461
11157TIP3    H154962   2.605   3.933  11.568 -0.7678 -0.6656 -0.5972
11157TIP3    H254963   2.540   3.903  11.702 -1.7776 -0.1126 -0.9530
11158TIP3   OH254964   5.945   0.516  15.655 -0.1026 -0.2397 -0.0893
11158TIP3    H154965   5.915   0.442  15.603 -1.7620  0.7520 -0.6148
11158TIP3    H254966   5.880   0.525  15.724 -0.7875  1.6224 -0.9124
11159TIP3   OH254967   4.077   5.510   1.662  0.3355  0.4545  0.1576
11159TIP3    H154968   4.035   5.439   1.709  0.2956  1.1714  1.2382
11159TIP3    H254969   4.006   5.569   1.639  0.3271  0.0207 -1.0050
11160TIP3   OH254970   0.936   5.286  15.302  0.4501  0.5545  0.8472
11160TIP3    H154971   0.846   5.255  15.307  0.6190 -0.0690  0.1570
11160TIP3    H254972   0.939   5.361  15.361  0.0404 -0.7780  2.6463
11161TIP3   OH254973   5.369   2.529  13.527 -0.1535  0.3623 -0.2043
11161TIP3    H154974   5.274   2.539  13.515 -0.2856  0.5296  0.8282
11161TIP3    H254975   5.408   2.585  13.461 -0.7061 -1.5905 -2.3221
11162TIP3   OH254976   4.576   0.575   3.448  0.0055  0.3152  0.5291
11162TIP3    H154977   4.576   0.537   3.360 -1.3558  0.6270  0.3669
11162TIP3    H254978   4.579   0.669   3.434 -0.4991  0.3755  0.7954
11163TIP3   OH254979   0.896   6.802   0.240 -0.5036 -0.6243 -0.2405
11163TIP3    H154980   0.966   6.853   0.281 -0.3672 -1.1759  0.2204
11163TIP3    H254981   0.857   6.862   0.176 -0.4184  0.1005  0.3654
11164TIP3   OH254982   1.241   0.975   2.228  0.5189  0.2282 -0.0705
11164TIP3    H154983   1.335   0.955   2.227  1.4058  3.5205  1.5571
11164TIP3    H254984   1.235   1.065   2.197 -1.7363  1.0639  2.3902
11165TIP3   OH254985   1.983   2.777  15.542  0.3832  0.0346 -0.1134
11165TIP3    H154986   2.005   2.787  15.449  1.3695  1.4237  0.2242
11165TIP3    H254987   1.973   2.867  15.573  2.7850 -0.2449  1.7144
11166TIP3   OH254988   2.975   3.605  16.419  0.0920  0.2570 -0.4754
11166TIP3    H154989   3.015   3.671  16.475 -1.2898  0.5946  0.1493
11166TIP3    H254990   3.034   3.599  16.343  0.8210  1.3844 -0.0254
11167TIP3   OH254991   5.420   4.294  12.896 -0.3203 -0.0789 -0.6830
11167TIP3    H154992   5.497   4.263  12.944 -0.1316 -0.7590 -1.4043
11167TIP3    H254993   5.346   4.267  12.950 -0.0696  0.3302 -0.1226
11168TIP3   OH254994   3.804   1.123   2.397 -0.3537  0.2346 -0.2416
11168TIP3    H154995   3.775   1.207   2.433 -1.1845  0.0127 -0.3743
11168TIP3    H254996   3.884   1.145   2.349  1.2720  0.4123  2.3549
11169TIP3   OH254997   0.979   2.247   3.458  0.5175 -0.2378  0.2784
11169TIP3    H154998   1.074   2.237   3.464  0.4034 -1.8029  0.0049
11169TIP3    H254999   0.958   2.216   3.370 -0.4377 -2.0757  1.0881
11170TIP3   OH255000   5.630   1.124  16.273  0.2144  0.5725  0.5717
11170TIP3    H155001   5.645   1.197  16.213 -0.6530 -0.3469 -0.8245
11170TIP3    H255002   5.552   1.149  16.322 -1.1398 -0.0937 -1.1226
11171TIP3   OH255003   2.995   5.839   0.515 -0.2481 -0.1315 -0.4168
11171TIP3    H155004   2.909   5.799   0.502 -0.0167 -0.2062 -1.8873
11171TIP3    H255005   3.004   5.901   0.443  0.9574 -0.1805 -0.3297
11172TIP3   OH255006   3.933   3.412   2.135 -0.1863 -0.2003 -0.2602
11172TIP3    H155007   4.006   3.357   2.164 -0.5031 -1.3251 -1.5283
11172TIP3    H255008   3.864   3.350   2.111 -0.9527  0.7894 -0.6785
11173TIP3   OH255009   1.796   0.278  12.257 -0.5323  0.1874  0.0775
11173TIP3    H155010   1.719   0.323  12.292  0.3368  2.1955 -0.4246
11173TIP3    H255011   1.775   0.265  12.164 -0.1795  1.0491 -0.1399
11174TIP3   OH255012   3.494   6.029  16.227 -0.1251 -0.0692 -0.1883
11174TIP3    H155013   3.434   5.983  16.167 -0.4399 -0.0534  0.1120
11174TIP3    H255014   3.467   6.120  16.223 -0.4169 -0.1349  0.2996
11175TIP3   OH255015   3.938   2.986  12.396  0.3463  0.3942 -0.1350
11175TIP3    H155016   3.926   3.027  12.482  1.5843 -1.2082  0.8626
11175TIP3    H255017   3.934   3.059  12.334  0.5273  1.7467  1.3766
11176TIP3   OH255018   0.635   3.779   3.226  0.8074 -0.1227 -0.0004
11176TIP3    H155019   0.699   3.716   3.193 -0.2780 -0.9171 -0.6738
11176TIP3    H255020   0.555   3.759   3.178 -0.1802  0.3051  1.3896
11177TIP3   OH255021   1.568   4.379   1.440  0.2165  0.2033 -0.3735
11177TIP3    H155022   1.575   4.298   1.491  0.2703 -0.6470 -1.6818
11177TIP3    H255023   1.477   4.406   1.451 -0.1072 -0.6634 -0.8271
11178TIP3   OH255024   1.885   5.725  16.865 -0.2082 -0.3703  0.1137
11178TIP3    H155025   1.834   5.701  16.942  0.8459  1.6130  1.5216
11178TIP3    H255026   1.958   5.663  16.865 -2.2213 -2.9544 -1.6832
11179TIP3   OH255027   5.649   4.994   5.012 -0.4104 -0.1982 -0.1071
11179TIP3    H155028   5.657   4.987   4.917  0.0312 -0.4216 -0.0537
11179TIP3    H255029   5.567   5.042   5.025  0.5113  1.6400 -0.6526
11180TIP3   OH255030   5.345   2.563  10.577 -0.1310  0.3408 -0.4951
11180TIP3    H155031   5.369   2.611  10.657 -1.8524  1.9055 -0.8526
11180TIP3    H255032   5.411   2.494  10.570  0.0458  0.1170  2.2966
11181TIP3   OH255033   4.655   0.617   0.213  0.7878 -0.1215  0.3924
11181TIP3    H155034   4.741   0.600   0.252  0.1869  1.1527  2.3945
11181TIP3    H255035   4.666   0.698   0.164  0.8232 -0.1751  0.3115
11182TIP3   OH255036   6.733   5.566   6.573  0.3946  0.4508 -0.1368
11182TIP3    H155037   6.746   5.615   6.491  1.3321  0.7739  0.1901
11182TIP3    H255038   6.690   5.629   6.631 -2.0001 -0.3355 -0.9227
11183TIP3   OH255039   2.742   1.749   4.114  0.2096  0.0699 -0.6326
11183TIP3    H155040   2.818   1.765   4.058  0.8986 -0.1355  0.2174
11183TIP3    H255041   2.757   1.662   4.150 -0.2285  0.1918 -0.1382
11184TIP3   OH255042   6.062   4.330  14.670  0.2207 -0.0713 -0.0341
11184TIP3    H155043   6.077   4.403  14.730  0.4941 -0.9260  0.9656
11184TIP3    H255044   5.988   4.282  14.708 -0.2643 -0.0715 -0.9341
11185TIP3   OH255045   0.948   3.390   3.488 -0.7960 -0.0343 -0.6309
11185TIP3    H155046   0.878   3.346   3.536 -1.1874 -0.1458 -1.2868
11185TIP3    H255047   1.024   3.332   3.499 -1.3469 -0.9693 -1.6050
11186TIP3   OH255048   1.995   1.940   0.033 -0.0667 -0.0314 -0.2638
11186TIP3    H155049   1.915   1.931   0.085  1.2608 -1.1584  1.7200
11186TIP3    H255050   2.060   1.970   0.096  1.0583  1.0237 -1.8735
11187TIP3   OH255051   4.652   0.583   6.441 -0.1515  0.1293  0.5531
11187TIP3    H155052   4.661   0.670   6.402  1.0265  0.5595  1.7044
11187TIP3    H255053   4.558   0.572   6.455 -0.2526  1.5836  1.1649
11188TIP3   OH255054   4.211   2.784   4.414 -0.3422  0.2300  0.3094
11188TIP3    H155055   4.223   2.722   4.486  0.9364 -1.7738 -1.4883
11188TIP3    H255056   4.258   2.863   4.442  0.3339 -0.5804  1.5413
11189TIP3   OH255057   5.724   6.417   4.324 -0.0543  0.4028 -0.0610
11189TIP3    H155058   5.747   6.490   4.266 -0.5130 -0.4563 -1.3547
11189TIP3    H255059   5.631   6.429   4.342 -0.0945  0.2169 -0.1464
11190TIP3   OH255060   1.218   0.966   0.616 -0.2129 -0.3176  0.4336
11190TIP3    H155061   1.234   0.913   0.538 -0.0315 -0.6036  0.6636
11190TIP3    H255062   1.123   0.966   0.625 -0.2126 -0.6551  0.4643
11191TIP3   OH255063   0.641   0.672  15.533 -0.0267  0.1211  0.6303
11191TIP3    H155064   0.709   0.640  15.474  0.2060  0.7739  0.5270
11191TIP3    H255065   0.658   0.626  15.615  1.0937  0.8858  0.8634
11192TIP3   OH255066   5.921   3.959  10.846 -0.2042 -0.2652  0.2202
11192TIP3    H155067   5.884   3.874  10.868  0.8314 -0.5142  1.0442
11192TIP3    H255068   5.860   4.022  10.885 -2.0629 -0.5097 -2.0435
11193TIP3   OH255069   2.484   0.010   3.197  0.2249 -0.0886 -0.2721
11193TIP3    H155070   2.574  -0.018   3.180 -0.4305 -2.2711 -0.3758
11193TIP3    H255071   2.441   0.009   3.111 -0.3784 -0.9536  0.0252
11194TIP3   OH255072   1.504   0.549   1.121  0.3500 -0.2072  0.4755
11194TIP3    H155073   1.488   0.501   1.201 -1.9112 -1.2251 -0.4959
11194TIP3    H255074   1.428   0.530   1.065 -0.0190  3.3268 -0.5348
11195TIP3   OH255075   3.265   1.378  14.743 -0.6313  0.6237  0.6059
11195TIP3    H155076   3.310   1.332  14.813 -0.9550  1.1986  1.1927
11195TIP3    H255077   3.325   1.372  14.668  1.2189  2.7931  1.7913
11196TIP3   OH255078   3.177   3.927  15.946  0.0624 -0.2399 -0.0535
11196TIP3    H155079   3.083   3.912  15.956 -0.4280  1.9108 -0.9759
11196TIP3    H255080   3.204   3.971  16.026  0.2642 -0.6348  0.1030
11197TIP3   OH255081   1.643   3.201   4.345 -0.1868  0.0804 -0.2905
11197TIP3    H155082   1.627   3.166   4.257  1.0556  0.1796 -0.5739
11197TIP3    H255083   1.738   3.199   4.355 -0.3405 -0.9680  1.4793
11198TIP3   OH255084   3.977   0.206  16.568  0.0980  0.1120  1.3332
11198TIP3    H155085   3.921   0.207  16.490 -0.9278 -0.4326  2.0441
11198TIP3    H255086   4.060   0.245  16.539 -0.3079  0.0203  0.0071
11199TIP3   OH255087   0.179   5.697  16.560 -0.2678 -0.3571 -0.1719
11199TIP3    H155088   0.158   5.605  16.545  0.4770 -0.4047 -1.0057
11199TIP3    H255089   0.274   5.699  16.567 -0.3293  0.2490  0.5900
11200TIP3   OH255090   0.970   1.449   0.253 -0.8034  0.1764  0.1493
11200TIP3    H155091   1.005   1.529   0.293 -1.1400 -0.4507  1.7391
11200TIP3    H255092   0.992   1.458   0.160  2.0481  0.5992  0.7716
11201TIP3   OH255093   1.525   6.075  16.016 -0.5357 -0.4375  0.4320
11201TIP3    H155094   1.523   6.046  16.107  1.6758 -0.5329  0.5074
11201TIP3    H255095   1.450   6.031  15.975 -1.2185 -0.8543  2.0494
11202TIP3   OH255096   6.006   0.487   4.539  0.1042 -0.3304 -0.8147
11202TIP3    H155097   6.076   0.434   4.576  0.2188  0.5242  0.2535
11202TIP3    H255098   6.041   0.519   4.456  0.3719 -1.1675 -1.0349
11203TIP3   OH255099   3.475   2.242  14.118 -0.2212  0.1675  0.4140
11203TIP3    H155100   3.484   2.296  14.040 -1.4171  0.8854  0.7625
11203TIP3    H255101   3.543   2.175  14.108 -0.5753  0.0223 -1.4129
11204TIP3   OH255102   2.922   2.868   0.945  0.1713 -0.5278  0.0218
11204TIP3    H155103   2.878   2.943   0.905  0.6737 -0.5613 -0.6212
11204TIP3    H255104   2.877   2.854   1.028 -0.1486  0.2691 -0.0148
11205TIP3   OH255105   1.091   2.829   2.846  0.3752 -0.6512 -0.3407
11205TIP3    H155106   1.131   2.770   2.782  0.1842 -1.2647  0.1001
11205TIP3    H255107   0.997   2.821   2.831  0.3695  0.1985 -0.8512
11206TIP3   OH255108   2.396   6.527  11.746 -0.0631  0.1144  0.5909
11206TIP3    H155109   2.417   6.575  11.666 -1.4375 -1.0069 -0.4867
11206TIP3    H255110   2.398   6.594  11.815 -1.8102  1.7541 -0.8256
11207TIP3   OH255111   3.827   1.013   2.813  0.7248 -0.5853  0.0795
11207TIP3    H155112   3.867   1.082   2.867 -1.1421  0.3335  0.3657
11207TIP3    H255113   3.738   1.044   2.797  0.6341 -1.7575 -1.9487
11208TIP3   OH255114   6.082   4.486   5.443  0.1453 -0.3317 -0.4007
11208TIP3    H155115   6.156   4.508   5.500  1.0781 -2.5913 -0.6270
11208TIP3    H255116   6.121   4.434   5.373 -1.7896 -2.5496  0.0665
11209TIP3   OH255117   5.703   6.342  12.696 -0.2222  0.1130  0.0078
11209TIP3    H155118   5.630   6.300  12.652  1.4992 -2.1816 -0.8382
11209TIP3    H255119   5.674   6.351  12.787 -0.7988 -2.7464  0.1841
11210TIP3   OH255120   5.548   2.952  13.084 -0.5771 -0.1694 -0.1560
11210TIP3    H155121   5.494   3.013  13.135 -0.0021  1.3250 -1.2465
11210TIP3    H255122   5.490   2.878  13.065 -1.3564  0.1054  1.0688
11211TIP3   OH255123   2.044   4.091   2.313 -0.1325 -0.0967  0.1316
11211TIP3    H155124   2.059   4.117   2.222 -1.4011  0.4010  0.0495
11211TIP3    H255125   2.068   3.998   2.315  0.0225 -0.0848 -0.6797
11212TIP3   OH255126   0.741   0.880  16.251 -0.0469 -0.5852 -0.1026
11212TIP3    H155127   0.775   0.914  16.334 -1.1268 -5.2209  2.5655
11212TIP3    H255128   0.653   0.916  16.245 -0.0061 -0.3156  0.8095
11213TIP3   OH255129   5.026   2.864  11.380 -0.3179  0.2196 -0.3347
11213TIP3    H155130   5.013   2.797  11.447 -0.1576 -0.1076 -0.6260
11213TIP3    H255131   4.946   2.916  11.382 -0.5221 -0.0960 -0.2316
11214TIP3   OH255132   0.234   6.368   2.720  0.3512 -0.2421 -0.4237
11214TIP3    H155133   0.217   6.291   2.774  0.4118  0.8266  1.1875
11214TIP3    H255134   0.322   6.396   2.745 -0.3315  1.3473  0.3286
11215TIP3   OH255135   4.567   3.673   4.667  0.1128 -0.0837  0.3606
11215TIP3    H155136   4.655   3.676   4.704 -0.1440 -1.1604  1.0832
11215TIP3    H255137   4.554   3.581   4.645 -0.7571  0.1095  0.0509
11216TIP3   OH255138   2.697   4.708   1.281  0.0099  0.7901 -0.4243
11216TIP3    H155139   2.686   4.617   1.307 -2.4153  0.9746 -0.6121
11216TIP3    H255140   2.672   4.711   1.189 -1.6202  1.9026  0.0201
11217TIP3   OH255141   3.264   1.694  16.927  0.1735 -0.2402 -0.7745
11217TIP3    H155142   3.270   1.620  16.988 -0.0803 -0.8633 -1.4781
11217TIP3    H255143   3.354   1.715  16.906  0.3002  0.5345  0.4468
11218TIP3   OH255144   2.126   4.708  13.993 -0.2202  0.0161 -0.4648
11218TIP3    H155145   2.156   4.618  14.005 -1.8674 -0.3407  1.4883
11218TIP3    H255146   2.146   4.752  14.075 -1.8584  0.6810 -0.3779
11219TIP3   OH255147   1.424   4.261   6.454 -0.1102  0.0268 -0.3193
11219TIP3    H155148   1.356   4.295   6.513 -0.6739  1.1802 -1.5851
11219TIP3    H255149   1.506   4.295   6.492 -0.3986  0.1884  0.1801
11220TIP3   OH255150   4.672   1.983  15.653 -0.1695 -0.1623 -0.1265
11220TIP3    H155151   4.683   1.905  15.708 -2.1324  0.5180  1.3509
11220TIP3    H255152   4.584   2.015  15.674  0.2935  2.0433 -1.2497
11221TIP3   OH255153   2.765   4.745   2.869 -0.2779  0.3462  0.0166
11221TIP3    H155154   2.688   4.799   2.888 -1.0936 -1.1933  1.3105
11221TIP3    H255155   2.779   4.693   2.948  2.6226  1.1260  0.1301
11222TIP3   OH255156   2.859   4.680  12.950 -1.3074  0.5911  0.2277
11222TIP3    H155157   2.927   4.617  12.925 -2.3032 -0.9134  1.0887
11222TIP3    H255158   2.794   4.673  12.880 -0.6999  1.8587 -0.4794
11223TIP3   OH255159   6.660   3.301   2.054 -0.6691  0.2975 -0.3719
11223TIP3    H155160   6.741   3.276   2.098 -1.4398  0.5408  1.2528
11223TIP3    H255161   6.676   3.390   2.023  0.9991 -0.9311 -3.4956
11224TIP3   OH255162   3.106   4.492  14.089 -0.0138  0.2207  0.5096
11224TIP3    H155163   3.158   4.451  14.020 -0.1227  0.9406 -0.0076
11224TIP3    H255164   3.043   4.425  14.115 -0.7017  0.2971 -0.8596
11225TIP3   OH255165   3.808   1.547   3.729  0.1533 -0.1479  0.1950
11225TIP3    H155166   3.898   1.544   3.763  0.1097 -1.6971  0.2448
11225TIP3    H255167   3.753   1.551   3.807  0.1633  2.2973  0.1550
11226TIP3   OH255168   5.149   4.120  15.804 -0.7709 -0.1038 -0.1482
11226TIP3    H155169   5.238   4.124  15.770 -0.3748 -0.1013  0.8514
11226TIP3    H255170   5.133   4.207  15.841 -1.7440  0.3872 -1.6106
11227TIP3   OH255171   5.769   0.460   0.305  0.5076  0.3000  0.5670
11227TIP3    H155172   5.698   0.451   0.369 -0.8759 -0.6083 -1.0165
11227TIP3    H255173   5.739   0.529   0.246  1.4283  0.6107  0.4442
11228TIP3   OH255174   2.579   6.744   0.176  0.6604  0.2321 -0.2715
11228TIP3    H155175   2.529   6.670   0.143 -1.8829  1.5256  0.4694
11228TIP3    H255176   2.577   6.809   0.106 -1.3743  1.4352  0.7877
11229TIP3   OH255177   5.484   1.688   1.939  0.4027  0.4826  0.0867
11229TIP3    H155178   5.390   1.671   1.937  0.3738  0.6890 -0.7884
11229TIP3    H255179   5.517   1.648   1.858  0.8902  1.3808 -0.1711
11230TIP3   OH255180   4.768   0.569  14.313  0.7947  0.0549  0.3158
11230TIP3    H155181   4.736   0.482  14.290 -0.7127  0.4032  0.9621
11230TIP3    H255182   4.690   0.617  14.340  1.6428  1.5196  0.2751
11231TIP3   OH255183   1.195   4.260   4.842  0.0476  0.4633  0.1406
11231TIP3    H155184   1.126   4.305   4.792 -0.2390 -2.1267 -2.1112
11231TIP3    H255185   1.147   4.203   4.902  0.3182  0.6130  0.5029
11232TIP3   OH255186   3.469   0.361  12.086 -0.0618 -0.3171 -0.2763
11232TIP3    H155187   3.545   0.416  12.070  0.1977  0.4553  2.9633
11232TIP3    H255188   3.394   0.416  12.063  0.1931 -1.0448 -3.3665
11233TIP3   OH255189   3.259   0.661  16.934  0.0553 -0.3406 -0.1497
11233TIP3    H155190   3.336   0.717  16.931  0.2891 -0.3547  2.5369
11233TIP3    H255191   3.279   0.596  17.002 -1.3735 -1.8530 -1.0951
11234TIP3   OH255192   3.851   5.824   3.265  0.0453  0.0860  0.2869
11234TIP3    H155193   3.826   5.766   3.338 -0.7950  1.8847  1.4962
11234TIP3    H255194   3.931   5.786   3.231  0.4949 -0.8039  2.1940
11235TIP3   OH255195   4.632   0.803  14.933  0.3727  0.5721  0.2305
11235TIP3    H155196   4.568   0.799  14.861  0.6679  0.1903 -0.0147
11235TIP3    H255197   4.717   0.807  14.890  0.5510  0.3871  0.5598
11236TIP3   OH255198   4.468   2.350  13.201  0.2358 -0.0294  0.4162
11236TIP3    H155199   4.470   2.329  13.294  0.7890 -0.1190  0.3887
11236TIP3    H255200   4.451   2.267  13.157 -0.6762  0.1208  0.4646
11237TIP3   OH255201   5.275   6.548  15.019  0.1334 -0.8055 -0.1276
11237TIP3    H155202   5.208   6.566  15.085  1.2822  0.0124  0.8598
11237TIP3    H255203   5.240   6.586  14.938  0.2051  1.2849  0.7796
11238TIP3   OH255204   5.189   2.087   1.575 -0.1543  0.1279 -0.3193
11238TIP3    H155205   5.219   2.000   1.599  0.3854  0.4678  0.2467
11238TIP3    H255206   5.176   2.132   1.658  0.0227  0.7419 -0.6215
11239TIP3   OH255207   3.778   0.402  12.926 -0.3599  0.2467 -0.1084
11239TIP3    H155208   3.848   0.448  12.972 -0.6602 -0.5894  1.2355
11239TIP3    H255209   3.814   0.385  12.839  1.2267 -0.4112  0.6361
11240TIP3   OH255210   1.540   1.753  15.361 -0.1505  0.6630 -0.1809
11240TIP3    H155211   1.470   1.782  15.302 -0.3009 -0.4083 -0.5681
11240TIP3    H255212   1.500   1.753  15.448 -0.9308 -0.7515 -0.5048
11241TIP3   OH255213   5.812   4.869  14.615  0.2918 -0.1871  0.3216
11241TIP3    H155214   5.751   4.895  14.683 -1.6834 -2.4810 -0.4608
11241TIP3    H255215   5.792   4.778  14.596  4.3299 -1.2995  0.3381
11242TIP3   OH255216   4.940   1.540   1.677 -0.1112 -0.0282 -0.3395
11242TIP3    H155217   4.899   1.572   1.597 -1.0488 -1.1477 -0.3324
11242TIP3    H255218   4.890   1.462   1.701  1.4486 -0.9198  0.1864
11243TIP3   OH255219   6.221   1.368   5.411  0.0730  0.1083  0.4791
11243TIP3    H155220   6.235   1.284   5.455 -1.4026 -0.3339  0.1619
11243TIP3    H255221   6.126   1.378   5.407  0.1851  2.4993  1.7828
11244TIP3   OH255222   0.792   6.307  14.873  0.2022 -0.2514 -0.1709
11244TIP3    H155223   0.748   6.309  14.788 -0.0536  1.3580 -0.0311
11244TIP3    H255224   0.755   6.381  14.921  0.5392 -0.9727  1.2535
11245TIP3   OH255225   6.825   3.575   4.300  0.3586 -0.0209  0.3558
11245TIP3    H155226   6.816   3.669   4.309 -0.1700  0.0051 -0.3262
11245TIP3    H255227   6.912   3.555   4.335  1.7433  1.1360 -2.1347
11246TIP3   OH255228   2.821   1.198  14.407  0.3537  1.4433  0.1790
11246TIP3    H155229   2.905   1.244  14.412  1.2442 -0.2077  1.8119
11246TIP3    H255230   2.842   1.107  14.428 -1.9308  1.0906  1.2888
11247TIP3   OH255231   6.078   3.754  12.379 -0.0139 -0.5367  0.3893
11247TIP3    H155232   6.172   3.742  12.367  0.2477 -0.6537  2.2242
11247TIP3    H255233   6.043   3.665  12.386 -0.1136 -0.4848  0.5764
11248TIP3   OH255234   2.214   1.334   4.037  0.0951 -0.8746 -0.2631
11248TIP3    H155235   2.288   1.296   3.989  1.5528 -0.8555  1.8071
11248TIP3    H255236   2.219   1.428   4.019 -1.0787 -1.1405 -2.2092
11249TIP3   OH255237   0.101   1.135  14.597  0.1399 -0.4763  0.2628
11249TIP3    H155238   0.119   1.141  14.691  0.9155 -0.9095  0.1468
11249TIP3    H255239   0.040   1.207  14.580  0.9195  0.3600  0.8871
11250TIP3   OH255240   1.778   1.196  14.584 -0.1510  0.5106  0.0536
11250TIP3    H155241   1.778   1.247  14.503  1.2470  0.8688  0.2450
11250TIP3    H255242   1.833   1.120  14.564 -2.2128 -0.9781 -0.2343
11251TIP3   OH255243   3.589   3.025   1.117  0.0489 -0.0971  0.3273
11251TIP3    H155244   3.673   3.024   1.163 -0.3606 -2.8775  1.2130
11251TIP3    H255245   3.608   2.981   1.033 -0.6679 -1.7103  0.9682
11252TIP3   OH255246   1.742   5.550  15.814  0.4424  0.5858  0.0801
11252TIP3    H155247   1.711   5.560  15.724 -0.1578 -0.2854  0.1821
11252TIP3    H255248   1.680   5.601  15.866  2.7773  4.1730 -0.2602
11253TIP3   OH255249   4.494   0.202  16.674 -0.3490 -0.1823  0.2571
11253TIP3    H155250   4.457   0.119  16.704 -1.3403 -0.4481 -1.5419
11253TIP3    H255251   4.508   0.252  16.754 -1.4203 -1.4032  1.2589
11254TIP3   OH255252   2.811   6.851  13.712  0.3612  0.0436 -0.2683
11254TIP3    H155253   2.894   6.862  13.666  0.5663  0.1357  0.1209
11254TIP3    H255254   2.782   6.940  13.732 -0.2861  0.0510 -1.2024
11255TIP3   OH255255   3.302   3.889   3.331 -0.0043  0.3794  0.2121
11255TIP3    H155256   3.237   3.907   3.263  2.3441  0.9793 -1.9964
11255TIP3    H255257   3.339   3.804   3.306 -0.3408 -0.2842  1.8404
11256TIP3   OH255258   5.410   2.191   5.867  0.0430 -0.2727  0.2256
11256TIP3    H155259   5.487   2.145   5.902  0.5424  0.0337 -0.4601
11256TIP3    H255260   5.400   2.158   5.778  0.1857  0.6604 -0.1481
11257TIP3   OH255261   5.200   1.899  15.146 -0.0582 -0.3919 -0.0173
11257TIP3    H155262   5.187   1.934  15.058 -1.2795  0.0506  0.3261
11257TIP3    H255263   5.259   1.825  15.133 -1.3489 -1.2509 -1.4287
11258TIP3   OH255264   2.078   6.094   1.783 -0.0040 -0.2344  0.4899
11258TIP3    H155265   2.173   6.097   1.796 -0.1725 -0.4661  1.9911
11258TIP3    H255266   2.046   6.042   1.857 -1.0817 -2.4105 -1.3778
11259TIP3   OH255267   2.972   1.475  10.590  0.0696 -0.0408  0.9458
11259TIP3    H155268   2.995   1.566  10.607 -0.3650  0.1569  0.5027
11259TIP3    H255269   2.975   1.433  10.676  1.8603  0.0142  0.9487
11260TIP3   OH255270   5.803   4.496  11.061 -0.1307  0.1527 -0.7671
11260TIP3    H155271   5.733   4.561  11.062  0.7338  1.1696 -2.0302
11260TIP3    H255272   5.859   4.523  10.988  1.9773 -0.1877  0.6238
11261TIP3   OH255273   4.198   6.092   2.718 -0.1413  0.6590 -0.5054
11261TIP3    H155274   4.139   6.163   2.695  0.9604  1.3428 -1.3371
11261TIP3    H255275   4.276   6.136   2.754  0.0560 -0.1853  0.1311
11262TIP3   OH255276   5.012   5.603   4.824  0.3538 -0.4315 -0.1191
11262TIP3    H155277   4.919   5.599   4.843  0.1441 -1.3695 -1.2082
11262TIP3    H255278   5.022   5.555   4.742  1.8265 -0.5621  0.0994
11263TIP3   OH255279   6.116   1.318   1.410 -0.3977 -0.2555  0.9729
11263TIP3    H155280   6.023   1.297   1.401 -0.6599  0.6439  1.4222
11263TIP3    H255281   6.158   1.276   1.335 -1.3015  0.0975  0.2505
11264TIP3   OH255282   4.095   2.767  14.063  0.7946  0.3182  0.0072
11264TIP3    H155283   4.093   2.700  14.131 -1.6880 -1.5019 -1.6748
11264TIP3    H255284   4.023   2.827  14.086  0.8973  0.5375 -0.2379
11265TIP3   OH255285   1.507   4.330  12.777 -0.0363 -0.4115  0.3277
11265TIP3    H155286   1.515   4.238  12.802  0.1741  0.2270  2.8318
11265TIP3    H255287   1.469   4.373  12.853  3.0291  2.1595  0.6162
11266TIP3   OH255288   6.086   1.121  13.451 -0.1084 -0.0319  0.9637
11266TIP3    H155289   6.017   1.176  13.486 -0.9420 -0.6513  0.3417
11266TIP3    H255290   6.072   1.036  13.492 -0.9310 -0.6949 -0.6007
11267TIP3   OH255291   3.080   1.541  16.484 -0.5350 -0.1954 -0.9265
11267TIP3    H155292   3.023   1.539  16.561 -1.5999 -0.6323 -1.6915
11267TIP3    H255293   3.068   1.629  16.448 -0.8698 -0.3420 -1.1804
11268TIP3   OH255294   0.001   3.452   4.953 -0.0554 -0.5357 -0.1446
11268TIP3    H155295  -0.009   3.467   5.047  2.0666 -1.5353  0.2817
11268TIP3    H255296  -0.088   3.458   4.919 -0.8998 -0.3402  1.9394
11269TIP3   OH255297   0.107   0.233   4.330 -0.4516  0.2400 -0.5101
11269TIP3    H155298   0.063   0.318   4.325 -1.0010 -0.0362 -0.3679
11269TIP3    H255299   0.135   0.225   4.421 -0.0120  0.4605 -0.6235
11270TIP3   OH255300   0.832   5.511   4.398  0.2187 -0.1784 -0.6844
11270TIP3    H155301   0.818   5.536   4.307  0.5766  0.0883 -0.6662
11270TIP3    H255302   0.744   5.511   4.437  0.0124 -0.7557 -1.1455
11271TIP3   OH255303   5.835   0.991  12.660 -0.0988 -0.4141  0.3560
11271TIP3    H155304   5.772   1.063  12.649  2.6044  1.8992 -1.1512
11271TIP3    H255305   5.921   1.032  12.651  1.6781 -3.5821  1.2901
11272TIP3   OH255306   2.998   5.781   3.901  0.0694 -0.4743  0.1400
11272TIP3    H155307   3.086   5.799   3.868  0.0082 -2.4509 -1.2754
11272TIP3    H255308   2.944   5.772   3.822 -1.2763  0.0605  0.9627
11273TIP3   OH255309   1.113   2.014  13.342  0.1293 -0.3898  0.7290
11273TIP3    H155310   1.198   2.009  13.387  0.8275 -0.5187 -0.5679
11273TIP3    H255311   1.054   2.051  13.408  0.5243 -2.7807  2.5806
11274TIP3   OH255312   2.378   5.188   3.300 -0.2093 -0.4625  0.0195
11274TIP3    H155313   2.334   5.272   3.317  0.8800  0.4284 -1.4204
11274TIP3    H255314   2.315   5.122   3.330 -1.1141  0.8490  1.1245
11275TIP3   OH255315   2.969   1.465   2.775 -0.0529  0.7131 -0.2102
11275TIP3    H155316   2.955   1.506   2.861  0.9767  0.6290  0.0082
11275TIP3    H255317   2.882   1.438   2.747 -0.6215  2.1495  0.0975
11276TIP3   OH255318   4.297   0.401   4.380  0.0237  0.7005 -0.2070
11276TIP3    H155319   4.331   0.435   4.463  2.2310 -0.3156 -0.6166
11276TIP3    H255320   4.250   0.475   4.341  1.6498  2.2023  0.5266
11277TIP3   OH255321   0.739   1.083  11.847  0.4590 -0.6228  0.1024
11277TIP3    H155322   0.813   1.062  11.790  0.5534 -1.5428  0.5511
11277TIP3    H255323   0.755   1.173  11.876  1.4753 -0.8585  0.3041
11278TIP3   OH255324   2.228   4.665   4.584 -0.2898 -0.6046  0.2572
11278TIP3    H155325   2.167   4.738   4.571  0.7936  0.1632 -0.6539
11278TIP3    H255326   2.268   4.682   4.669 -0.5954 -0.5482  0.3906
11279TIP3   OH255327   2.875   1.647   2.362 -0.0792 -0.0442  0.3577
11279TIP3    H155328   2.781   1.654   2.345 -0.5972 -2.8408  1.4771
11279TIP3    H255329   2.883   1.571   2.420  2.7520  1.0025  1.5219
11280TIP3   OH255330   1.153   3.032  15.405 -0.5821 -0.0816 -0.0503
11280TIP3    H155331   1.175   3.079  15.324 -0.0187 -0.0302  0.1270
11280TIP3    H255332   1.217   3.063  15.469 -1.4782  0.4378  0.6213
11281TIP3   OH255333   5.614   4.353  12.322  0.4040  0.2894  0.6792
11281TIP3    H155334   5.638   4.283  12.382 -0.8035 -0.2629  0.5477
11281TIP3    H255335   5.589   4.308  12.241 -1.6777  0.7318  1.0076
11282TIP3   OH255336   5.186   6.325  12.021 -0.0620  0.3214  0.1471
11282TIP3    H155337   5.102   6.307  12.064  1.0404 -1.0205  1.8947
11282TIP3    H255338   5.167   6.319  11.928 -1.9525  0.3437  0.4847
11283TIP3   OH255339   2.687   2.399   1.368 -0.1236 -0.0505  0.5117
11283TIP3    H155340   2.724   2.337   1.305 -1.0845 -1.0967  0.9363
11283TIP3    H255341   2.730   2.378   1.451  1.5573  1.6964  0.1551
11284TIP3   OH255342   2.609   3.895   0.905 -0.2312  0.4806  0.2271
11284TIP3    H155343   2.640   3.985   0.914  1.9481 -0.1227 -0.5317
11284TIP3    H255344   2.651   3.848   0.977  1.6137 -0.5518 -1.3858
11285TIP3   OH255345   2.046   3.079  15.598  0.6390  0.1124 -0.2814
11285TIP3    H155346   1.979   3.148  15.599  0.5057 -0.0064  1.1031
11285TIP3    H255347   2.099   3.097  15.675 -1.1511 -2.9929  1.8778
11286TIP3   OH255348   1.354   2.617   0.555 -0.2641  0.0218 -0.1093
11286TIP3    H155349   1.315   2.649   0.474 -1.2506 -0.6780  0.0757
11286TIP3    H255350   1.378   2.527   0.536 -1.8161 -0.6140  0.7919
11287TIP3   OH255351   1.755   4.175   5.383  0.4491 -0.2380 -0.1548
11287TIP3    H155352   1.666   4.153   5.411  0.6897 -1.5155 -0.3131
11287TIP3    H255353   1.755   4.270   5.375 -0.3704 -0.0538  1.6414
11288TIP3   OH255354   5.687   2.849   5.855  0.0484 -0.2800  0.5009
11288TIP3    H155355   5.642   2.870   5.937  0.5640 -1.8358  1.2151
11288TIP3    H255356   5.617   2.845   5.790 -0.2346  2.1058  0.5809
11289TIP3   OH255357   4.273   1.893  11.266 -0.1327  0.2570 -0.1197
11289TIP3    H155358   4.344   1.834  11.243  0.1758  1.4375 -2.4826
11289TIP3    H255359   4.286   1.911  11.359  1.4029 -1.1719 -0.0130
11290TIP3   OH255360   2.745   6.734  14.319  0.5840 -0.4009  0.4312
11290TIP3    H155361   2.699   6.760  14.398  0.3827 -1.0022  0.5145
11290TIP3    H255362   2.708   6.789  14.250  2.3098  1.7454  1.0912
11291TIP3   OH255363   3.075   3.170   3.557 -0.5342  0.0958  0.3440
11291TIP3    H155364   3.036   3.254   3.532 -2.5021 -0.4842  1.2490
11291TIP3    H255365   3.150   3.160   3.498 -0.8245  2.0168 -0.4423
11292TIP3   OH255366   1.426   3.088  13.322 -0.4697 -0.8296  0.2334
11292TIP3    H155367   1.375   3.159  13.359  0.0752  0.0996 -0.7478
11292TIP3    H255368   1.393   3.009  13.366  0.7686  0.2579  3.3648
11293TIP3   OH255369   4.110   3.502  17.023 -0.2201 -0.5433 -0.1387
11293TIP3    H155370   4.202   3.477  17.015  0.2599  1.0546  0.0555
11293TIP3    H255371   4.082   3.464  17.107  0.6290  0.0105  0.4084
11294TIP3   OH255372   3.646   2.075  13.115 -0.2137  0.3781 -0.0641
11294TIP3    H155373   3.650   2.029  13.199 -0.0238 -0.6612 -0.6213
11294TIP3    H255374   3.701   2.152  13.128  1.2971 -0.6996  0.2379
11295TIP3   OH255375   1.176   4.427   5.467  0.3985  0.2485  0.2759
11295TIP3    H155376   1.130   4.401   5.387  0.5067  0.8911 -0.0035
11295TIP3    H255377   1.170   4.523   5.467  1.0508  0.2912  0.6518
11296TIP3   OH255378   1.291   0.949  13.691 -0.3244  0.2017 -0.6937
11296TIP3    H155379   1.279   0.869  13.742 -0.2155  0.2032 -0.6647
11296TIP3    H255380   1.365   0.993  13.733 -1.7604  1.4328  0.7238
11297TIP3   OH255381   6.833   3.783  15.345  0.3818  0.8707 -0.0275
11297TIP3    H155382   6.761   3.815  15.291  0.3325  1.2140  0.2397
11297TIP3    H255383   6.851   3.854  15.406  0.1688  0.3336  0.6763
11298TIP3   OH255384   0.318   1.797   2.938 -0.7016 -0.4551  0.3419
11298TIP3    H155385   0.360   1.882   2.946 -1.0378 -0.4511  3.4864
11298TIP3    H255386   0.224   1.817   2.936 -0.7989 -0.6447 -3.1865
11299TIP3   OH255387   5.153   2.843  10.565 -0.1999 -1.0286 -0.6775
11299TIP3    H155388   5.155   2.791  10.645  0.8658  0.6523  0.4717
11299TIP3    H255389   5.091   2.914  10.584  0.1196 -0.5648 -1.2972
11300TIP3   OH255390   1.304   6.461  11.921 -0.5078 -0.3818  0.6127
11300TIP3    H155391   1.222   6.510  11.931 -0.1369  0.8426 -1.6134
11300TIP3    H255392   1.278   6.375  11.891 -0.9883 -0.0048 -0.0544
11301TIP3   OH255393   5.976   6.251  14.056  0.2952 -0.2675 -0.0739
11301TIP3    H155394   6.004   6.258  13.965 -1.8800 -1.5279 -0.9313
11301TIP3    H255395   6.017   6.171  14.087  1.5704  0.5116  0.2880
11302TIP3   OH255396   3.396   2.594   2.973 -0.3825 -0.3473  0.0936
11302TIP3    H155397   3.341   2.550   3.038  0.0211  0.1993  0.8152
11302TIP3    H255398   3.335   2.644   2.919 -0.7789 -1.2478 -0.3280
11303TIP3   OH255399   4.015   0.776   0.939 -0.4910 -0.2260 -0.3118
11303TIP3    H155400   4.091   0.825   0.908  1.1125 -1.0202  2.0777
11303TIP3    H255401   4.039   0.684   0.926  0.5663 -0.6562  3.4701
11304TIP3   OH255402   1.465   1.716   1.199  0.0209 -0.0859  0.0387
11304TIP3    H155403   1.431   1.805   1.203  1.8310  0.5788  1.7631
11304TIP3    H255404   1.438   1.685   1.112 -0.5133  2.1723 -0.6763
11305TIP3   OH255405   5.322   2.198   0.005 -0.9694 -0.0253 -0.2761
11305TIP3    H155406   5.359   2.134   0.066 -0.1408  1.0941  0.4559
11305TIP3    H255407   5.389   2.209  -0.062 -0.5557  0.9463  0.2689
11306TIP3   OH255408   5.804   5.660  12.980  0.5928  0.1498  0.2975
11306TIP3    H155409   5.824   5.700  13.065  2.5060  1.4951 -0.7231
11306TIP3    H255410   5.757   5.729  12.932  0.4484 -0.2332 -0.1193
11307TIP3   OH255411   1.249   5.673   3.922 -0.4229  0.0622  0.1553
11307TIP3    H155412   1.174   5.694   3.978 -0.4887 -0.0549  0.1131
11307TIP3    H255413   1.246   5.577   3.913 -1.1443  0.1705 -1.0430
11308TIP3   OH255414   1.151   4.203  12.930 -0.0772  0.7019 -0.5955
11308TIP3    H155415   1.183   4.158  12.852  1.2254 -1.5443  1.1061
11308TIP3    H255416   1.231   4.230  12.976 -0.8021  1.6837  0.1352
11309TIP3   OH255417   1.084   4.363   1.617  0.4883  0.0655 -0.4469
11309TIP3    H155418   1.167   4.401   1.646  0.3420 -0.5937  0.9230
11309TIP3    H255419   1.087   4.272   1.646 -0.5265 -0.0867 -0.7580
11310TIP3   OH255420   6.820   4.976  14.580  0.5535  0.1397  0.2332
11310TIP3    H155421   6.749   4.993  14.642  1.6883  1.6900  1.1801
11310TIP3    H255422   6.895   5.021  14.617  2.8601 -3.7092  0.7517
11311TIP3   OH255423   2.078   0.188  12.655 -0.1562  0.8251 -0.2809
11311TIP3    H155424   2.004   0.172  12.596  0.2626 -1.3864 -0.3160
11311TIP3    H255425   2.080   0.111  12.712  2.3143  0.6179 -0.5328
11312TIP3   OH255426   3.742   0.530  13.960 -0.4716  0.1423 -0.2092
11312TIP3    H155427   3.708   0.522  13.871 -1.3872  0.4379  0.0996
11312TIP3    H255428   3.815   0.469  13.963 -0.6370 -0.1135 -1.0685
11313TIP3   OH255429   5.248   3.172   5.799  0.0275  0.7268 -0.8726
11313TIP3    H155430   5.191   3.144   5.871  0.3651 -1.5221 -1.3942
11313TIP3    H255431   5.213   3.257   5.772 -0.0131  1.7189  1.9989
11314TIP3   OH255432   6.850   0.030   3.542  0.3646 -0.3365 -0.4343
11314TIP3    H155433   6.828  -0.031   3.471  0.6417 -0.8543 -0.0768
11314TIP3    H255434   6.924   0.080   3.509  0.0740 -0.1174 -0.7673
11315TIP3   OH255435   3.406   4.995   4.276  0.6111 -0.5247 -0.1332
11315TIP3    H155436   3.461   4.929   4.235  0.9302  1.3698 -3.0699
11315TIP3    H255437   3.432   5.078   4.235 -1.0994  1.1700  1.9168
11316TIP3   OH255438   1.491   6.667   1.085 -0.2622  0.0178 -0.0825
11316TIP3    H155439   1.506   6.658   0.991 -2.9823 -0.3219 -0.5589
11316TIP3    H255440   1.542   6.744   1.110  1.6807 -0.7162 -1.4824
11317TIP3   OH255441   3.227   2.440   4.977  0.6004 -0.1226  0.0268
11317TIP3    H155442   3.216   2.425   4.883  0.0802  3.8826 -0.7446
11317TIP3    H255443   3.141   2.467   5.007  0.9489 -0.5667  1.5223
11318TIP3   OH255444   3.019   3.908  13.195  0.2382 -0.4597  0.2167
11318TIP3    H155445   2.965   3.900  13.273  0.0454  0.6132  0.2035
11318TIP3    H255446   2.988   3.987  13.152  1.3032 -0.2473 -0.1969
11319TIP3   OH255447   2.148   1.015   1.853  0.3248  0.5724 -0.0271
11319TIP3    H155448   2.075   1.071   1.826  0.4861  0.3280 -0.9807
11319TIP3    H255449   2.181   0.977   1.772  0.5832 -0.4682  0.5507
11320TIP3   OH255450   2.162   5.115  11.447  0.0169 -0.1752  0.5780
11320TIP3    H155451   2.093   5.050  11.435  2.2173 -2.5567 -0.2710
11320TIP3    H255452   2.150   5.147  11.536  0.4814 -4.0154  2.2126
11321TIP3   OH255453   2.709   6.173  12.007  0.0414 -0.4228  0.6159
11321TIP3    H155454   2.753   6.121  11.940  2.0945  1.1130  0.6614
11321TIP3    H255455   2.630   6.206  11.965  1.0779  0.1637 -0.9266
11322TIP3   OH255456   0.122   1.534   4.327 -0.7359  0.1549 -0.5097
11322TIP3    H155457   0.177   1.524   4.405 -0.3068  1.5851 -0.6037
11322TIP3    H255458   0.032   1.532   4.360 -0.5686  0.1262 -0.0578
11323TIP3   OH255459   2.191   0.402  15.297  0.2830 -0.6533 -0.0096
11323TIP3    H155460   2.224   0.329  15.245 -0.0310 -0.0948 -1.0163
11323TIP3    H255461   2.098   0.406  15.276  0.7174  1.5452 -1.9080
11324TIP3   OH255462   5.853   2.764  16.335  0.2041 -0.0577  0.4730
11324TIP3    H155463   5.774   2.761  16.389  0.3481 -0.9160  0.6498
11324TIP3    H255464   5.922   2.729  16.392  0.5497 -0.0791  0.0494
11325TIP3   OH255465   5.708   2.259   4.208 -0.3143  0.2254 -0.2335
11325TIP3    H155466   5.799   2.279   4.189 -0.8544  0.5231 -2.8197
11325TIP3    H255467   5.680   2.329   4.267  0.8668  0.6452 -0.1379
11326TIP3   OH255468   5.914   1.861   0.863  0.2076  0.7066  0.0391
11326TIP3    H155469   6.003   1.830   0.878 -0.2129 -0.0583  1.0908
11326TIP3    H255470   5.861   1.781   0.860 -0.6988  1.2260  1.3552
11327TIP3   OH255471   3.848   4.007   5.334 -0.1793 -0.1921 -0.5204
11327TIP3    H155472   3.759   3.999   5.299 -0.1097 -2.1777 -0.3212
11327TIP3    H255473   3.892   3.926   5.308  1.9518  1.1685 -1.5718
11328TIP3   OH255474   4.564   0.755   1.701 -0.1178 -0.0247  0.0709
11328TIP3    H155475   4.625   0.698   1.748 -0.4889  0.6266  1.3865
11328TIP3    H255476   4.477   0.725   1.727 -0.3230  1.2765  1.0152
11329TIP3   OH255477   3.307   6.730   0.504  0.0395  0.3226  0.0974
11329TIP3    H155478   3.308   6.642   0.466 -0.9035  0.2805  0.1598
11329TIP3    H255479   3.390   6.736   0.551 -0.5387 -1.1017  1.3890
11330TIP3   OH255480   6.413   6.300  12.608 -0.2250  0.2344  0.3118
11330TIP3    H155481   6.362   6.374  12.575  0.3688  0.8267  0.7001
11330TIP3    H255482   6.403   6.305  12.703 -1.0446 -0.8212  0.3013
11331TIP3   OH255483   6.345   2.536  14.954 -0.3545  0.4741  0.0788
11331TIP3    H155484   6.275   2.477  14.926  1.5182 -1.2560 -1.1736
11331TIP3    H255485   6.362   2.590  14.877  0.7147 -0.1823 -0.1614
11332TIP3   OH255486   1.840   6.788   2.910  0.2163  0.2858  0.0173
11332TIP3    H155487   1.774   6.806   2.843  0.6762  1.3242 -0.1836
11332TIP3    H255488   1.796   6.729   2.971 -1.0615  1.2932  0.1186
11333TIP3   OH255489   2.960   1.704   3.943 -0.4463  0.3474 -0.1858
11333TIP3    H155490   2.911   1.691   3.861 -1.4105 -1.4921  0.6278
11333TIP3    H255491   3.019   1.629   3.948  1.8646  2.0233 -0.6543
11334TIP3   OH255492   4.805   2.812   5.177  0.6111  0.0582  0.0794
11334TIP3    H155493   4.859   2.877   5.221  0.0882  0.2749  0.4079
11334TIP3    H255494   4.776   2.754   5.247 -0.5350  0.6243  0.0884
11335TIP3   OH255495   4.328   5.638   2.930  0.0960 -0.1794 -0.2167
11335TIP3    H155496   4.276   5.559   2.920 -1.7735  0.7236  1.7548
11335TIP3    H255497   4.305   5.692   2.855  0.5529 -1.0052 -0.9755
11336TIP3   OH255498   3.745   3.518   2.805  0.1357 -0.4224 -0.3272
11336TIP3    H155499   3.711   3.430   2.823  0.0838 -0.4504 -0.5555
11336TIP3    H255500   3.829   3.503   2.762  0.0372 -0.3665 -0.5450
11337TIP3   OH255501   3.156   6.059   5.225 -0.4417  0.4376  0.1406
11337TIP3    H155502   3.110   6.045   5.142  0.3081  0.5103 -0.2961
11337TIP3    H255503   3.246   6.080   5.200 -0.1019  0.0617  0.9847
11338TIP3   OH255504   6.098   1.906   2.680  0.7778 -0.1129  0.3226
11338TIP3    H155505   6.023   1.860   2.642  0.3833 -0.3204  1.3213
11338TIP3    H255506   6.162   1.910   2.609 -0.4763  0.7792 -0.8096
11339TIP3   OH255507   5.520   4.178  11.678  0.0308 -0.0493 -0.2657
11339TIP3    H155508   5.477   4.112  11.624  0.5083 -0.5811 -0.0153
11339TIP3    H255509   5.600   4.199  11.630 -1.0342  1.8247 -1.3408
11340TIP3   OH255510   5.482   6.572  10.711 -0.3989 -0.2801 -0.0508
11340TIP3    H155511   5.492   6.665  10.734 -0.4199 -0.5585  1.1527
11340TIP3    H255512   5.396   6.567  10.670 -0.3295  0.2585 -0.2683
11341TIP3   OH255513   2.726   3.299   4.730  0.2831 -0.2234 -0.5662
11341TIP3    H155514   2.743   3.212   4.767 -0.9380 -0.5020 -0.6222
11341TIP3    H255515   2.661   3.283   4.661 -0.2126  0.7739 -0.3454
11342TIP3   OH255516   3.189   3.809  16.423  0.5266 -0.5254  0.1506
11342TIP3    H155517   3.251   3.775  16.487 -0.5724  0.8069  1.9936
11342TIP3    H255518   3.229   3.787  16.338  3.9732  0.9773  1.1986
11343TIP3   OH255519   5.068   6.496  13.022  0.2330 -0.5242 -0.3305
11343TIP3    H155520   4.977   6.471  13.005 -0.2243  0.8461 -0.0732
11343TIP3    H255521   5.084   6.570  12.962  1.2282 -0.8413 -0.4794
11344TIP3   OH255522   3.111   5.238   4.711  0.2384 -0.2517  0.2303
11344TIP3    H155523   3.183   5.202   4.763 -0.2788  0.4272  1.4667
11344TIP3    H255524   3.154   5.298   4.650  0.6973  0.5277  1.2930
11345TIP3   OH255525   3.712   3.642  13.100  0.2625  0.3875  0.3344
11345TIP3    H155526   3.748   3.730  13.110  0.8410  0.1496  0.4229
11345TIP3    H255527   3.659   3.629  13.179 -1.1697  1.2515 -0.4329
11346TIP3   OH255528   5.827   5.518   5.866  0.2435 -0.2747 -0.5505
11346TIP3    H155529   5.903   5.504   5.810  0.6453  0.0890 -0.0986
11346TIP3    H255530   5.784   5.433   5.870  0.4297 -0.3963 -1.0932
11347TIP3   OH255531   2.260   2.883  16.127  0.7166  0.2682  0.1403
11347TIP3    H155532   2.326   2.923  16.184 -0.8944  1.3796  1.2942
11347TIP3    H255533   2.185   2.941  16.133 -0.4403 -1.0531 -1.0130
11348TIP3   OH255534   5.413   3.751  13.254 -0.0905  0.1585 -0.0261
11348TIP3    H155535   5.333   3.699  13.242 -0.0667 -0.7731  3.0063
11348TIP3    H255536   5.482   3.696  13.216 -0.5210 -0.4592  0.0593
11349TIP3   OH255537   2.295   4.899   2.699  0.2982  0.0738  0.4057
11349TIP3    H155538   2.204   4.899   2.730 -0.2627 -0.2191 -1.1526
11349TIP3    H255539   2.305   4.813   2.656  1.5280 -0.1647  1.1427
11350TIP3   OH255540   0.566   2.549   5.523 -0.0748  0.4382 -0.1300
11350TIP3    H155541   0.500   2.592   5.469  0.3109  0.1174 -0.8599
11350TIP3    H255542   0.515   2.496   5.585 -0.5583 -2.0911 -2.5027
11351TIP3   OH255543   6.634   5.963  13.762 -0.4171  0.1168  0.3568
11351TIP3    H155544   6.636   5.888  13.702  1.5790  0.6430 -0.2947
11351TIP3    H255545   6.684   5.934  13.838 -0.9398  0.2884  0.7788
11352TIP3   OH255546   3.710   5.592   1.553  0.3605  0.0555 -0.2491
11352TIP3    H155547   3.719   5.520   1.615 -0.1728 -1.4133 -1.7973
11352TIP3    H255548   3.671   5.663   1.604  0.7041 -0.8104  1.2763
11353TIP3   OH255549   3.210   2.636  16.049 -0.5818 -0.6033 -0.0312
11353TIP3    H155550   3.248   2.567  16.104  0.0291 -1.6461 -1.6687
11353TIP3    H255551   3.268   2.640  15.972 -0.7047  1.6415 -0.0697
11354TIP3   OH255552   4.768   6.252  14.836  0.2559 -0.0864 -0.2264
11354TIP3    H155553   4.775   6.173  14.781 -1.5672 -0.0253 -0.6134
11354TIP3    H255554   4.684   6.242  14.882 -0.2457  1.8123 -0.6286
11355TIP3   OH255555   0.102   1.632   4.766  0.0061 -0.6820 -0.2571
11355TIP3    H155556   0.189   1.655   4.798 -1.3037 -0.2251  3.3811
11355TIP3    H255557   0.076   1.707   4.712  0.7130  0.6084  1.1283
11356TIP3   OH255558   3.271   1.192  13.581 -0.0513 -0.6270  0.5015
11356TIP3    H155559   3.208   1.225  13.645 -1.2930 -1.4399 -0.2626
11356TIP3    H255560   3.218   1.165  13.506  1.1768 -1.5703 -0.0729
11357TIP3   OH255561   2.288   4.269   1.950 -0.0937  0.1236  0.4055
11357TIP3    H155562   2.333   4.289   1.868 -0.8177  2.3336  0.4773
11357TIP3    H255563   2.316   4.338   2.010 -0.7140 -0.6145  1.5635
11358TIP3   OH255564   3.396   3.473  12.884 -0.0999  0.2747 -0.0504
11358TIP3    H155565   3.427   3.403  12.943 -1.2271  2.1649  3.0237
11358TIP3    H255566   3.470   3.534  12.879 -0.8184  1.3579  1.6070
11359TIP3   OH255567   1.738   0.866   1.670  0.3596  0.3243 -0.1259
11359TIP3    H155568   1.748   0.959   1.647 -1.5571  0.6848  0.3497
11359TIP3    H255569   1.808   0.822   1.621  1.1956  1.9794 -0.5051
11360TIP3   OH255570   5.811   6.750   3.553  0.0494 -0.6184  0.2254
11360TIP3    H155571   5.778   6.662   3.572 -0.1115 -0.4788  0.6045
11360TIP3    H255572   5.796   6.799   3.634  0.1488 -0.2440  0.0185
11361TIP3   OH255573   4.866   0.514   0.586  0.7587  0.0371  0.0802
11361TIP3    H155574   4.865   0.440   0.526  0.0943  0.6206 -0.6584
11361TIP3    H255575   4.781   0.557   0.572 -0.0174 -0.5744  2.4376
11362TIP3   OH255576   6.331   6.689   1.459 -0.1108 -0.5068  0.0466
11362TIP3    H155577   6.326   6.767   1.404  0.4562  0.4759  1.3249
11362TIP3    H255578   6.315   6.721   1.548  0.2723 -1.8171  0.6173
11363TIP3   OH255579   6.104   5.099   3.458  0.5975  0.0238  0.5501
11363TIP3    H155580   6.171   5.106   3.526 -0.7067 -2.6310  2.2534
11363TIP3    H255581   6.065   5.187   3.455  2.5561  0.9848  1.1243
11364TIP3   OH255582   1.641   5.653  15.567  1.0245 -0.4044 -0.4300
11364TIP3    H155583   1.728   5.650  15.527  1.1266  0.2138 -0.2606
11364TIP3    H255584   1.604   5.736  15.537  1.1977  0.1950  0.9431
11365TIP3   OH255585   6.635   4.105  16.202  0.1387  0.2544 -0.4335
11365TIP3    H155586   6.679   4.189  16.201 -0.8788  0.8844  1.5203
11365TIP3    H255587   6.646   4.073  16.292 -3.9532  0.8543  0.4701
11366TIP3   OH255588   2.491   3.026   4.970 -1.0257  0.2845  0.9385
11366TIP3    H155589   2.544   3.039   5.049  1.4253 -0.0378 -0.5362
11366TIP3    H255590   2.553   3.034   4.898 -2.8562 -1.0504 -0.9101
11367TIP3   OH255591   1.386   3.039   3.947 -0.2066 -0.2329  0.1719
11367TIP3    H155592   1.420   3.051   3.859  0.7483 -1.4049  0.3569
11367TIP3    H255593   1.296   3.007   3.934  0.1086 -0.9263 -0.4014
11368TIP3   OH255594   3.620   2.108   1.645  0.6349 -0.4243  0.2282
11368TIP3    H155595   3.680   2.084   1.574  0.5581 -1.9621  0.6659
11368TIP3    H255596   3.603   2.201   1.630  1.6693 -0.3958 -0.9852
11369TIP3   OH255597   3.394   4.072   3.761  0.0840  0.3011  0.2480
11369TIP3    H155598   3.337   4.000   3.732  1.5201 -0.4060 -0.9565
11369TIP3    H255599   3.335   4.146   3.771 -1.1497 -0.5592 -0.3455
11370TIP3   OH255600   4.643   1.008  11.664  0.0939 -0.0255  0.8820
11370TIP3    H155601   4.723   0.965  11.634  0.7557  1.7150  0.0325
11370TIP3    H255602   4.670   1.098  11.684 -2.0789  1.3484 -1.7867
11371TIP3   OH255603   5.418   4.361  10.906  0.3102  0.0306 -0.4292
11371TIP3    H155604   5.467   4.291  10.950 -1.6791  0.4614  2.8304
11371TIP3    H255605   5.479   4.434  10.900  0.7076 -0.0522  1.8038
11372TIP3   OH255606   3.655   1.508   4.266 -0.0061 -0.2403  0.0729
11372TIP3    H155607   3.621   1.590   4.300  0.1859 -0.4414  0.7711
11372TIP3    H255608   3.750   1.520   4.264 -0.1136  0.5815 -2.5552
11373TIP3   OH255609   3.264   1.090   4.626 -0.1828  0.2866  0.2385
11373TIP3    H155610   3.350   1.050   4.620 -0.2854  0.1010  0.0122
11373TIP3    H255611   3.233   1.066   4.713  0.1475  0.6647  0.4629
11374TIP3   OH255612   1.532   3.409  12.406  0.0043 -0.3510 -0.3722
11374TIP3    H155613   1.566   3.397  12.495  0.4966  1.0917 -0.3422
11374TIP3    H255614   1.480   3.489  12.411  0.1162 -0.2020 -1.4165
11375TIP3   OH255615   0.001   1.051   4.706  0.1267 -0.0662  0.8142
11375TIP3    H155616   0.056   1.118   4.665 -0.8407  0.7037  0.7421
11375TIP3    H255617  -0.087   1.068   4.672 -0.6029  0.2048  2.6889
11376TIP3   OH255618   4.193   3.321  11.639 -0.1889 -0.6373 -0.5486
11376TIP3    H155619   4.200   3.311  11.544 -1.0482 -0.1834 -0.6687
11376TIP3    H255620   4.236   3.242  11.674  1.1742 -0.2572 -1.2677
11377TIP3   OH255621   5.949   1.422  13.853  0.1151 -0.5766 -0.1895
11377TIP3    H155622   5.903   1.505  13.861  1.7856  0.4273 -0.3621
11377TIP3    H255623   5.935   1.378  13.936  0.3206  0.5038  0.4399
11378TIP3   OH255624   1.159   3.933   0.269  0.4969  0.9156  0.1397
11378TIP3    H155625   1.160   3.938   0.365 -0.8209 -1.6509  0.3758
11378TIP3    H255626   1.067   3.951   0.246  0.3425 -0.5237 -0.4378
11379TIP3   OH255627   4.389   1.363   4.626 -0.0565 -0.1610  0.1743
11379TIP3    H155628   4.333   1.441   4.634  0.1630  0.2048 -1.4584
11379TIP3    H255629   4.363   1.324   4.543  0.3450 -1.4505  0.6335
11380TIP3   OH255630   2.260   2.598  13.999  0.0393  0.6770 -0.3272
11380TIP3    H155631   2.264   2.590  13.904 -1.5912  4.2943 -0.8638
11380TIP3    H255632   2.288   2.688  14.017  0.2274  0.1269  2.6369
11381TIP3   OH255633   1.694   0.022   3.397  0.2136 -0.2890 -0.0587
11381TIP3    H155634   1.683   0.044   3.489 -1.0520  2.0437 -0.6732
11381TIP3    H255635   1.608  -0.008   3.369  0.3786 -0.2436 -0.6303
11382TIP3   OH255636   0.432   2.708  11.708  0.5550 -0.7731 -0.2848
11382TIP3    H155637   0.426   2.685  11.616  1.0534 -0.4091 -0.4156
11382TIP3    H255638   0.439   2.803  11.709 -0.1553 -0.7145  0.1721
11383TIP3   OH255639   2.435   1.884  13.908 -0.2548  0.2297 -0.6100
11383TIP3    H155640   2.422   1.979  13.907 -0.5492  0.1885 -1.2424
11383TIP3    H255641   2.347   1.848  13.895 -0.3445 -0.1584  0.9540
11384TIP3   OH255642   4.793   3.932  14.487 -0.3727  0.2665 -0.2111
11384TIP3    H155643   4.718   3.875  14.470 -0.2560 -0.2569  0.9017
11384TIP3    H255644   4.862   3.897  14.431  0.0378 -1.4624  1.2731
11385TIP3   OH255645   3.664   6.667  12.011 -0.1254  0.3070  0.1637
11385TIP3    H155646   3.603   6.733  11.979  2.5966  2.0326 -1.9243
11385TIP3    H255647   3.665   6.600  11.942 -0.9119 -0.6459  1.0389
11386TIP3   OH255648   5.946   6.023  16.251  0.4984 -0.6729 -0.1641
11386TIP3    H155649   5.850   6.021  16.257  0.1653  1.7816 -2.7952
11386TIP3    H255650   5.968   5.946  16.199 -0.3702  0.2185 -1.9125
11387TIP3   OH255651   4.542   4.584   1.256  0.1913  0.4177  0.0114
11387TIP3    H155652   4.471   4.570   1.318 -0.6613  0.6323 -0.8834
11387TIP3    H255653   4.619   4.543   1.296 -0.4426  0.1648  0.9818
11388TIP3   OH255654   0.013   2.524   3.084  0.1445 -0.0380  0.1131
11388TIP3    H155655   0.081   2.457   3.087  0.9979  0.8207  1.4175
11388TIP3    H255656  -0.023   2.526   3.173 -1.9365 -0.7710 -0.6450
11389TIP3   OH255657   2.126   2.658   3.714  0.7863 -0.2816  0.2448
11389TIP3    H155658   2.108   2.730   3.773  0.9403  0.8807 -1.0729
11389TIP3    H255659   2.069   2.673   3.639  1.6103 -0.9064 -0.5306
11390TIP3   OH255660   0.828   6.353  12.973 -0.0390 -0.1320  0.4001
11390TIP3    H155661   0.840   6.297  12.896  1.1164  0.4143  0.1686
11390TIP3    H255662   0.746   6.400  12.956  0.0010 -0.3070 -0.3145
11391TIP3   OH255663   6.660   4.396  11.115  0.7077 -0.0109 -0.2612
11391TIP3    H155664   6.593   4.461  11.094 -0.7373 -1.5306 -0.6105
11391TIP3    H255665   6.697   4.372  11.030  1.2204  0.3305 -0.1362
11392TIP3   OH255666   1.997   3.612  12.106  0.3163  0.3435 -0.0237
11392TIP3    H155667   1.929   3.546  12.117 -0.0987  0.8459  0.4827
11392TIP3    H255668   2.079   3.562  12.110  0.0281 -0.0815  0.8510
11393TIP3   OH255669   4.350   5.236   3.122 -0.2157 -0.4761 -0.5868
11393TIP3    H155670   4.358   5.260   3.030 -2.5073 -1.2409 -1.0414
11393TIP3    H255671   4.396   5.152   3.128  0.3407 -0.2036 -0.9041
11394TIP3   OH255672   0.132   4.233   1.442  0.5832 -0.0503  0.4757
11394TIP3    H155673   0.118   4.194   1.528  0.1610 -0.1046  0.3840
11394TIP3    H255674   0.224   4.215   1.422  0.1828 -1.8216  0.0285
11395TIP3   OH255675   0.795   6.114   2.993  0.3447  0.4262  0.3366
11395TIP3    H155676   0.807   6.056   2.918 -0.6068  0.5694  0.0566
11395TIP3    H255677   0.701   6.130   2.996  0.5345  1.5755  0.6946
11396TIP3   OH255678   6.274   5.269  15.408 -0.1985  0.2959  0.6568
11396TIP3    H155679   6.286   5.190  15.354 -0.0153  1.3934 -0.9853
11396TIP3    H255680   6.265   5.340  15.344 -1.4469  1.4704  2.0763
11397TIP3   OH255681   4.534   5.991   2.278  0.3645 -0.2998  0.5918
11397TIP3    H155682   4.535   5.928   2.351  0.6505 -0.4392  0.4713
11397TIP3    H255683   4.624   6.025   2.275  0.8113 -1.4872 -0.7174
11398TIP3   OH255684   3.684   5.482   0.492  0.4792 -0.2415  0.6429
11398TIP3    H155685   3.767   5.488   0.444 -0.4544  0.0359 -1.0436
11398TIP3    H255686   3.669   5.570   0.525  0.6071 -0.1576  0.4804
11399TIP3   OH255687   5.378   3.281  15.930 -0.3898 -0.0035 -0.2616
11399TIP3    H155688   5.434   3.225  15.985 -2.0133 -3.0449 -1.4778
11399TIP3    H255689   5.289   3.256  15.954 -1.2186  2.5282 -0.5244
11400TIP3   OH255690   1.651   2.578   1.060  0.6560 -0.1051 -0.4255
11400TIP3    H155691   1.621   2.488   1.075 -0.2344 -0.0858 -1.9349
11400TIP3    H255692   1.711   2.595   1.133  0.5821 -1.7945  0.0805
11401TIP3   OH255693   1.786   4.071   5.687 -0.5386 -0.0610  0.1651
11401TIP3    H155694   1.800   4.116   5.603 -1.9596  1.6602  0.8126
11401TIP3    H255695   1.697   4.037   5.682 -0.1773 -1.0987  0.4916
11402TIP3   OH255696   5.744   4.286   6.120  0.3280 -0.3289  0.7412
11402TIP3    H155697   5.724   4.373   6.088  1.5054 -1.0179 -2.1732
11402TIP3    H255698   5.810   4.299   6.188  0.6200  1.0171  0.2168
11403TIP3   OH255699   2.863   3.871   3.276  0.0665 -0.1736 -0.2576
11403TIP3    H155700   2.895   3.882   3.366  1.7044 -3.5186 -0.2533
11403TIP3    H255701   2.768   3.877   3.284  0.1935  0.0751  1.6203
11404TIP3   OH255702   4.106   2.679   0.232  0.8893  0.6469 -0.1062
11404TIP3    H155703   4.117   2.762   0.278 -0.0423  2.0077 -2.2234
11404TIP3    H255704   4.017   2.652   0.252  0.8208  0.7274 -0.3008
11405TIP3   OH255705   2.023   5.040  14.626 -0.1510  0.0907 -0.3667
11405TIP3    H155706   2.005   5.129  14.596  1.7147  1.1993  1.5723
11405TIP3    H255707   1.937   5.003  14.645 -0.9342  1.6351 -0.7939
11406TIP3   OH255708   5.051   4.866   4.431  0.0954 -0.2280 -0.0964
11406TIP3    H155709   5.069   4.784   4.384 -0.9503  0.2200 -1.3377
11406TIP3    H255710   4.981   4.843   4.492  2.2365 -1.1064  2.2321
11407TIP3   OH255711   6.335   1.324  11.591 -0.1585 -0.2114  0.2803
11407TIP3    H155712   6.284   1.264  11.644 -0.0202 -1.3827 -0.8646
11407TIP3    H255713   6.289   1.328  11.507  1.1907 -0.7018 -0.5182
11408TIP3   OH255714   3.454   4.824  16.858 -0.7467 -0.3429  0.0046
11408TIP3    H155715   3.398   4.798  16.931 -0.4495  0.3996  0.5039
11408TIP3    H255716   3.490   4.908  16.884 -0.7198 -0.0105 -1.0470
11409TIP3   OH255717   1.044   6.648  13.923  0.2266  0.5303 -0.4170
11409TIP3    H155718   1.038   6.592  13.846  2.4299  0.8236 -0.8881
11409TIP3    H255719   1.042   6.737  13.888  2.4509  0.6761 -0.3728
11410TIP3   OH255720   3.848   1.885   2.306 -0.0302  0.1464  0.3510
11410TIP3    H155721   3.918   1.899   2.370 -0.3141 -0.5845  0.8356
11410TIP3    H255722   3.863   1.796   2.274  0.1827  0.5484 -0.7079
11411TIP3   OH255723   5.026   6.042   5.180 -0.0643 -0.3486 -0.2994
11411TIP3    H155724   5.111   6.002   5.163  1.2620  1.9172  0.5553
11411TIP3    H255725   5.007   6.019   5.271  0.9271  1.2561  0.3460
11412TIP3   OH255726   3.908   4.289   3.080  0.4237 -0.2499 -0.0478
11412TIP3    H155727   3.903   4.243   3.164  0.0320  0.0915  0.1179
11412TIP3    H255728   4.002   4.294   3.061  0.4582 -1.8535 -0.4762
11413TIP3   OH255729   2.423   3.597   3.828  0.1311 -0.3161 -0.3721
11413TIP3    H155730   2.510   3.573   3.798  0.4498 -1.4660  1.3975
11413TIP3    H255731   2.368   3.521   3.806  0.0926 -0.6102  0.7240
11414TIP3   OH255732   4.254   3.584   0.774  0.4494 -1.1122  0.0726
11414TIP3    H155733   4.283   3.588   0.683  0.9949  0.3022  0.2895
11414TIP3    H255734   4.159   3.595   0.769  0.3464 -2.1204 -0.3883
11415TIP3   OH255735   6.372   5.749   2.625 -0.2105 -0.1688  0.8790
11415TIP3    H155736   6.297   5.799   2.656 -0.7427 -0.7614  0.5644
11415TIP3    H255737   6.337   5.661   2.607  0.1857 -0.0217 -0.8261
11416TIP3   OH255738   2.743   6.545   0.437 -0.1076 -0.6064  0.5687
11416TIP3    H155739   2.782   6.599   0.369 -1.6418  1.2926  1.1105
11416TIP3    H255740   2.780   6.578   0.519 -1.4168  0.0000  0.9424
11417TIP3   OH255741   0.037   1.222   2.820  0.7467 -0.6470 -0.1665
11417TIP3    H155742   0.123   1.230   2.861  0.5206  0.3051  0.1512
11417TIP3    H255743   0.040   1.284   2.747  0.2078 -0.3467  0.0667
11418TIP3   OH255744   0.255   4.920   1.496 -0.3167 -0.0079 -0.1196
11418TIP3    H155745   0.229   4.887   1.411  0.9564 -0.8313 -0.2184
11418TIP3    H255746   0.237   5.014   1.492 -0.0032  0.0172 -1.4037
11419TIP3   OH255747   5.444   3.094   0.395 -0.2572 -0.0555  0.0204
11419TIP3    H155748   5.349   3.083   0.391 -0.2351  0.0035 -3.1115
11419TIP3    H255749   5.475   3.017   0.442 -1.8420  0.0922  1.3909
11420TIP3   OH255750   2.527   5.882  12.139  0.0954 -0.1936  0.4582
11420TIP3    H155751   2.615   5.870  12.103  0.0014 -1.3846  0.5978
11420TIP3    H255752   2.541   5.904  12.231  0.2496 -1.7337  0.8375
11421TIP3   OH255753   3.515   1.019  10.627 -0.0668 -0.3951  0.1955
11421TIP3    H155754   3.602   1.029  10.666 -0.6980  1.2643  1.2756
11421TIP3    H255755   3.530   0.968  10.547  1.5224 -2.4947  1.7053
11422TIP3   OH255756   1.789   2.215  11.961  0.2448  0.0877 -0.4407
11422TIP3    H155757   1.820   2.304  11.976  1.2460 -0.3576  0.3099
11422TIP3    H255758   1.716   2.224  11.900 -1.1702  1.6382  1.3337
11423TIP3   OH255759   4.409   5.976   4.041 -0.2705 -0.2348 -0.0527
11423TIP3    H155760   4.391   6.044   4.106 -1.8288 -0.2630 -0.4154
11423TIP3    H255761   4.340   5.986   3.976  0.5369 -1.0060 -1.0682
11424TIP3   OH255762   0.004   1.590   1.721 -0.4561 -0.6007  0.9500
11424TIP3    H155763  -0.039   1.676   1.728 -0.4442 -0.7425  3.4537
11424TIP3    H255764   0.085   1.609   1.673 -0.8671  0.6240  0.6838
11425TIP3   OH255765   2.279   1.328  15.785 -0.4736 -0.2418  0.1531
11425TIP3    H155766   2.349   1.283  15.832 -1.1269 -0.8082  0.5994
11425TIP3    H255767   2.323   1.368  15.710  0.1534 -1.5896 -0.2403
11426TIP3   OH255768   5.899   3.089   2.964 -0.1303  0.7000  0.4415
11426TIP3    H155769   5.992   3.097   2.944  0.1019  0.7202  1.4520
11426TIP3    H255770   5.858   3.065   2.881  0.6433  1.6232 -0.2315
11427TIP3   OH255771   0.515   4.239  15.154 -0.2627  0.4825 -0.3540
11427TIP3    H155772   0.567   4.222  15.233 -0.8709  0.4813  0.0509
11427TIP3    H255773   0.580   4.244  15.084  0.1446 -1.1056 -0.1141
11428TIP3   OH255774   1.840   6.093   0.795 -0.3548 -0.0565 -0.0463
11428TIP3    H155775   1.777   6.093   0.867 -1.3264  1.2265 -0.8638
11428TIP3    H255776   1.897   6.018   0.814  1.4545  1.9988  3.7644
11429TIP3   OH255777   2.062   2.625   1.070  0.1198  0.0078 -0.3074
11429TIP3    H155778   2.010   2.599   1.146  3.1941  0.8448  2.3017
11429TIP3    H255779   2.050   2.720   1.064  0.1653 -0.0065 -0.6880
11430TIP3   OH255780   0.932   2.120  10.492  0.0038  0.2152  0.0720
11430TIP3    H155781   0.915   2.212  10.512 -0.4227  0.0791  0.3532
11430TIP3    H255782   0.848   2.086  10.463 -0.0169 -0.2654  0.6637
11431TIP3   OH255783   1.464   4.482   0.464  0.1047  0.0378 -0.3481
11431TIP3    H155784   1.439   4.434   0.386 -0.4985 -1.6256  0.8152
11431TIP3    H255785   1.503   4.416   0.521  1.8784  1.4796  0.2077
11432TIP3   OH255786   2.121   4.937   0.900 -0.3300 -0.6214 -0.0463
11432TIP3    H155787   2.057   4.977   0.841 -1.3984  0.5760  1.8114
11432TIP3    H255788   2.069   4.881   0.958  0.2111  0.4359  1.5569
11433TIP3   OH255789   3.877   1.989  12.556 -0.0613  0.6465  0.1832
11433TIP3    H155790   3.826   2.045  12.615 -0.8927  2.2987 -1.9450
11433TIP3    H255791   3.909   1.918  12.612 -2.5653  0.9165  2.1705
11434TIP3   OH255792   0.740   1.760   1.867 -0.1863  0.1367  0.5910
11434TIP3    H155793   0.667   1.698   1.860  0.4364 -1.1903  3.7385
11434TIP3    H255794   0.810   1.721   1.814 -1.4580  1.1314 -1.9791
11435TIP3   OH255795   2.524   0.767  16.069  0.3765 -0.1733  0.3656
11435TIP3    H155796   2.607   0.814  16.074  0.8248 -1.0676  2.3808
11435TIP3    H255797   2.511   0.730  16.157 -2.4080  0.3268  0.2803
11436TIP3   OH255798   3.874   2.607   3.070  0.7858  0.1919  0.7552
11436TIP3    H155799   3.947   2.573   3.018  0.7733  0.6048  0.4611
11436TIP3    H255800   3.849   2.689   3.026 -0.2463 -0.2428  0.4959
11437TIP3   OH255801   4.562   4.783   5.776  0.8019  0.5441  0.3049
11437TIP3    H155802   4.586   4.840   5.702 -0.2377 -0.0952 -0.5603
11437TIP3    H255803   4.475   4.750   5.753  0.6762 -0.0620  1.5967
11438TIP3   OH255804   4.339   0.011   3.765 -0.1123 -0.1666 -0.2807
11438TIP3    H155805   4.387  -0.066   3.795  1.4455  0.5558 -0.7897
11438TIP3    H255806   4.260  -0.024   3.724  0.5323 -1.4861 -0.4466
11439TIP3   OH255807   1.084   4.437  11.390  0.3361  0.0737 -0.5716
11439TIP3    H155808   1.092   4.394  11.476  2.7137  0.6732 -0.4223
11439TIP3    H255809   1.068   4.365  11.329 -1.0993 -0.3960  0.3020
11440TIP3   OH255810   5.012   4.310  11.582 -0.5206  0.3056  0.0516
11440TIP3    H155811   4.919   4.333  11.572 -1.1331 -1.6302  0.9023
11440TIP3    H255812   5.048   4.320  11.494 -1.6521  0.6044 -0.3984
11441TIP3   OH255813   4.403   2.913   1.479 -0.2901  0.2643  0.1173
11441TIP3    H155814   4.456   2.886   1.554  0.4304 -0.2703 -0.5655
11441TIP3    H255815   4.382   2.831   1.434  1.0813  0.7075 -1.4355
11442TIP3   OH255816   0.034   2.705  11.785  0.0366 -0.7356 -0.4685
11442TIP3    H155817   0.096   2.641  11.750  0.1857 -0.7443 -0.1863
11442TIP3    H255818  -0.049   2.684  11.742 -0.2847 -2.1094  0.7919
11443TIP3   OH255819   3.706   2.920   0.571  0.0687 -0.0223 -0.1212
11443TIP3    H155820   3.614   2.945   0.571  0.1874  0.6358 -2.0135
11443TIP3    H255821   3.706   2.827   0.547 -0.1237 -0.3285  1.0082
11444TIP3   OH255822   1.202   5.330  12.191 -0.0702  0.1074 -0.0252
11444TIP3    H155823   1.138   5.269  12.154  0.1943  1.1267 -2.2846
11444TIP3    H255824   1.287   5.286  12.179  0.0175  0.4469 -0.7082
11445TIP3   OH255825   0.850   5.919  13.802 -0.4726 -0.1064  0.0616
11445TIP3    H155826   0.761   5.888  13.819 -0.8844  1.0026  0.0017
11445TIP3    H255827   0.898   5.841  13.776 -1.5738 -0.6251 -0.4739
11446TIP3   OH255828   2.498   1.374   2.606 -0.5714  0.0978 -0.5535
11446TIP3    H155829   2.416   1.402   2.567 -1.2516 -1.6315 -0.4603
11446TIP3    H255830   2.472   1.326   2.685  0.5969  0.5370  0.1212
11447TIP3   OH255831   4.336   2.599   0.380 -0.1251 -0.3532 -0.7549
11447TIP3    H155832   4.295   2.611   0.465 -0.4206 -2.4282 -0.5538
11447TIP3    H255833   4.263   2.593   0.318  0.0814  0.9114 -1.1646
11448TIP3   OH255834   1.897   2.474  12.074  0.2632 -0.4610 -0.2662
11448TIP3    H155835   1.953   2.471  12.151  1.2732  1.6300 -0.8363
11448TIP3    H255836   1.957   2.461  12.000  0.0088  1.4561 -0.8696
11449TIP3   OH255837   2.411   1.355  12.133  0.3251 -0.0771 -0.6377
11449TIP3    H155838   2.501   1.333  12.159  0.7214  3.7511  2.1514
11449TIP3    H255839   2.422   1.424  12.067 -0.4370  1.2478  0.5565
11450TIP3   OH255840   4.289   6.619  15.808  0.3398 -0.0820 -0.5091
11450TIP3    H155841   4.225   6.650  15.872 -0.8199 -0.0200 -1.6551
11450TIP3    H255842   4.236   6.583  15.736  1.5772  0.5851 -1.8056
11451TIP3   OH255843   3.552   4.022  14.956 -0.4345 -0.4136  0.4198
11451TIP3    H155844   3.645   4.010  14.976 -0.7132 -1.8509  0.9760
11451TIP3    H255845   3.545   4.113  14.926  1.3632 -0.6608 -0.8864
11452TIP3   OH255846   1.074   5.435  14.420 -0.0960 -0.0458  0.0090
11452TIP3    H155847   1.136   5.493  14.376  0.7152 -0.9807 -0.1046
11452TIP3    H255848   1.018   5.494  14.471  0.0848  0.9052 -0.8625
11453TIP3   OH255849   6.217   3.761  16.263 -0.3121  0.2548 -0.0833
11453TIP3    H155850   6.172   3.747  16.346 -3.4167  2.7279 -1.1338
11453TIP3    H255851   6.163   3.715  16.199  0.3131  0.9199 -1.1126
11454TIP3   OH255852   4.385   0.586  16.899  0.4666 -0.3161 -0.2307
11454TIP3    H155853   4.331   0.628  16.966 -0.0307 -0.9027 -0.2562
11454TIP3    H255854   4.327   0.577  16.823  1.0715  0.4802 -0.7995
11455TIP3   OH255855   5.176   3.388   2.617 -0.0528 -0.4672  0.7720
11455TIP3    H155856   5.248   3.326   2.601 -1.2453 -1.6925 -0.1280
11455TIP3    H255857   5.173   3.442   2.539  0.4815  0.2345  1.2228
11456TIP3   OH255858   2.755   5.748  15.554  0.3026 -0.1843  0.2993
11456TIP3    H155859   2.669   5.781  15.583  0.7160 -0.1984  1.6236
11456TIP3    H255860   2.751   5.752  15.459 -0.8590  0.6333  0.3530
11457TIP3   OH255861   5.584   0.701  16.874  0.3058 -0.3541 -0.0070
11457TIP3    H155862   5.618   0.617  16.907  0.1841 -0.0123  1.0256
11457TIP3    H255863   5.528   0.677  16.800  0.7689 -1.1301 -0.1215
11458TIP3   OH255864   3.831   3.214  15.425 -0.0777 -0.2698  0.1055
11458TIP3    H155865   3.833   3.155  15.500  0.3415 -0.0709  0.2563
11458TIP3    H255866   3.749   3.193  15.380  0.3680 -1.4247 -0.2123
11459TIP3   OH255867   6.694   3.158  10.739 -0.1435  0.0635 -0.3841
11459TIP3    H155868   6.628   3.222  10.764 -1.8835 -1.4682 -0.7855
11459TIP3    H255869   6.675   3.140  10.646 -0.0182 -1.3569 -0.1526
11460TIP3   OH255870   4.739   0.291  15.270 -0.4400  0.6999 -0.4823
11460TIP3    H155871   4.793   0.213  15.253 -0.2770  1.0413 -1.5583
11460TIP3    H255872   4.653   0.256  15.291 -0.3871  0.2272 -1.0364
11461TIP3   OH255873   1.112   5.566   5.663  0.1110 -0.3164  0.9005
11461TIP3    H155874   1.154   5.506   5.602 -0.4082  1.1471 -1.0143
11461TIP3    H255875   1.181   5.592   5.723  1.4385  0.3691 -0.8475
11462TIP3   OH255876   0.097   2.222   5.276 -0.5911  0.5695  0.8930
11462TIP3    H155877   0.110   2.131   5.252  1.5186  1.1174 -0.2574
11462TIP3    H255878   0.003   2.229   5.293 -0.8173 -1.7582  0.8601
11463TIP3   OH255879   5.501   6.266  11.670 -0.5763 -0.4746 -0.3823
11463TIP3    H155880   5.409   6.276  11.646 -0.6899 -0.2547  0.1323
11463TIP3    H255881   5.504   6.286  11.764  0.2821  1.4564 -0.7662
11464TIP3   OH255882   0.112   5.360   5.663  0.0247 -0.1778  0.2932
11464TIP3    H155883   0.174   5.299   5.703  0.2070 -0.6771 -0.7310
11464TIP3    H255884   0.098   5.426   5.731 -1.5878 -2.2769  2.1830
11465TIP3   OH255885   5.405   3.763   4.860  0.1416  0.2377  0.1008
11465TIP3    H155886   5.498   3.781   4.846  0.1177  0.4982  0.2601
11465TIP3    H255887   5.402   3.714   4.942  0.2873 -1.3472 -0.8027
11466TIP3   OH255888   4.790   1.813   3.169 -0.7973 -0.3731 -0.0005
11466TIP3    H155889   4.728   1.801   3.241 -1.9397  0.6590 -0.7665
11466TIP3    H255890   4.749   1.770   3.094 -0.6211  0.3353 -0.5193
11467TIP3   OH255891   1.800   2.825   1.401  0.0189 -0.2209  0.0275
11467TIP3    H155892   1.756   2.879   1.467  2.4307  0.2046  1.4247
11467TIP3    H255893   1.892   2.854   1.404  0.3072 -0.4454 -3.3180
11468TIP3   OH255894   2.895   1.172   4.872  0.5184  0.2001  0.5814
11468TIP3    H155895   2.963   1.233   4.901 -1.1331  2.1384  0.5488
11468TIP3    H255896   2.827   1.227   4.834 -1.1817 -1.6471  0.7700
11469TIP3   OH255897   1.602   0.903   0.301 -0.2484 -0.3706 -0.1683
11469TIP3    H155898   1.556   0.855   0.369  0.3188  0.7623  1.0692
11469TIP3    H255899   1.693   0.874   0.307 -0.0650  0.2264  0.0208
11470TIP3   OH255900   0.954   0.935   2.729 -0.2935  0.1841  0.2838
11470TIP3    H155901   0.939   0.925   2.635 -1.2596 -1.7004  0.5881
11470TIP3    H255902   0.967   1.029   2.741  0.0837  0.4403 -1.7509
11471TIP3   OH255903   2.398   6.633  16.873 -0.2474 -0.3503  0.0772
11471TIP3    H155904   2.419   6.722  16.847  2.1754 -1.3821 -1.9036
11471TIP3    H255905   2.314   6.640  16.918 -0.7811  2.7176 -1.1768
11472TIP3   OH255906   4.361   0.710   3.840  0.4237  0.0137  0.3261
11472TIP3    H155907   4.361   0.619   3.813  0.4377  0.0276  0.2786
11472TIP3    H255908   4.274   0.725   3.877  0.0734  0.2481 -0.5823
11473TIP3   OH255909   2.253   2.737  12.849 -0.0780 -0.1164  0.6066
11473TIP3    H155910   2.343   2.705  12.843  0.7306  2.1672 -0.7422
11473TIP3    H255911   2.220   2.701  12.932  1.9564 -1.2412  0.9887
11474TIP3   OH255912   1.611   2.822   3.198 -0.4977 -0.3008  0.1378
11474TIP3    H155913   1.654   2.850   3.117 -0.2933  0.2199  0.4225
11474TIP3    H255914   1.592   2.903   3.245  1.3302 -0.6556  1.6108
11475TIP3   OH255915   2.704   0.208  10.567 -0.3487  0.2132 -0.6541
11475TIP3    H155916   2.669   0.154  10.638  1.5742 -0.1140  0.1001
11475TIP3    H255917   2.627   0.239  10.520 -1.5766 -2.1774 -0.3725
11476TIP3   OH255918   0.818   0.969   4.061  0.6996 -0.0685  0.1394
11476TIP3    H155919   0.903   1.012   4.049  0.2913  0.8507  0.4275
11476TIP3    H255920   0.762   1.038   4.097 -0.6504 -0.1628 -1.6442
11477TIP3   OH255921   3.671   4.163   3.729 -0.3921 -0.3459  0.2155
11477TIP3    H155922   3.673   4.128   3.818  1.7561 -0.8054  0.0442
11477TIP3    H255923   3.579   4.181   3.712 -1.1912 -2.7628  1.5442
11478TIP3   OH255924   2.504   1.655  10.399 -0.5327  0.5903  0.2633
11478TIP3    H155925   2.422   1.609  10.379 -0.6966  1.0859 -0.2125
11478TIP3    H255926   2.573   1.593  10.374 -0.7499  0.7169 -0.6685
11479TIP3   OH255927   5.216   1.674   4.340  0.1430 -0.3715  0.1419
11479TIP3    H155928   5.147   1.646   4.400  1.2252 -1.0041  1.1334
11479TIP3    H255929   5.281   1.715   4.397  0.7094 -0.0410 -0.7350
11480TIP3   OH255930   1.559   4.021   4.749  0.2152 -0.1489 -0.4084
11480TIP3    H155931   1.579   3.995   4.839  2.4778 -1.9030 -1.3430
11480TIP3    H255932   1.465   4.002   4.740 -0.5157  1.6961  2.0201
11481TIP3   OH255933   6.339   6.049   3.803  0.3358  0.5075  0.8692
11481TIP3    H155934   6.341   5.961   3.765  0.3621  0.8371  0.0813
11481TIP3    H255935   6.354   6.107   3.729 -0.8698  1.2408  1.1670
11482TIP3   OH255936   3.979   6.842  12.786 -0.4725 -0.6646 -0.6789
11482TIP3    H155937   3.911   6.897  12.827  2.9454  3.1268  0.6223
11482TIP3    H255938   4.012   6.788  12.858  0.2028  0.1200 -0.3858
11483TIP3   OH255939   4.988   6.393  13.278 -0.4862 -0.4446  0.4298
11483TIP3    H155940   5.055   6.427  13.339 -2.7640  0.9597  2.3151
11483TIP3    H255941   5.019   6.419  13.192  1.3707  0.1846  1.2214
11484TIP3   OH255942   2.498   6.520  16.505  0.2011  0.1382  0.1388
11484TIP3    H155943   2.536   6.513  16.417  0.7384 -1.7738  0.4879
11484TIP3    H255944   2.409   6.488  16.495  0.5501 -0.9591  0.4517
11485TIP3   OH255945   4.161   6.835  15.022  0.0586 -0.2338 -0.1081
11485TIP3    H155946   4.115   6.912  14.986 -1.6960 -1.1691  0.0060
11485TIP3    H255947   4.156   6.770  14.952 -1.8059 -1.4700  1.0836
11486TIP3   OH255948   1.385   2.870   5.404 -0.3241  0.1671 -0.2160
11486TIP3    H155949   1.423   2.789   5.437 -0.2696 -0.4948 -1.8182
11486TIP3    H255950   1.446   2.898   5.335 -0.7938  1.1115 -0.2590
11487TIP3   OH255951   3.346   6.341   4.458 -0.1072 -0.3056 -0.3253
11487TIP3    H155952   3.283   6.397   4.411  0.6323 -0.2876 -1.3308
11487TIP3    H255953   3.424   6.341   4.403 -0.5898 -3.6198 -1.2386
11488TIP3   OH255954   5.691   2.540  16.932  0.1080  0.9291  0.6199
11488TIP3    H155955   5.737   2.556  16.849 -0.2573 -0.0135  0.2128
11488TIP3    H255956   5.759   2.515  16.993  0.1639 -0.4339  0.0294
11489TIP3   OH255957   2.877   5.780   5.922 -0.0365  0.8046  0.1658
11489TIP3    H155958   2.836   5.844   5.980  1.5017  1.9925 -0.0131
11489TIP3    H255959   2.932   5.832   5.863  0.3729 -0.5883 -0.7353
11490TIP3   OH255960   0.247   5.770   5.736  0.6988  0.2998  0.3815
11490TIP3    H155961   0.224   5.734   5.650 -0.4904  1.8020  0.0210
11490TIP3    H255962   0.198   5.852   5.741  0.7028  0.2184  2.5351
11491TIP3   OH255963   4.409   2.201   2.462  0.3626  0.0807  0.2436
11491TIP3    H155964   4.353   2.188   2.386  1.8076 -0.3110 -0.7955
11491TIP3    H255965   4.383   2.286   2.497  0.1203  0.5723 -1.0906
11492TIP3   OH255966   2.110   5.695  16.611  0.0211 -0.2506  0.3566
11492TIP3    H155967   2.060   5.699  16.529 -1.1901 -0.2894  1.0676
11492TIP3    H255968   2.138   5.604  16.618  1.3169  0.0340 -0.6676
11493TIP3   OH255969   5.286   5.799   3.696  0.1860 -0.6073  0.0270
11493TIP3    H155970   5.199   5.791   3.736 -0.5300 -0.6546 -1.4320
11493TIP3    H255971   5.302   5.712   3.658  0.3079 -0.2455 -0.7602
11494TIP3   OH255972   3.488   4.305  15.490  0.0790  0.0108  0.2524
11494TIP3    H155973   3.516   4.298  15.399 -1.3677  1.4894 -0.3677
11494TIP3    H255974   3.421   4.237  15.501 -1.4185  1.2669 -0.5468
11495TIP3   OH255975   0.626   2.596  15.001  0.0368  0.4001 -0.7862
11495TIP3    H155976   0.641   2.547  15.082  0.4292  1.0827 -0.4378
11495TIP3    H255977   0.538   2.632  15.011  0.9115  2.3976  0.3948
11496TIP3   OH255978   1.439   1.504  11.669  0.3451  0.2518  0.3779
11496TIP3    H155979   1.371   1.571  11.679 -0.4076 -0.4551  0.1241
11496TIP3    H255980   1.403   1.427  11.713  0.3758 -0.5451 -0.9473
11497TIP3   OH255981   0.570   4.000   1.546  0.8352  0.0047 -0.1781
11497TIP3    H155982   0.626   3.939   1.592  1.1707 -0.2363 -0.8961
11497TIP3    H255983   0.624   4.034   1.474  0.3857  0.5129 -0.2902
11498TIP3   OH255984   6.573   3.760   1.863 -0.1872 -0.5703 -0.2518
11498TIP3    H155985   6.505   3.692   1.858 -0.4482 -0.3166 -0.1517
11498TIP3    H255986   6.655   3.711   1.860 -0.2762 -0.6881 -3.7508
11499TIP3   OH255987   1.786   4.681   3.641 -0.1647 -0.4479  0.1126
11499TIP3    H155988   1.716   4.656   3.702 -0.0900 -1.6465 -0.2528
11499TIP3    H255989   1.866   4.681   3.694 -0.5917  2.4538  0.8882
11500TIP3   OH255990   5.537   6.416  15.027  0.1915 -0.7221 -0.0056
11500TIP3    H155991   5.459   6.460  14.994  0.6663 -0.2000 -0.4560
11500TIP3    H255992   5.530   6.422  15.122 -0.0409 -0.1760 -0.0532
11501TIP3   OH255993   2.847   3.493   2.912 -0.8745  0.0962 -0.4265
11501TIP3    H155994   2.858   3.433   2.838 -1.6167  0.0846 -0.5412
11501TIP3    H255995   2.841   3.436   2.988  1.2198  0.1679 -0.1688
11502TIP3   OH255996   4.863   2.602  11.901  0.2830  0.3878  0.0363
11502TIP3    H155997   4.888   2.532  11.841  0.2165  0.3875  0.0080
11502TIP3    H255998   4.931   2.603  11.968  0.7649  0.8848 -0.4451
11503TIP3   OH255999   6.593   0.727   1.931  0.0964  0.6399 -0.4094
11503TIP3    H156000   6.573   0.665   1.861  2.1134 -0.7592  0.1745
11503TIP3    H256001   6.670   0.775   1.900 -0.5500  1.8706 -0.2135
11504TIP3   OH256002   1.361   0.229   1.937  0.5144 -0.1326 -0.0098
11504TIP3    H156003   1.349   0.231   2.032 -1.7514  0.9295 -0.2413
11504TIP3    H256004   1.398   0.314   1.915 -0.1544  0.1184 -0.1848
11505TIP3   OH256005   5.905   2.118   2.385  0.5303 -0.3559  0.2431
11505TIP3    H156006   5.862   2.056   2.326  1.9814 -0.9275 -0.2591
11505TIP3    H256007   5.888   2.084   2.473  0.5203 -0.9434  0.0153
11506TIP3   OH256008   0.011   4.579  16.044  0.3809  0.3415 -0.2132
11506TIP3    H156009   0.088   4.615  16.090  0.4581 -0.8715  0.6420
11506TIP3    H256010  -0.023   4.653  15.994  0.5666  1.6304  1.4530
11507TIP3   OH256011   6.336   4.380   5.822 -0.6227 -0.3412 -1.0671
11507TIP3    H156012   6.247   4.386   5.785  0.5403 -1.1574 -4.3731
11507TIP3    H256013   6.357   4.469   5.849 -2.4301 -0.1479 -0.0941
11508TIP3   OH256014   1.978   2.322  13.431  0.2184  0.6320  0.4965
11508TIP3    H156015   1.916   2.319  13.504 -0.0883 -0.4538  0.2076
11508TIP3    H256016   1.975   2.413  13.401 -0.2728  0.8934  1.2948
11509TIP3   OH256017   0.670   6.616   5.228 -0.3488  0.4006 -0.1989
11509TIP3    H156018   0.648   6.525   5.250 -0.2555  0.7272  1.4148
11509TIP3    H256019   0.590   6.652   5.190 -1.9751  0.8557  3.2696
11510TIP3   OH256020   4.898   0.005  14.906 -0.2216  0.1829  0.6692
11510TIP3    H156021   4.813  -0.038  14.913 -1.4011  1.9813 -1.4052
11510TIP3    H256022   4.959  -0.065  14.881 -1.6333 -0.6968 -0.4463
11511TIP3   OH256023   0.234   4.589   4.295  0.6045 -0.4114 -0.2554
11511TIP3    H156024   0.145   4.559   4.277  0.3600  0.5608 -0.7754
11511TIP3    H256025   0.247   4.661   4.233  1.3972  0.0902  0.4707
11512TIP3   OH256026   2.840   0.756   2.882 -0.3401  0.1836  0.1470
11512TIP3    H156027   2.804   0.788   2.799  0.7338  2.3248  0.4424
11512TIP3    H256028   2.785   0.681   2.904 -1.9418  0.7861 -1.4967
11513TIP3   OH256029   6.782   5.154   3.635  0.3564 -0.1260 -0.2382
11513TIP3    H156030   6.831   5.144   3.553  4.6417 -1.2592  2.1305
11513TIP3    H256031   6.775   5.065   3.670 -3.3894  0.0286 -0.2130
11514TIP3   OH256032   5.848   0.284  11.430 -0.2338 -0.2759 -0.0274
11514TIP3    H156033   5.877   0.226  11.360 -1.2212  0.1701 -0.8393
11514TIP3    H256034   5.836   0.369  11.388 -0.3275  0.1367  0.8031
11515TIP3   OH256035   4.560   3.365  13.877  0.0979 -0.6713  0.4519
11515TIP3    H156036   4.575   3.459  13.864  2.0371 -1.0687 -0.5580
11515TIP3    H256037   4.623   3.339  13.944 -0.8684 -1.1646  1.2006
11516TIP3   OH256038   2.724   1.780  12.494 -0.2190  0.1525 -0.3962
11516TIP3    H156039   2.642   1.778  12.543  0.1442 -1.0026  0.1931
11516TIP3    H256040   2.703   1.741  12.410 -0.4885  0.7197 -0.5935
11517TIP3   OH256041   6.821   4.329   0.259 -0.2285 -0.4364 -0.4715
11517TIP3    H156042   6.750   4.392   0.262 -0.6932 -0.9798  0.3971
11517TIP3    H256043   6.885   4.367   0.198 -0.4862  0.8575  0.0383
11518TIP3   OH256044   5.823   1.741   3.723  0.6268  0.1548  0.2853
11518TIP3    H156045   5.874   1.721   3.644 -0.5067  0.5637 -0.5841
11518TIP3    H256046   5.811   1.657   3.766  1.7992  0.0172  0.3710
11519TIP3   OH256047   5.312   0.389   2.381 -0.0116 -0.1050 -0.0786
11519TIP3    H156048   5.362   0.365   2.302 -0.8001 -1.2330 -0.2536
11519TIP3    H256049   5.334   0.481   2.395  1.6386 -0.3920 -0.4972
11520TIP3   OH256050   5.928   2.211  13.752  0.1248  0.4959 -0.1508
11520TIP3    H156051   5.845   2.243  13.788 -1.1417 -2.9846  0.3476
11520TIP3    H256052   5.905   2.178  13.665  1.1341  0.1262 -0.2850
11521TIP3   OH256053   1.842   5.056  16.611  0.3156 -0.0098 -0.3674
11521TIP3    H156054   1.770   5.007  16.571 -0.3790  1.1047 -0.5539
11521TIP3    H256055   1.833   5.040  16.705 -0.7321  0.7832 -0.3090
11522TIP3   OH256056   1.507   5.226   2.941  0.0419 -1.1212 -0.3071
11522TIP3    H156057   1.508   5.265   2.853 -1.1857 -1.0476 -0.3059
11522TIP3    H256058   1.582   5.266   2.985  2.3734 -3.2079 -2.1409
11523TIP3   OH256059   3.279   1.031  14.815  0.0492 -0.5823 -0.0866
11523TIP3    H156060   3.236   1.013  14.899 -0.7335 -2.3970 -0.8212
11523TIP3    H256061   3.243   0.965  14.755  2.0654 -0.6146 -1.3574
11524TIP3   OH256062   4.358   0.344   0.027 -0.1519 -0.6908  0.0465
11524TIP3    H156063   4.444   0.338   0.069  0.0785  0.5335 -0.2228
11524TIP3    H256064   4.342   0.437   0.018 -1.4042 -0.9126 -0.1461
11525TIP3   OH256065   4.565   5.198   5.208  0.5276  0.2479  0.0701
11525TIP3    H156066   4.612   5.132   5.258 -0.0115 -0.2739 -0.0977
11525TIP3    H256067   4.633   5.244   5.158  0.8717 -0.3832 -0.0508
11526TIP3   OH256068   5.592   3.948  13.006 -0.1086 -0.0662 -0.6243
11526TIP3    H156069   5.546   3.964  12.923  0.1536  2.2956 -0.3960
11526TIP3    H256070   5.566   4.021  13.062  0.3531 -1.1750  1.1306
11527TIP3   OH256071   0.589   3.934   3.693 -0.0118 -0.7524  0.8337
11527TIP3    H156072   0.668   3.975   3.727  0.5444  0.0542 -1.2677
11527TIP3    H256073   0.620   3.859   3.642 -0.6879 -1.0189  0.7956
11528TIP3   OH256074   4.322   5.660  12.519 -0.1056 -0.4732 -0.0866
11528TIP3    H156075   4.389   5.729  12.515 -0.2465  0.0123  3.3311
11528TIP3    H256076   4.277   5.667  12.435  0.7693  2.7027 -0.4441
11529TIP3   OH256077   4.446   1.833  10.927 -0.5649  0.1430 -0.0628
11529TIP3    H156078   4.434   1.916  10.973  0.4923  0.2422  0.0633
11529TIP3    H256079   4.474   1.859  10.839  1.2771 -0.0525  0.4143
11530TIP3   OH256080   4.781   2.505  14.158  0.2977  0.2628 -0.1647
11530TIP3    H156081   4.718   2.534  14.224 -0.5498 -1.6362 -0.0630
11530TIP3    H256082   4.822   2.585  14.126 -0.3102  1.3388  1.6328
11531TIP3   OH256083   5.916   0.735   1.225  0.2759 -0.0703  0.5364
11531TIP3    H156084   5.833   0.731   1.273  0.3703 -0.6281  0.6520
11531TIP3    H256085   5.966   0.660   1.256  1.0170  0.5248  0.8053
11532TIP3   OH256086   4.144   6.133   4.161  0.6622  0.4858 -0.2193
11532TIP3    H156087   4.052   6.118   4.181  0.7132  0.0553 -0.3126
11532TIP3    H256088   4.147   6.148   4.066  1.0497 -2.4680 -0.7564
11533TIP3   OH256089   5.556   6.156   0.982  0.2861 -0.1110  0.0484
11533TIP3    H156090   5.579   6.085   0.921 -1.7638  0.1906 -1.1766
11533TIP3    H256091   5.622   6.150   1.051  0.6598 -2.7177 -0.4078
11534TIP3   OH256092   4.863   1.282   1.761 -0.2673 -0.6073  0.0394
11534TIP3    H156093   4.777   1.250   1.789 -0.6983 -0.5672 -1.2022
11534TIP3    H256094   4.924   1.217   1.795 -0.2749  1.3083  4.4205
11535TIP3   OH256095   4.262   2.028   3.873 -0.0094  0.3912 -0.0517
11535TIP3    H156096   4.208   2.017   3.795 -0.7469  1.0256  0.3581
11535TIP3    H256097   4.250   2.119   3.898 -0.4990 -0.0299  1.3214
11536TIP3   OH256098   1.086   6.711   1.391  0.6479 -0.3898 -0.4444
11536TIP3    H156099   1.140   6.634   1.406  2.9629  1.4601  1.5547
11536TIP3    H256100   1.043   6.727   1.475  0.5437  0.6931 -0.6895
11537TIP3   OH256101   4.684   6.761   4.230  0.1414 -0.3325 -0.1978
11537TIP3    H156102   4.747   6.690   4.240 -0.4437 -0.8327 -0.0032
11537TIP3    H256103   4.644   6.770   4.317  0.9366  0.9414  0.0723
11538TIP3   OH256104   0.696   1.080   4.444 -0.6031 -0.3327  0.1677
11538TIP3    H156105   0.790   1.096   4.433 -0.5654  0.3479  1.2829
11538TIP3    H256106   0.655   1.164   4.422 -0.7610  0.0360  1.7397
11539TIP3   OH256107   0.783   1.926  12.128 -0.2452 -0.0740 -0.7662
11539TIP3    H156108   0.852   1.861  12.113  0.7907  0.9056 -0.4013
11539TIP3    H256109   0.701   1.879  12.111  0.2039 -2.4630  2.6309
11540TIP3   OH256110   3.046   6.493   2.377 -0.0471 -0.6962 -0.3512
11540TIP3    H156111   3.009   6.486   2.289 -0.9964  1.2633 -0.1652
11540TIP3    H256112   3.027   6.409   2.418 -1.9743 -0.7082 -1.1586
11541TIP3   OH256113   5.005   2.918  10.923 -0.4577  0.0407  0.2326
11541TIP3    H156114   5.010   2.963  10.838 -1.1593 -0.2033  0.0504
11541TIP3    H256115   5.004   2.825  10.900 -0.5760 -0.0278  0.5126
11542TIP3   OH256116   4.464   5.903  11.561  0.0829 -0.1559  0.4971
11542TIP3    H156117   4.475   5.844  11.636  1.8178 -1.1501 -0.4610
11542TIP3    H256118   4.528   5.872  11.497  0.4697  2.2564 -0.3915
11543TIP3   OH256119   0.577   3.442   6.289  0.1143 -0.9307  0.3176
11543TIP3    H156120   0.538   3.363   6.327  0.1744 -1.3128 -0.3934
11543TIP3    H256121   0.501   3.499   6.270 -0.1536 -1.7151 -1.1561
11544TIP3   OH256122   5.701   0.930   5.640  0.1252  0.8299  0.3658
11544TIP3    H156123   5.782   0.953   5.686 -0.1853  0.3415  1.1798
11544TIP3    H256124   5.731   0.890   5.558  0.8248 -2.0279  1.8921
11545TIP3   OH256125   4.199   3.008   3.413 -0.4763  0.4367 -0.2232
11545TIP3    H156126   4.145   2.952   3.357 -0.9650 -0.3375  0.9807
11545TIP3    H256127   4.141   3.078   3.440 -0.5973  0.1340  0.3010
11546TIP3   OH256128   6.624   0.474   0.543 -0.3644 -0.2999 -0.1254
11546TIP3    H156129   6.654   0.489   0.633 -1.1087  0.0544  0.0754
11546TIP3    H256130   6.684   0.409   0.507  1.4589  1.3262 -0.1706
11547TIP3   OH256131   4.484   6.327  14.229 -0.2138  0.2047  0.5836
11547TIP3    H156132   4.543   6.281  14.170  0.9351 -1.7675  3.1161
11547TIP3    H256133   4.402   6.277  14.225  0.3366 -0.8226  1.7034
11548TIP3   OH256134   0.043   2.882  13.414 -0.1909 -0.2742  0.2820
11548TIP3    H156135   0.090   2.918  13.339  0.4473 -0.1806  0.7203
11548TIP3    H256136   0.099   2.901  13.489 -1.9466  1.8228  1.1576
11549TIP3   OH256137   3.110   1.908   5.555 -0.5164  0.1916  0.9665
11549TIP3    H156138   3.144   1.985   5.600 -0.1014  0.9040 -0.5110
11549TIP3    H256139   3.157   1.834   5.594  0.4889  0.8712  1.0704
11550TIP3   OH256140   1.450   6.688  11.831 -0.7344 -0.7813 -0.7045
11550TIP3    H156141   1.412   6.600  11.829 -0.8200 -0.7827  0.3904
11550TIP3    H256142   1.536   6.675  11.871 -0.7350 -0.3668 -0.5726
11551TIP3   OH256143   0.333   4.163  17.133 -0.1963  0.1323 -0.0354
11551TIP3    H156144   0.397   4.092  17.141 -1.6899 -1.5901 -2.1483
11551TIP3    H256145   0.360   4.211  17.055 -0.4559  0.5746  0.1402
11552TIP3   OH256146   3.435   3.475  15.075  0.3245 -0.1140 -0.5062
11552TIP3    H156147   3.463   3.384  15.079 -0.1250 -0.2227  2.3675
11552TIP3    H256148   3.378   3.479  14.999 -0.8771 -2.6493  0.1460
11553TIP3   OH256149   4.796   5.725   1.508  0.2724  0.3731 -0.0540
11553TIP3    H156150   4.845   5.782   1.568 -1.5159  1.4617  0.4503
11553TIP3    H256151   4.854   5.714   1.433  1.7648  0.6131  1.0123
11554TIP3   OH256152   3.920   4.669   0.119 -0.2465 -0.0132  0.8958
11554TIP3    H156153   3.930   4.724   0.041 -1.7841  1.5122  1.7133
11554TIP3    H256154   3.829   4.640   0.117 -1.3802  2.8103  3.7757
11555TIP3   OH256155   2.917   2.899   2.170 -0.4010 -0.7076  0.4032
11555TIP3    H156156   2.984   2.937   2.113  1.0320  0.0080  2.4586
11555TIP3    H256157   2.939   2.806   2.174 -0.2324 -0.6773  0.1777
11556TIP3   OH256158   2.679   4.612  11.198 -0.1595 -0.2509  0.0202
11556TIP3    H156159   2.719   4.577  11.278 -0.7935  0.1273  0.5084
11556TIP3    H256160   2.748   4.605  11.133  0.8494  0.7574  0.9477
11557TIP3   OH256161   5.332   0.036  14.452  0.3201  0.5266  0.1839
11557TIP3    H156162   5.293   0.075  14.531  2.1853  2.5249  0.2224
11557TIP3    H256163   5.306   0.095  14.381 -0.5335 -0.7203 -0.5714
11558TIP3   OH256164   2.000   5.133   0.168 -0.5287 -0.3185 -0.2402
11558TIP3    H156165   1.996   5.049   0.213 -1.2481  0.5932  1.5246
11558TIP3    H256166   1.956   5.194   0.228  0.8688  1.5165 -0.9852
11559TIP3   OH256167   1.058   3.417   2.533 -0.0481 -0.0478  0.2488
11559TIP3    H156168   1.149   3.396   2.512 -0.1262  0.4603 -0.6412
11559TIP3    H256169   1.007   3.368   2.468 -0.3845  0.1114  0.3917
11560TIP3   OH256170   2.713   3.218   0.169  0.0190 -0.2966 -0.4475
11560TIP3    H156171   2.681   3.266   0.246 -0.3856  0.9655 -1.3738
11560TIP3    H256172   2.733   3.286   0.105 -0.2568 -1.3530 -1.6879
11561TIP3   OH256173   0.121   0.595  15.772 -0.8287 -0.5431 -0.5946
11561TIP3    H156174   0.062   0.609  15.846 -0.2910 -0.4736 -0.1688
11561TIP3    H256175   0.069   0.548  15.707 -1.5487  0.1076 -0.4990
11562TIP3   OH256176   4.561   0.403  11.199 -0.2548  0.2982  0.3685
11562TIP3    H156177   4.584   0.494  11.213  0.2611  0.1903  0.2524
11562TIP3    H256178   4.604   0.356  11.271 -1.3383  0.2491  1.0124
11563TIP3   OH256179   2.360   3.816   3.634  0.1229 -0.2573  0.0688
11563TIP3    H156180   2.455   3.832   3.628  0.2458 -1.3963 -2.3219
11563TIP3    H256181   2.351   3.722   3.617 -1.4820 -0.0736 -0.2250
11564TIP3   OH256182   5.113   2.267  16.289  0.6129 -0.4794  0.2212
11564TIP3    H156183   5.024   2.267  16.252  0.5291 -0.0947  0.4201
11564TIP3    H256184   5.139   2.175  16.288  0.6055 -0.4778 -0.7693
11565TIP3   OH256185   2.753   4.659   1.708  0.1004  0.1720 -0.0732
11565TIP3    H156186   2.708   4.726   1.656 -0.5449  1.4526  2.0057
11565TIP3    H256187   2.793   4.601   1.644 -1.5669  1.0309 -1.9750
11566TIP3   OH256188   0.315   6.015   4.784  0.4452  0.0390 -0.3720
11566TIP3    H156189   0.335   6.060   4.866 -1.3104 -0.4282  0.3509
11566TIP3    H256190   0.249   6.069   4.742 -0.6276 -1.0824 -0.1788
11567TIP3   OH256191   2.259   5.819   1.124 -0.0928  0.3664  0.1377
11567TIP3    H156192   2.333   5.774   1.162 -0.0159 -0.2864 -0.7406
11567TIP3    H256193   2.190   5.813   1.190 -0.1372 -1.2097 -0.0219
11568TIP3   OH256194   5.180   2.884   5.129  0.2484 -0.1742 -0.0233
11568TIP3    H156195   5.141   2.823   5.066 -2.3714  0.3897  0.9263
11568TIP3    H256196   5.252   2.836   5.168  0.4798 -1.3598 -1.8022
11569TIP3   OH256197   2.811   0.268  11.441 -0.2041 -0.4829 -0.1479
11569TIP3    H156198   2.879   0.309  11.387 -0.4394 -1.3521 -1.1375
11569TIP3    H256199   2.825   0.174  11.429 -1.1301 -0.6740  0.2091
11570TIP3   OH256200   5.330   5.108  11.299  0.4707 -0.3152  0.1941
11570TIP3    H156201   5.358   5.159  11.223  1.0187  0.0020  0.6040
11570TIP3    H256202   5.321   5.173  11.369 -2.8529 -0.0850 -0.2619
11571TIP3   OH256203   6.589   6.802   4.508 -0.5772 -0.3450  0.2603
11571TIP3    H156204   6.648   6.869   4.542 -0.3270 -0.3260 -0.2007
11571TIP3    H256205   6.609   6.724   4.561  2.1787 -1.2844 -1.9271
11572TIP3   OH256206   5.738   3.403   1.819 -0.4107  0.8079 -0.3292
11572TIP3    H156207   5.665   3.453   1.854 -0.3140 -1.7393  4.3470
11572TIP3    H256208   5.698   3.342   1.756 -2.0872  0.6025  0.8730
11573TIP3   OH256209   4.925   3.115  12.928 -0.4110  0.7258 -0.3564
11573TIP3    H156210   4.903   3.150  13.014  1.2124  0.3075  0.2699
11573TIP3    H256211   5.015   3.083  12.938 -0.3119  0.3782 -2.1207
11574TIP3   OH256212   4.174   1.290   5.100 -0.0985 -0.2510  0.0421
11574TIP3    H156213   4.249   1.288   5.040  0.9754 -0.7940  1.3593
11574TIP3    H256214   4.103   1.249   5.050  0.9568 -1.3520 -0.6254
11575TIP3   OH256215   5.382   4.562   5.313  0.3368 -0.5887 -0.0853
11575TIP3    H156216   5.443   4.636   5.309 -0.0253 -0.3104 -0.6008
11575TIP3    H256217   5.376   4.542   5.407 -0.4458  0.7956  0.1990
11576TIP3   OH256218   3.531   4.413  11.460 -0.2159  0.5104  0.0603
11576TIP3    H156219   3.492   4.341  11.410 -0.8995  1.0680 -0.2185
11576TIP3    H256220   3.578   4.465  11.396  0.2543  0.3327  0.2574
11577TIP3   OH256221   2.968   3.447   4.792  0.1875 -0.2762 -0.6474
11577TIP3    H156222   2.889   3.409   4.754 -0.0059 -0.7797  0.2396
11577TIP3    H256223   2.939   3.491   4.872  0.9582 -1.4770  0.3256
11578TIP3   OH256224   2.238   4.465   6.393  0.0200  0.4463  0.1086
11578TIP3    H156225   2.200   4.390   6.438 -1.0654  0.6058 -0.4997
11578TIP3    H256226   2.325   4.435   6.366 -0.7922 -1.0255 -1.0925
11579TIP3   OH256227   0.637   6.503  15.004  0.0481  0.0799 -0.2537
11579TIP3    H156228   0.609   6.452  15.080  2.3219  0.4472  0.9336
11579TIP3    H256229   0.557   6.546  14.972 -1.3739 -1.9066  0.4833
11580TIP3   OH256230   2.444   6.108  11.355  0.2002  0.3733  0.4761
11580TIP3    H156231   2.429   6.134  11.264 -0.3837  0.6275  0.6390
11580TIP3    H256232   2.394   6.171  11.406 -1.1020 -0.9193  0.8837
11581TIP3   OH256233   4.573   2.338   4.551  0.5283 -0.0499  0.3492
11581TIP3    H156234   4.523   2.257   4.561 -0.0324  0.3034  0.4390
11581TIP3    H256235   4.507   2.407   4.546  1.0117  0.4454  0.6557
11582TIP3   OH256236   1.037   4.650  12.974 -0.0300 -0.5980 -0.3479
11582TIP3    H156237   1.094   4.621  13.045 -0.6157 -1.1965 -0.1179
11582TIP3    H256238   0.950   4.618  12.998 -0.2115 -0.9317 -1.3941
11583TIP3   OH256239   4.825   4.984  16.826  0.3769  0.3705 -0.3857
11583TIP3    H156240   4.908   4.996  16.781  0.5767  0.7116  0.0729
11583TIP3    H256241   4.849   4.958  16.915  0.0306  2.0112  0.2207
11584TIP3   OH256242   6.270   0.955  11.996  0.7922  0.1252 -0.6097
11584TIP3    H156243   6.283   0.872  12.041  0.5812  0.6914  0.5382
11584TIP3    H256244   6.342   0.961  11.934  1.3473 -0.4803 -0.0331
11585TIP3   OH256245   3.544   0.703   3.605 -0.0216  0.6690 -0.3571
11585TIP3    H156246   3.580   0.763   3.670  2.3009 -0.9796  0.0282
11585TIP3    H256247   3.465   0.667   3.647 -0.3993  2.0404  0.1497
11586TIP3   OH256248   3.055   1.381  16.139  0.6923 -0.1693 -0.5286
11586TIP3    H156249   3.066   1.302  16.085  0.7671 -0.8031  0.3957
11586TIP3    H256250   3.075   1.352  16.228  2.9240  1.3873 -0.4246
11587TIP3   OH256251   2.830   2.164   4.897 -0.3363 -0.2722 -0.1420
11587TIP3    H156252   2.773   2.094   4.930  0.5079 -0.0773  1.8527
11587TIP3    H256253   2.917   2.124   4.894 -0.2426 -0.0273 -1.4412
11588TIP3   OH256254   1.895   1.255   0.878 -0.0248  0.0548  0.7197
11588TIP3    H156255   1.923   1.177   0.830 -1.2810  0.7119 -1.1912
11588TIP3    H256256   1.975   1.305   0.893  0.3969 -0.1150 -0.8632
11589TIP3   OH256257   3.605   1.208  13.939  0.6567  0.0238  0.2530
11589TIP3    H156258   3.516   1.241  13.926  0.1813 -1.4820 -0.5914
11589TIP3    H256259   3.651   1.281  13.980 -0.5626  1.3811 -0.6436
11590TIP3   OH256260   5.225   3.985  11.823 -0.2615  0.4745 -0.2361
11590TIP3    H156261   5.144   3.998  11.773 -0.7387 -1.1072  0.0746
11590TIP3    H256262   5.207   4.027  11.907 -0.1727  1.4555 -0.6889
11591TIP3   OH256263   3.004   5.133  15.014  0.2164  0.2495 -0.1878
11591TIP3    H156264   2.931   5.179  14.973  1.1063  0.0646 -2.1002
11591TIP3    H256265   2.963   5.074  15.077 -1.2498  0.4196 -0.9389
11592TIP3   OH256266   4.163   4.799  14.093  0.7276  0.6948  0.3904
11592TIP3    H156267   4.077   4.839  14.080  0.6009  0.0962 -0.7473
11592TIP3    H256268   4.225   4.872  14.088  0.2980  1.1182  1.1341
11593TIP3   OH256269   5.574   5.421   5.110  0.4313  0.3335 -0.5441
11593TIP3    H156270   5.555   5.504   5.153 -3.3031 -1.3842  1.5659
11593TIP3    H256271   5.629   5.373   5.172 -0.6920 -0.1824  0.0916
11594TIP3   OH256272   2.434   0.654  15.833 -0.3595 -0.6734  0.4396
11594TIP3    H156273   2.432   0.559  15.836  3.2257 -0.8579  1.2754
11594TIP3    H256274   2.450   0.681  15.923 -0.3890  0.6564  0.0750
11595TIP3   OH256275   1.630   4.399  11.802 -0.0905 -0.2732  0.1230
11595TIP3    H156276   1.686   4.394  11.879 -1.4433 -0.1021  1.1475
11595TIP3    H256277   1.623   4.309  11.771 -0.5499 -0.5327  0.9626
11596TIP3   OH256278   0.461   4.788   0.154  0.1743  0.2837  0.6611
11596TIP3    H156279   0.455   4.702   0.113  0.5792  0.1185  0.9490
11596TIP3    H256280   0.377   4.829   0.135  0.4158  0.2891 -0.5253
11597TIP3   OH256281   1.252   3.761   0.878  0.3675  0.3571 -0.2893
11597TIP3    H156282   1.203   3.842   0.864 -0.6215  0.4748  2.9725
11597TIP3    H256283   1.344   3.787   0.871  0.0970  2.0018  1.4177
11598TIP3   OH256284   4.833   2.011   4.715  0.1693  0.4782 -0.0895
11598TIP3    H156285   4.925   2.023   4.692  0.6811 -2.0389  0.3443
11598TIP3    H256286   4.785   2.039   4.637  1.2725  1.5491 -0.4312
11599TIP3   OH256287   4.431   5.593  11.212 -0.0960  0.2801 -0.2337
11599TIP3    H156288   4.417   5.503  11.241 -1.7747  0.5652 -0.0954
11599TIP3    H256289   4.355   5.641  11.244  0.5334  1.6574 -0.7296
11600TIP3   OH256290   3.529   2.659  15.382  0.0079  0.5956  0.4027
11600TIP3    H156291   3.508   2.692  15.295 -0.1897  0.9285  0.5711
11600TIP3    H256292   3.592   2.588  15.368 -0.2098  0.4871 -0.0242
11601TIP3   OH256293   0.737   6.002   4.505  0.0384  0.0624 -0.2832
11601TIP3    H156294   0.644   5.982   4.503 -0.6215  2.7524 -1.0696
11601TIP3    H256295   0.770   5.973   4.420 -0.3657  0.2584 -0.5064
11602TIP3   OH256296   5.423   3.893  13.774 -0.8212 -0.4181 -0.1270
11602TIP3    H156297   5.339   3.848  13.781 -1.2205  0.0352 -1.5961
11602TIP3    H256298   5.459   3.863  13.690 -0.2900  0.6371 -0.2977
11603TIP3   OH256299   5.635   4.351   5.823  0.3734 -0.1456 -0.5110
11603TIP3    H156300   5.655   4.321   5.911  1.9452  0.4563 -0.6403
11603TIP3    H256301   5.539   4.343   5.816  0.3275 -1.0997  0.8954
11604TIP3   OH256302   3.705   0.531   2.647  0.1672 -0.3078  0.2101
11604TIP3    H156303   3.749   0.464   2.699  0.4631 -0.7687 -0.6124
11604TIP3    H256304   3.663   0.482   2.575 -0.2596  0.3045  0.0334
11605TIP3   OH256305   4.258   4.500   0.036 -0.1565 -0.3652 -0.1853
11605TIP3    H156306   4.220   4.450   0.109 -0.8714  0.7907  0.2714
11605TIP3    H256307   4.340   4.455   0.016 -0.8182 -1.7667  0.1271
11606TIP3   OH256308   2.836   0.769  10.515 -0.2662  0.6052  0.5949
11606TIP3    H156309   2.927   0.767  10.543  0.8728  0.0728 -2.7169
11606TIP3    H256310   2.814   0.863  10.513 -0.1412  0.7039  2.1649
11607TIP3   OH256311   1.983   0.955  11.959 -0.1826  0.2275 -0.2443
11607TIP3    H156312   2.007   0.978  12.048  2.0455  2.0918 -1.2154
11607TIP3    H256313   2.027   0.871  11.942 -0.9524 -0.3395  0.5012
11608TIP3   OH256314   4.502   2.394   0.374 -0.2328 -0.0131 -0.3284
11608TIP3    H156315   4.553   2.391   0.293 -0.0233 -0.0874 -0.1925
11608TIP3    H256316   4.450   2.474   0.366 -0.3762 -0.1339 -0.6359
11609TIP3   OH256317   1.498   0.370   3.412  0.1197 -0.2834  0.0584
11609TIP3    H156318   1.567   0.387   3.349  1.9652 -1.3669  1.6668
11609TIP3    H256319   1.474   0.457   3.446  0.9535  0.0747 -0.2533
11610TIP3   OH256320   2.744   1.247  12.424  0.6071 -0.3020 -0.2233
11610TIP3    H156321   2.761   1.260  12.331 -2.1845  0.8425 -0.6873
11610TIP3    H256322   2.812   1.187  12.453  1.5466 -0.7145 -2.9997
11611TIP3   OH256323   2.228   6.591  15.511 -0.0826 -0.1259  0.3378
11611TIP3    H156324   2.151   6.642  15.536 -0.4254 -1.2131  1.6140
11611TIP3    H256325   2.270   6.568  15.593 -0.6306 -2.9051 -0.0547
11612TIP3   OH256326   6.018   6.009   1.138  0.0633 -0.1863 -0.4499
11612TIP3    H156327   6.045   6.100   1.128  0.5042 -0.1274  1.0617
11612TIP3    H256328   6.084   5.970   1.196 -0.6138 -1.2263 -0.3518
11613TIP3   OH256329   3.141   0.179  16.068 -0.3129  0.0336  0.0557
11613TIP3    H156330   3.071   0.154  16.008 -0.4964  1.1313 -0.2031
11613TIP3    H256331   3.127   0.123  16.144 -0.2787 -1.1493 -0.7658
11614TIP3   OH256332   1.580   0.744   1.368 -0.3964 -0.0270  0.0543
11614TIP3    H156333   1.676   0.750   1.363 -0.4263  0.4600 -0.0425
11614TIP3    H256334   1.555   0.814   1.428 -0.7769  0.6325 -0.8493
11615TIP3   OH256335   5.043   0.593   5.224  0.1460 -0.0406 -0.5482
11615TIP3    H156336   4.959   0.563   5.257 -0.6627  2.7717  0.1836
11615TIP3    H256337   5.043   0.688   5.239  2.9925  0.2188 -1.5349
11616TIP3   OH256338   0.204   1.045  15.387 -0.3767  0.1386 -0.3161
11616TIP3    H156339   0.164   0.999  15.461 -3.3351  1.4230 -1.0135
11616TIP3    H256340   0.296   1.018  15.390 -0.5816 -0.6549  3.1817
11617TIP3   OH256341   0.745   6.779  12.919  0.1981 -0.3972 -0.2317
11617TIP3    H156342   0.803   6.708  12.891  0.1617  0.4375 -2.6583
11617TIP3    H256343   0.659   6.753  12.887  0.2917  0.9688 -1.7143
11618TIP3   OH256344   6.292   5.102  16.948 -1.0432 -0.1951  0.1398
11618TIP3    H156345   6.289   5.181  17.001 -0.6125 -0.5454  0.6982
11618TIP3    H256346   6.264   5.032  17.007 -0.0669 -0.6710  0.0582
11619TIP3   OH256347   0.304   6.821   4.135 -0.2965  0.6071 -1.0055
11619TIP3    H156348   0.366   6.755   4.166 -2.2760 -0.5165  0.7356
11619TIP3    H256349   0.346   6.905   4.157  2.0623  0.0684 -2.8886
11620TIP3   OH256350   4.200   4.651  15.359  0.4474  0.3334  0.2585
11620TIP3    H156351   4.183   4.687  15.446  0.9573 -0.2187  0.5940
11620TIP3    H256352   4.118   4.664  15.311  0.4213  1.3793  0.5546
11621TIP3   OH256353   0.600   4.390  13.160  0.2047  0.0790  0.5155
11621TIP3    H156354   0.669   4.326  13.146 -1.1148 -0.9651 -1.9474
11621TIP3    H256355   0.602   4.409  13.254  0.7543 -3.4719  1.3451
11622TIP3   OH256356   4.117   1.879  15.741  0.1055  0.8300 -0.5882
11622TIP3    H156357   4.075   1.820  15.679 -1.9854 -1.1248  2.4487
11622TIP3    H256358   4.211   1.859  15.733  0.0934  1.5209 -3.7936
11623TIP3   OH256359   4.334   6.676  12.160  0.5795  0.4000 -0.0316
11623TIP3    H156360   4.295   6.589  12.150  2.6717 -0.6743  0.4758
11623TIP3    H256361   4.349   6.706  12.070 -0.9234  0.6379 -0.2207
11624TIP3   OH256362   6.143   1.895  16.200 -0.1240 -0.4903  0.0261
11624TIP3    H156363   6.204   1.834  16.159 -1.7140 -2.4743  0.4317
11624TIP3    H256364   6.196   1.943  16.263  1.5759 -0.0759 -1.6341
11625TIP3   OH256365   6.129   4.626   0.759  0.2129 -0.1068 -0.2404
11625TIP3    H156366   6.179   4.667   0.688  2.2934 -0.5002  0.9281
11625TIP3    H256367   6.150   4.678   0.837 -1.8587  0.1798  0.1814
11626TIP3   OH256368   4.056   6.042  16.232  0.0247 -0.2401 -0.8212
11626TIP3    H156369   4.035   5.997  16.314  0.4670 -0.9256 -1.0757
11626TIP3    H256370   3.997   6.117  16.230 -1.7335 -1.5621 -1.0568
11627TIP3   OH256371   0.669   2.178  16.319  0.3833  0.8608 -0.5339
11627TIP3    H156372   0.582   2.197  16.352  0.5167 -0.6334  0.7863
11627TIP3    H256373   0.700   2.261  16.283 -1.0905  1.7114  0.0832
11628TIP3   OH256374   5.745   3.545   3.466  0.1875  0.3944 -0.0748
11628TIP3    H156375   5.829   3.589   3.475  0.3537  0.3559 -1.2850
11628TIP3    H256376   5.712   3.537   3.555  0.7635  1.7868  0.2838
11629TIP3   OH256377   5.888   4.263  12.907 -0.1712 -0.6686  0.1352
11629TIP3    H156378   5.878   4.223  12.821 -4.3812  1.3592 -0.5566
11629TIP3    H256379   5.890   4.357  12.890 -0.1241 -0.2381  2.2425
11630TIP3   OH256380   6.585   1.451  16.449  0.3410  0.0544 -0.4144
11630TIP3    H156381   6.643   1.410  16.513 -0.9659 -0.9536  0.1965
11630TIP3    H256382   6.499   1.413  16.469 -0.0924 -0.4114 -2.8694
11631TIP3   OH256383   5.725   0.948   1.622  0.1507  0.1554  0.3025
11631TIP3    H156384   5.714   1.017   1.688 -0.0409  0.4827 -0.0662
11631TIP3    H256385   5.820   0.933   1.619  0.1632  0.1631  0.6291
11632TIP3   OH256386   5.837   4.344   6.577 -0.2267  0.6600 -0.0218
11632TIP3    H156387   5.845   4.272   6.639  4.5299 -0.4478 -1.5337
11632TIP3    H256388   5.886   4.416   6.616  0.6644  0.8005 -1.3269
11633TIP3   OH256389   1.621   3.315  10.354 -0.2324  0.0970 -0.1726
11633TIP3    H156390   1.707   3.340  10.320 -0.6573 -0.1767 -1.5207
11633TIP3    H256391   1.621   3.345  10.445  1.2345  0.2134 -0.1906
11634TIP3   OH256392   4.184   5.417  12.305 -0.0923  0.4615 -0.1825
11634TIP3    H156393   4.150   5.503  12.281  0.1341  0.1666 -1.6131
11634TIP3    H256394   4.107   5.359  12.302  0.0948  0.2469 -1.1439
11635TIP3   OH256395   6.219   2.476   1.946 -0.0102  1.5239 -0.4162
11635TIP3    H156396   6.144   2.500   2.000 -0.7717 -0.0832 -0.6889
11635TIP3    H256397   6.229   2.548   1.885 -0.8055  2.1484  0.1751
11636TIP3   OH256398   0.732   6.494  14.349  0.2677  0.0062  0.5752
11636TIP3    H156399   0.721   6.562  14.416  1.1530  0.2129  0.5147
11636TIP3    H256400   0.791   6.533  14.285  1.1518 -0.9757  0.7728
11637TIP3   OH256401   6.323   3.009   0.124 -0.0824  0.4065  0.0470
11637TIP3    H156402   6.244   2.961   0.146  0.1781 -0.2177 -0.3538
11637TIP3    H256403   6.291   3.084   0.073 -0.3509 -0.3587 -0.9385
11638TIP3   OH256404   6.310   0.276  13.315 -0.0248 -0.2275  0.3861
11638TIP3    H156405   6.366   0.239  13.383  1.8596  1.5106 -0.0842
11638TIP3    H256406   6.346   0.241  13.233 -0.7141 -0.3923  0.1475
11639TIP3   OH256407   0.663   5.087   3.278 -0.4568  0.4633  0.1766
11639TIP3    H156408   0.636   5.048   3.195 -1.5263  1.4152  0.0491
11639TIP3    H256409   0.704   5.015   3.326  0.0664 -0.1367 -1.1083
11640TIP3   OH256410   5.614   6.392  14.365 -0.3813 -0.4322 -0.2423
11640TIP3    H156411   5.691   6.336  14.354  0.1335  0.4191 -1.1688
11640TIP3    H256412   5.650   6.477  14.390 -1.0461 -0.1418 -0.2425
11641TIP3   OH256413   5.778   2.077   0.727 -0.2309 -0.2948  0.5138
11641TIP3    H156414   5.816   2.026   0.798  1.6092  0.0372 -0.1795
11641TIP3    H256415   5.852   2.097   0.669 -1.5102  0.1828 -1.0444
11642TIP3   OH256416   3.862   1.095   3.215 -0.0718  0.2248  0.0581
11642TIP3    H156417   3.872   1.185   3.182 -0.0636  0.6109  1.0770
11642TIP3    H256418   3.775   1.068   3.186  0.2101  0.2881 -0.8757
11643TIP3   OH256419   1.686   4.915  11.747 -0.1206  0.1369 -0.5900
11643TIP3    H156420   1.677   4.824  11.719  0.3529  0.3384 -1.4278
11643TIP3    H256421   1.729   4.909  11.832 -2.9181 -0.5646  0.9322
11644TIP3   OH256422   5.492   5.003   1.253  0.1901 -0.1073 -0.2230
11644TIP3    H156423   5.562   5.061   1.223 -1.2288  1.1908 -1.1654
11644TIP3    H256424   5.451   4.970   1.173 -1.2673  0.4322  0.2545
11645TIP3   OH256425   4.686   2.501  14.731 -0.5131 -0.4239  0.0477
11645TIP3    H156426   4.597   2.527  14.707 -0.5412  1.4317  1.8142
11645TIP3    H256427   4.742   2.557  14.676 -0.5753  2.9493  3.0245
11646TIP3   OH256428   0.486   1.492   4.698  0.1147  0.3624 -0.2814
11646TIP3    H156429   0.435   1.439   4.637  0.0977  0.7776 -0.6275
11646TIP3    H256430   0.559   1.526   4.646  1.0260 -0.6102  0.3183
11647TIP3   OH256431   6.786   4.357   2.446 -0.1435 -0.1583 -0.3188
11647TIP3    H156432   6.715   4.362   2.382  1.3880 -2.6958 -2.4765
11647TIP3    H256433   6.859   4.403   2.405  0.6249 -1.1167 -0.0916
11648TIP3   OH256434   2.790   0.554  15.944 -0.5581 -0.1263 -0.7678
11648TIP3    H156435   2.864   0.497  15.923 -0.9402 -0.5258 -1.0432
11648TIP3    H256436   2.731   0.498  15.995 -0.7465  0.1471 -0.6844
11649TIP3   OH256437   6.737   5.788   1.605  0.2051 -0.5114  0.8568
11649TIP3    H156438   6.826   5.824   1.602 -0.0363  0.2273  1.8236
11649TIP3    H256439   6.683   5.861   1.635 -0.5149 -1.3162  1.5851
11650TIP3   OH256440   4.228   4.941   3.492  0.2842 -0.0963 -0.1326
11650TIP3    H156441   4.156   4.923   3.552  2.0384  0.9808  2.4440
11650TIP3    H256442   4.284   4.863   3.498 -0.4833 -0.8680 -2.0129
11651TIP3   OH256443   1.638   6.825   1.998  0.2759  0.2466 -0.2708
11651TIP3    H156444   1.722   6.853   2.035  0.3982 -2.2091  1.6272
11651TIP3    H256445   1.576   6.891   2.027  1.2733  1.2444 -0.3170
11652TIP3   OH256446   6.075   4.775  12.945 -0.5106  0.5363  0.0871
11652TIP3    H156447   6.143   4.834  12.915  1.4376 -1.8129 -0.4615
11652TIP3    H256448   6.104   4.746  13.032 -1.4848  0.4569  0.4048
11653TIP3   OH256449   3.077   0.852  11.183  0.2522 -0.0346 -0.1866
11653TIP3    H156450   2.985   0.870  11.160  0.2235 -0.4387 -0.4023
11653TIP3    H256451   3.071   0.783  11.249  0.4195 -0.4516 -0.6028
11654TIP3   OH256452   5.024   1.344   1.162  0.0743 -0.4677  0.3580
11654TIP3    H156453   5.042   1.310   1.075  2.4379 -1.0834  1.0175
11654TIP3    H256454   4.989   1.432   1.147  2.6326  0.3691 -1.1909
11655TIP3   OH256455   5.076   6.131   0.231  0.0071 -0.5750 -0.6487
11655TIP3    H156456   5.109   6.049   0.268 -2.1379  0.2135  3.6597
11655TIP3    H256457   5.119   6.200   0.281 -2.0761  0.6905 -0.4694
11656TIP3   OH256458   6.114   3.267  14.180  0.6140  0.3747  0.0788
11656TIP3    H156459   6.164   3.288  14.260  2.1413  0.5034 -0.8600
11656TIP3    H256460   6.157   3.318  14.112  1.3510 -2.0717 -1.3975
11657TIP3   OH256461   0.946   6.659  12.746  0.1087 -0.6327 -0.4981
11657TIP3    H156462   0.941   6.568  12.719 -0.7496 -0.9841  0.7694
11657TIP3    H256463   0.939   6.709  12.664  1.1390 -1.6911 -1.2557
11658TIP3   OH256464   4.950   3.436   3.399 -0.4583 -0.6068  0.2353
11658TIP3    H156465   4.871   3.387   3.380 -0.4026 -1.0556  1.1251
11658TIP3    H256466   4.932   3.482   3.481  0.1797 -0.6893  0.4327
11659TIP3   OH256467   1.398   1.498   1.339  0.2086  0.3113 -0.1597
11659TIP3    H156468   1.367   1.431   1.277 -0.3107  1.0163 -0.6778
11659TIP3    H256469   1.441   1.564   1.283 -1.8799  1.8839 -0.0171
11660TIP3   OH256470   3.847   1.954  11.173  0.1289 -0.0141 -0.5483
11660TIP3    H156471   3.773   1.991  11.125  0.3471  0.1711 -0.7476
11660TIP3    H256472   3.919   1.954  11.109  0.3709  0.0571 -0.2779
11661TIP3   OH256473   2.050   2.856   1.173 -0.0390 -0.1147  0.0712
11661TIP3    H156474   2.036   2.888   1.262  2.8016  0.5002  0.3716
11661TIP3    H256475   2.097   2.926   1.129 -0.9390 -0.6308 -1.7968
11662TIP3   OH256476   5.850   3.344  14.797  0.3974  0.0359  0.4170
11662TIP3    H156477   5.764   3.374  14.829 -1.4710 -0.8845 -3.1688
11662TIP3    H256478   5.870   3.267  14.850 -2.2012 -1.0732 -0.0365
11663TIP3   OH256479   5.628   6.187   4.855  0.1112 -0.0509  0.4155
11663TIP3    H156480   5.589   6.147   4.933  0.3143  1.4146  1.3019
11663TIP3    H256481   5.695   6.125   4.828 -0.8392 -1.2122  0.6081
11664TIP3   OH256482   3.566   3.500  14.545  0.1019  0.2712 -0.3762
11664TIP3    H156483   3.548   3.468  14.457  0.6465 -0.1977 -0.3247
11664TIP3    H256484   3.501   3.568  14.560  0.5809  1.0194 -1.5046
11665TIP3   OH256485   0.033   3.549   2.794  0.9416 -0.4229  0.1274
11665TIP3    H156486   0.111   3.585   2.752  1.6364 -1.6703  0.2979
11665TIP3    H256487   0.016   3.467   2.747 -0.5483  0.0406 -0.2014
11666TIP3   OH256488   3.432   0.653   6.558  0.1842 -0.1577  0.2922
11666TIP3    H156489   3.493   0.726   6.558  0.3778 -0.3178  0.2510
11666TIP3    H256490   3.482   0.580   6.522  0.6847 -0.8646  2.2711
11667TIP3   OH256491   0.375   3.111   2.448  0.2716 -0.4568 -0.0431
11667TIP3    H156492   0.385   3.206   2.455 -0.6604 -0.3429 -0.1951
11667TIP3    H256493   0.283   3.098   2.425  0.5820 -1.3545 -0.8509
11668TIP3   OH256494   4.694   4.660  12.555  0.4769  0.4970 -0.3277
11668TIP3    H156495   4.698   4.567  12.579  1.1931  0.8013  0.8006
11668TIP3    H256496   4.737   4.664  12.470  0.8569 -0.1495 -0.1778
11669TIP3   OH256497   3.270   6.453   5.132  0.4039 -0.0109  0.3853
11669TIP3    H156498   3.239   6.400   5.058  2.2502  0.4362 -0.7724
11669TIP3    H256499   3.360   6.475   5.110  0.4819  1.5542  2.0183
11670TIP3   OH256500   0.200   4.451   2.377 -0.8423 -0.2079  0.0051
11670TIP3    H156501   0.211   4.477   2.286 -2.8987 -0.5880 -0.4040
11670TIP3    H256502   0.244   4.519   2.428  0.2361  0.0633 -1.2471
11671TIP3   OH256503   6.369   6.005  15.865 -0.4495 -0.0039  0.1090
11671TIP3    H156504   6.458   6.022  15.895  0.2376 -4.2742  1.1397
11671TIP3    H256505   6.380   5.976  15.774 -0.6266 -1.2274  0.4594
11672TIP3   OH256506   3.334   6.824   3.428 -0.3679  0.1696 -0.3777
11672TIP3    H156507   3.378   6.754   3.477  0.1729 -0.9690 -2.3642
11672TIP3    H256508   3.351   6.802   3.336 -3.7723  0.5534 -1.2133
11673TIP3   OH256509   6.773   4.445  15.740 -0.3243  0.3894 -0.2990
11673TIP3    H156510   6.713   4.489  15.800  1.4852  0.3618  1.6377
11673TIP3    H256511   6.769   4.498  15.660 -2.8686  0.3703 -0.2853
11674TIP3   OH256512   1.466   3.110   0.890 -0.3282  0.0784 -0.2881
11674TIP3    H156513   1.506   3.152   0.966  0.2449 -1.7178  0.4660
11674TIP3    H256514   1.540   3.086   0.834 -0.6331 -0.0251 -0.6543
11675TIP3   OH256515   1.808   5.997  14.310  0.3844  1.7000 -0.2668
11675TIP3    H156516   1.768   6.070  14.358  0.7926  1.9345 -0.2728
11675TIP3    H256517   1.838   5.937  14.378  0.7488  1.9178 -0.2303
11676TIP3   OH256518   6.439   2.257  15.615  0.3684 -0.1804 -0.0042
11676TIP3    H156519   6.432   2.337  15.563  0.3134  0.5070  1.0287
11676TIP3    H256520   6.401   2.189  15.560 -0.8137  0.7524 -0.3926
11677TIP3   OH256521   0.743   5.785   3.682  0.1909  0.5686 -0.5342
11677TIP3    H156522   0.756   5.765   3.589 -1.1924 -0.6829 -0.5003
11677TIP3    H256523   0.655   5.822   3.687  0.2000  0.5081  0.2869
11678TIP3   OH256524   5.294   1.426   3.588  0.4507 -0.6382  0.1777
11678TIP3    H156525   5.275   1.424   3.494  1.6735  0.2336 -0.1172
11678TIP3    H256526   5.385   1.456   3.593 -0.0281  0.6883  1.6904
11679TIP3   OH256527   2.309   4.265  11.168 -0.8575 -0.0779 -0.6393
11679TIP3    H156528   2.279   4.217  11.091 -1.7636 -3.1918  1.4282
11679TIP3    H256529   2.228   4.298  11.208 -0.6985 -0.7115  0.2496
11680TIP3   OH256530   5.426   4.348  12.603  0.7857 -0.2697 -0.0735
11680TIP3    H156531   5.489   4.419  12.594  1.9831 -1.0694  1.4669
11680TIP3    H256532   5.402   4.349  12.695 -1.1701 -0.2677 -0.5457
11681TIP3   OH256533   4.987   3.664   6.196 -0.0732 -0.0668 -0.4801
11681TIP3    H156534   5.026   3.609   6.264 -1.2728  0.5843  0.7989
11681TIP3    H256535   5.043   3.742   6.193  0.5892 -0.5569 -1.0077
11682TIP3   OH256536   0.892   4.644   2.142 -0.5327 -0.4698 -0.4249
11682TIP3    H156537   0.979   4.673   2.114  0.0660 -0.1930  1.5983
11682TIP3    H256538   0.906   4.555   2.176 -1.6659 -1.7522 -2.9989
11683TIP3   OH256539   3.806   1.452  12.717 -0.2414 -0.5271  0.0271
11683TIP3    H156540   3.788   1.427  12.626 -1.7627 -1.4029  0.5260
11683TIP3    H256541   3.758   1.534  12.729  2.5863  1.4124 -0.8317
11684TIP3   OH256542   1.917   2.506   0.162 -0.0543 -0.1111 -0.2579
11684TIP3    H156543   1.969   2.582   0.135  0.1623 -0.3469 -0.5175
11684TIP3    H256544   1.826   2.533   0.148 -0.0048  0.2847  0.1432
11685TIP3   OH256545   3.133   6.401   0.444  0.2163  0.0509  0.4879
11685TIP3    H156546   3.070   6.431   0.378  1.5084  2.1426  0.1189
11685TIP3    H256547   3.094   6.427   0.528  0.4469  1.1245  0.2744
11686TIP3   OH256548   2.969   2.392  10.702 -0.2388  0.0899 -0.5064
11686TIP3    H156549   2.890   2.362  10.656 -1.2912  0.2276  1.1208
11686TIP3    H256550   2.967   2.487  10.693  1.5637 -0.0108 -3.2247
11687TIP3   OH256551   0.012   1.935  12.655  0.3975  0.2193  0.0081
11687TIP3    H156552  -0.012   1.855  12.700  1.8074 -0.2838 -0.1018
11687TIP3    H256553  -0.069   1.986  12.653 -0.3456 -0.8880  0.6983
11688TIP3   OH256554   0.514   0.341  14.353 -0.1864 -0.2531  0.1665
11688TIP3    H156555   0.565   0.422  14.358  0.7230 -0.6307 -1.9394
11688TIP3    H256556   0.456   0.345  14.429  1.0974  1.4903  1.1448
11689TIP3   OH256557   2.443   0.168   4.032  0.3041 -0.6075  0.2631
11689TIP3    H156558   2.431   0.256   4.068  1.2986  0.0850 -1.0324
11689TIP3    H256559   2.535   0.165   4.005 -0.2634 -1.2024 -1.8112
11690TIP3   OH256560   2.030   3.119  13.688 -0.1158 -0.0165  0.7726
11690TIP3    H156561   1.972   3.062  13.638  1.0323  0.0919 -0.7318
11690TIP3    H256562   2.020   3.205  13.646  1.1312 -0.0033  0.4830
11691TIP3   OH256563   0.294   1.956   1.497 -0.3440  0.0842 -0.1189
11691TIP3    H156564   0.240   1.954   1.418 -1.2318 -0.6168  0.4883
11691TIP3    H256565   0.316   2.048   1.509 -4.1059  0.9562  1.3687
11692TIP3   OH256566   0.265   5.786   4.910  0.0434 -0.0617 -0.6943
11692TIP3    H156567   0.265   5.866   4.857  0.1799 -0.8021 -1.8441
11692TIP3    H256568   0.182   5.744   4.889  0.7001 -1.0494 -1.4241
11693TIP3   OH256569   4.903   5.857  10.932 -0.6117  0.1339 -0.3616
11693TIP3    H156570   4.905   5.953  10.933 -2.6638  0.2236  0.6945
11693TIP3    H256571   4.862   5.834  10.848  3.1015 -0.0465 -2.3048
11694TIP3   OH256572   0.857   6.759   5.773  0.4242 -0.3715  0.3707
11694TIP3    H156573   0.785   6.804   5.731 -0.9376 -2.5302  0.2335
11694TIP3    H256574   0.828   6.746   5.864  0.4627 -1.5271  0.2353
11695TIP3   OH256575   2.708   6.288  16.422 -0.3966  0.2946  0.0686
11695TIP3    H156576   2.650   6.337  16.363  0.2941  0.7154 -0.2729
11695TIP3    H256577   2.796   6.316  16.397 -0.0733  0.1217  0.9866
11696TIP3   OH256578   2.911   4.133  13.078 -0.4882  0.4101 -0.0067
11696TIP3    H156579   2.830   4.136  13.027  0.4211  0.7364 -1.4877
11696TIP3    H256580   2.915   4.218  13.122 -1.1558  0.2275  0.4153
11697TIP3   OH256581   4.326   6.821   4.830 -0.1132  0.0955 -0.4235
11697TIP3    H156582   4.325   6.764   4.906 -2.2361 -1.3389 -1.4354
11697TIP3    H256583   4.419   6.830   4.808  0.3783 -1.6324  0.7381
11698TIP3   OH256584   2.774   3.962   2.638 -0.4748 -0.1286 -0.1220
11698TIP3    H156585   2.793   4.053   2.616  1.2197 -0.5489 -0.5687
11698TIP3    H256586   2.732   3.926   2.560  0.2982 -0.1251 -0.5501
11699TIP3   OH256587   0.417   3.812  16.502  0.1397  0.4317 -0.2391
11699TIP3    H156588   0.403   3.857  16.419 -0.5676  0.1056 -0.3041
11699TIP3    H256589   0.372   3.867  16.567 -0.9756 -0.2991 -0.3577
11700TIP3   OH256590   5.586   6.587   0.310  0.2837 -0.0136  0.0495
11700TIP3    H156591   5.553   6.635   0.234 -0.3434 -0.4350  0.0469
11700TIP3    H256592   5.599   6.498   0.278  2.2883  0.3186 -0.1871
11701TIP3   OH256593   4.212   1.638   0.350  0.1781  0.4595 -0.5288
11701TIP3    H156594   4.155   1.612   0.278  0.2730 -1.2630 -0.0253
11701TIP3    H256595   4.180   1.588   0.425  2.0240 -0.1616 -0.1214
11702TIP3   OH256596   0.565   0.663  15.858  0.0075 -0.0813 -0.4849
11702TIP3    H156597   0.652   0.672  15.820 -0.4528  0.5572 -1.4283
11702TIP3    H256598   0.522   0.597  15.804  0.4528 -1.6790  1.0351
11703TIP3   OH256599   4.703   5.932   1.798 -0.2101  0.0841 -0.5131
11703TIP3    H156600   4.736   5.843   1.785  1.8999  0.8783 -0.9797
11703TIP3    H256601   4.781   5.983   1.820 -1.1681  2.0561 -1.4698
11704TIP3   OH256602   5.374   0.403   5.686 -0.0710  0.1599 -0.1928
11704TIP3    H156603   5.380   0.329   5.625  1.1165 -0.2580  0.3882
11704TIP3    H256604   5.344   0.364   5.768  0.7940  0.2631  0.1837
11705TIP3   OH256605   0.826   4.356   1.853  0.3248  0.1468 -0.1938
11705TIP3    H156606   0.756   4.420   1.861 -0.7673 -1.2315  3.0207
11705TIP3    H256607   0.793   4.290   1.792 -1.2355 -0.4589  1.2478
11706TIP3   OH256608   5.405   0.199   5.504 -0.0417 -0.0962  0.2163
11706TIP3    H156609   5.382   0.115   5.544  1.8320 -0.7190  0.0899
11706TIP3    H256610   5.374   0.193   5.414 -0.4145 -0.4289  0.3681
11707TIP3   OH256611   6.096   5.025  15.449 -0.1831  0.1187  0.2471
11707TIP3    H156612   6.141   5.017  15.365 -1.6239  2.5319 -0.8487
11707TIP3    H256613   6.162   4.998  15.513  0.6494 -2.8209 -1.6279
11708TIP3   OH256614   2.167   6.421  16.964 -0.3829 -0.1382  0.0879
11708TIP3    H156615   2.239   6.358  16.959  2.4855  2.9256 -0.6439
11708TIP3    H256616   2.144   6.424  17.057  0.8694 -0.7436  0.4407
11709TIP3   OH256617   6.430   4.118   2.620 -0.4715 -0.6195 -0.3911
11709TIP3    H156618   6.489   4.055   2.661  0.0443 -0.7745 -1.3538
11709TIP3    H256619   6.455   4.118   2.528  1.5141  3.0974 -0.0514
11710TIP3   OH256620   5.439   1.644  12.880 -0.1204 -0.2209  0.0162
11710TIP3    H156621   5.451   1.704  12.953  1.5428  0.2529 -0.6070
11710TIP3    H256622   5.345   1.646  12.862 -0.3619  0.6463  1.2949
11711TIP3   OH256623   2.102   5.185   3.600  0.1262 -0.2859 -0.1727
11711TIP3    H156624   2.011   5.196   3.628  0.2279 -0.6869  0.3418
11711TIP3    H256625   2.100   5.106   3.545  0.0736  0.0067 -0.5909
11712TIP3   OH256626   6.851   2.620  15.331 -0.0537 -0.6471 -0.5691
11712TIP3    H156627   6.905   2.694  15.305 -1.8456  1.3498  0.9590
11712TIP3    H256628   6.848   2.625  15.426 -0.3683 -2.6228 -0.4363
11713TIP3   OH256629   3.014   1.517  10.911 -0.9982  0.0890 -0.7313
11713TIP3    H156630   3.094   1.472  10.885 -0.6407  0.1924  0.1804
11713TIP3    H256631   3.019   1.603  10.867 -0.4375  0.2320 -0.3921
11714TIP3   OH256632   2.479   0.439  12.462  1.1226 -0.1833 -0.2293
11714TIP3    H156633   2.524   0.379  12.522 -0.2924  0.6562  1.8140
11714TIP3    H256634   2.464   0.387  12.383 -0.2963 -2.6854  1.5387
11715TIP3   OH256635   4.863   2.109   3.787 -0.2777 -0.4094  0.2680
11715TIP3    H156636   4.832   2.193   3.822 -1.7047 -1.0870  0.6616
11715TIP3    H256637   4.931   2.134   3.724  0.6844  0.9600  1.7384
11716TIP3   OH256638   5.500   4.583   3.767  0.0617 -0.2986 -0.3705
11716TIP3    H156639   5.425   4.641   3.775 -1.6476 -2.5095  0.9837
11716TIP3    H256640   5.468   4.510   3.713  0.0757 -2.7370  2.5899
11717TIP3   OH256641   0.748   1.431  13.752 -0.0426  0.3020 -0.1896
11717TIP3    H156642   0.785   1.516  13.774  0.2463  0.0979  0.1420
11717TIP3    H256643   0.707   1.401  13.834  2.6123 -1.2705  0.6888
11718TIP3   OH256644   0.486   5.588  13.656 -0.2389  0.3134  0.2352
11718TIP3    H156645   0.503   5.616  13.566 -0.3142  0.4151  0.2527
11718TIP3    H256646   0.488   5.492  13.652  0.0719  0.3212  0.1849
11719TIP3   OH256647   3.131   1.303  13.886 -0.1955 -0.0249  0.1957
11719TIP3    H156648   3.059   1.253  13.924 -0.1069 -0.5549 -0.3181
11719TIP3    H256649   3.206   1.244  13.891 -0.4942 -0.7151 -2.1201
11720TIP3   OH256650   0.982   3.298   2.288 -0.0453  0.6353  0.6968
11720TIP3    H156651   0.911   3.298   2.224  1.0731 -0.9638 -0.6250
11720TIP3    H256652   1.060   3.321   2.238  0.7868 -0.1528  1.5872
11721TIP3   OH256653   1.471   1.826  12.523  0.2382  0.1801 -0.2883
11721TIP3    H156654   1.562   1.808  12.546 -0.2912 -0.6325  1.3273
11721TIP3    H256655   1.430   1.740  12.516 -0.6252  0.5510 -0.0050
11722TIP3   OH256656   5.983   1.473   1.859  0.3838 -0.2447 -0.3617
11722TIP3    H156657   5.901   1.520   1.847  0.9467  0.6974 -0.6129
11722TIP3    H256658   5.987   1.456   1.954 -0.9535 -1.9280 -0.5777
11723TIP3   OH256659   4.354   2.593  13.143  0.6156  0.5110  0.5023
11723TIP3    H156660   4.387   2.509  13.176  1.2126  1.0436  1.2868
11723TIP3    H256661   4.292   2.622  13.210 -0.7224  0.0230 -0.4611
11724TIP3   OH256662   0.321   3.049  14.014 -0.3561  0.0495  0.1419
11724TIP3    H156663   0.382   3.052  13.941  0.4840  0.6601  0.8546
11724TIP3    H256664   0.242   3.091  13.981 -0.2899 -0.4577 -0.6887
11725TIP3   OH256665   6.452   1.235  15.691 -0.9432  0.2341  0.0162
11725TIP3    H156666   6.418   1.325  15.686  0.7076  0.8508 -0.8205
11725TIP3    H256667   6.443   1.211  15.783 -0.6729  1.5717  0.4115
11726TIP3   OH256668   1.307   5.202   1.313  0.2066 -0.2324 -0.1290
11726TIP3    H156669   1.234   5.238   1.261  0.9778  0.2108 -0.9311
11726TIP3    H256670   1.303   5.249   1.396  0.1230  0.4282 -0.5051
11727TIP3   OH256671   1.850   0.156  15.082 -0.0558  0.2708  0.1269
11727TIP3    H156672   1.768   0.204  15.077 -1.7159 -2.2975  0.7532
11727TIP3    H256673   1.831   0.082  15.139  2.3669 -1.0797 -0.6688
11728TIP3   OH256674   2.022   2.169  16.822  0.2268 -0.0825  0.5096
11728TIP3    H156675   1.937   2.173  16.867  0.8267 -0.1188  1.6928
11728TIP3    H256676   2.051   2.078  16.835 -0.0986 -0.4325 -0.9770
11729TIP3   OH256677   2.954   3.133   3.237  0.1019  0.6163  0.1850
11729TIP3    H156678   2.923   3.173   3.318 -1.3669  2.3770 -1.1327
11729TIP3    H256679   2.951   3.039   3.253  1.8008  0.9138  2.7862
11730TIP3   OH256680   0.848   6.257   3.418  0.0593 -0.1792  0.0742
11730TIP3    H156681   0.938   6.223   3.425  0.8238  1.3541 -1.4494
11730TIP3    H256682   0.794   6.192   3.463  1.9200 -1.1782  0.9890
11731TIP3   OH256683   1.010   4.833  15.060 -0.2465  0.1034 -0.1415
11731TIP3    H156684   1.105   4.834  15.065 -0.1724  2.0558 -1.0579
11731TIP3    H256685   0.989   4.879  14.979 -1.9713 -1.7675 -0.8541
11732TIP3   OH256686   6.454   5.754   5.828 -0.2878 -0.5637  0.5898
11732TIP3    H156687   6.471   5.671   5.871 -0.6493 -1.0646 -0.2009
11732TIP3    H256688   6.445   5.817   5.899  0.4110 -1.1192  1.1768
11733TIP3   OH256689   1.212   2.570   3.540 -0.2679  0.7410 -0.1575
11733TIP3    H156690   1.246   2.582   3.452  2.7541 -0.6390  0.6964
11733TIP3    H256691   1.185   2.658   3.567  1.3304  1.7102 -1.4999
11734TIP3   OH256692   2.962   5.017  13.456  0.0668 -0.1807  0.2472
11734TIP3    H156693   3.027   5.045  13.520 -0.6203  0.5939  0.6203
11734TIP3    H256694   2.952   4.923  13.471  1.3733 -0.4022 -0.0866
11735TIP3   OH256695   4.078   5.152  14.091  0.7382  0.4902  0.5099
11735TIP3    H156696   4.043   5.092  14.025  0.3844  2.2120 -0.9355
11735TIP3    H256697   4.005   5.167  14.151  0.7806 -0.3673  0.7911
11736TIP3   OH256698   5.471   2.456   1.575 -0.1680 -0.7286 -0.6166
11736TIP3    H156699   5.562   2.432   1.556  0.3022 -0.4192  1.0854
11736TIP3    H256700   5.478   2.526   1.639 -1.6149  0.2583 -1.4859
11737TIP3   OH256701   6.710   1.827   1.734 -0.1179  0.3002  0.1981
11737TIP3    H156702   6.793   1.872   1.751 -1.5235  2.1722  2.6969
11737TIP3    H256703   6.654   1.894   1.694 -1.0350 -0.3477  0.3632
11738TIP3   OH256704   2.526   2.484   2.026 -0.0814  0.1431 -0.2843
11738TIP3    H156705   2.519   2.447   2.114  1.0983 -1.1514 -0.7013
11738TIP3    H256706   2.515   2.409   1.968  2.6931  0.3295 -1.1597
11739TIP3   OH256707   6.247   5.503  12.903 -0.0782 -0.6016  0.1507
11739TIP3    H156708   6.218   5.423  12.860 -0.6657 -0.3114 -0.0058
11739TIP3    H256709   6.207   5.501  12.990 -1.4190  0.2755 -0.4182
11740TIP3   OH256710   5.382   4.914  10.718 -0.1613 -0.5724  0.1608
11740TIP3    H156711   5.343   4.974  10.654  1.3466  1.4370  1.0161
11740TIP3    H256712   5.475   4.914  10.697  0.0305 -1.7301  0.9367
11741TIP3   OH256713   5.255   1.317   4.879  0.9697  0.1412  0.6594
11741TIP3    H156714   5.286   1.285   4.794  1.6035  0.2202  0.8595
11741TIP3    H256715   5.233   1.237   4.927 -0.8407  0.1142 -0.0861
11742TIP3   OH256716   0.875   2.227   5.755  0.3075  0.1428 -0.1312
11742TIP3    H156717   0.951   2.170   5.770 -0.9823 -1.5631  0.2102
11742TIP3    H256718   0.819   2.178   5.695  0.6043  2.4745 -2.4886
11743TIP3   OH256719   3.390   2.042   2.779  0.2556 -0.2499 -0.3094
11743TIP3    H156720   3.473   2.009   2.813 -0.0069 -2.3250 -1.4902
11743TIP3    H256721   3.409   2.131   2.751  1.9615 -0.5160 -0.1142
11744TIP3   OH256722   0.190   5.422   5.415 -0.6092  0.5099  0.2807
11744TIP3    H156723   0.128   5.390   5.481 -1.2075  1.2282  0.0809
11744TIP3    H256724   0.211   5.511   5.442  0.4208  0.2516  0.3923
11745TIP3   OH256725   2.880   5.479  13.370  0.3033 -0.1981  0.4858
11745TIP3    H156726   2.942   5.452  13.302 -2.0269 -2.9540 -0.7811
11745TIP3    H256727   2.887   5.410  13.436 -0.8385 -0.1636  0.6624
11746TIP3   OH256728   6.284   6.793  11.237 -0.0872 -0.2845 -0.0020
11746TIP3    H156729   6.376   6.771  11.253 -0.5817 -3.3528 -0.7598
11746TIP3    H256730   6.286   6.885  11.210  2.2581  0.9624  3.6786
11747TIP3   OH256731   0.086   2.834   4.466 -0.6670  0.0208 -0.6674
11747TIP3    H156732   0.130   2.831   4.551 -1.5305  0.2096 -0.2028
11747TIP3    H256733   0.153   2.804   4.404  0.0378  0.0661  0.0448
11748TIP3   OH256734   1.132   2.783  16.082 -0.0368  0.1829 -0.7560
11748TIP3    H156735   1.078   2.794  16.004 -1.8400  1.2867  0.5750
11748TIP3    H256736   1.153   2.872  16.110  0.3731 -0.1810  0.1563
11749TIP3   OH256737   4.585   3.005  14.906  0.1128 -0.0564  0.3527
11749TIP3    H156738   4.582   3.066  14.980  0.4597 -0.7866  0.9983
11749TIP3    H256739   4.657   2.945  14.929  0.8277  0.2532 -1.0194
11750TIP3   OH256740   3.645   3.639   2.471  0.0217  0.6101 -0.8063
11750TIP3    H156741   3.642   3.641   2.567 -1.4056  0.2743 -0.8225
11750TIP3    H256742   3.705   3.710   2.447 -0.8301  1.7403  0.2925
11751TIP3   OH256743   1.706   2.405   2.712  0.6097 -0.2233  0.4243
11751TIP3    H156744   1.761   2.371   2.782 -0.1573  0.3706  1.3420
11751TIP3    H256745   1.648   2.331   2.689  0.6322 -0.3127  0.6556
11752TIP3   OH256746   0.295   2.777  12.250  0.3037  0.8114  0.3585
11752TIP3    H156747   0.247   2.713  12.198 -1.3753  1.0354  1.5105
11752TIP3    H256748   0.311   2.850  12.190 -0.1435  0.4022 -0.2728
11753TIP3   OH256749   5.939   6.684  10.802 -0.0371  0.3453 -0.0198
11753TIP3    H156750   5.980   6.705  10.886  0.5626 -0.4416 -0.1011
11753TIP3    H256751   5.966   6.756  10.744  2.7110 -0.9732 -0.5265
11754TIP3   OH256752   5.201   5.513  11.578 -0.3909 -0.4585 -0.0985
11754TIP3    H156753   5.110   5.539  11.592  0.0853  1.3147 -0.1010
11754TIP3    H256754   5.217   5.532  11.486  0.5606  1.2304  0.3823
11755TIP3   OH256755   5.436   4.070   1.116 -0.2823  0.2376  0.7148
11755TIP3    H156756   5.489   4.145   1.140 -0.3226  0.9190 -1.2179
11755TIP3    H256757   5.484   4.026   1.047 -2.2249  0.9587 -1.2058
11756TIP3   OH256758   1.252   3.020   1.424  0.4765  0.3137 -0.3435
11756TIP3    H156759   1.322   3.083   1.445 -0.2072  1.0292 -0.1607
11756TIP3    H256760   1.251   2.959   1.498  0.3767  0.7820  0.0455
11757TIP3   OH256761   6.442   3.626  11.385 -0.2409 -0.7928  0.2258
11757TIP3    H156762   6.447   3.624  11.290 -0.7640  0.2492  0.1636
11757TIP3    H256763   6.522   3.583  11.414 -0.7102 -2.3306 -0.6680
11758TIP3   OH256764   5.059   1.427  11.057  0.0920  0.3906 -0.3651
11758TIP3    H156765   5.117   1.352  11.072 -0.0742  0.8043  3.4402
11758TIP3    H256766   5.007   1.404  10.981  0.5450 -3.0584  0.2369
11759TIP3   OH256767   1.136   6.271  11.770 -0.1415  0.1040 -0.1618
11759TIP3    H156768   1.171   6.196  11.721 -2.0044 -0.5527 -0.5592
11759TIP3    H256769   1.186   6.346  11.737  0.8383 -0.7660 -0.7330
11760TIP3   OH256770   6.130   5.261  12.786 -0.5758  0.4236  1.0236
11760TIP3    H156771   6.134   5.173  12.747  0.5561  0.6439  0.5822
11760TIP3    H256772   6.040   5.271  12.815 -1.1696 -0.2325 -0.4613
11761TIP3   OH256773   5.400   1.242  16.389  0.0148 -0.2636  0.3266
11761TIP3    H156774   5.306   1.257  16.390 -0.0120 -0.4320  0.7515
11761TIP3    H256775   5.416   1.185  16.464  0.6477  0.9404  1.1405
11762TIP3   OH256776   4.059   4.524  16.390  0.1945 -0.1716  0.2539
11762TIP3    H156777   4.045   4.588  16.321 -0.1854  0.6493  1.0619
11762TIP3    H256778   3.982   4.467  16.387  0.6616 -0.7652 -0.6408
11763TIP3   OH256779   3.565   3.303  13.082 -0.3197  0.2858 -0.0722
11763TIP3    H156780   3.497   3.254  13.129  1.0149  0.9149  2.7815
11763TIP3    H256781   3.647   3.278  13.126  0.6608  3.3679  0.0674
11764TIP3   OH256782   6.238   4.505   5.196 -0.2153  0.1791  0.2237
11764TIP3    H156783   6.260   4.595   5.172  1.4350 -0.1920  0.2221
11764TIP3    H256784   6.196   4.468   5.118 -0.0019  0.6584 -0.1220
11765TIP3   OH256785   5.546   5.720  14.574 -0.2689  0.1122  0.0717
11765TIP3    H156786   5.571   5.727  14.666  0.0224  0.6409 -0.0456
11765TIP3    H256787   5.596   5.645  14.541 -0.6965 -0.3413  0.4487
11766TIP3   OH256788   1.348   3.147   2.816  0.0573 -0.4996  0.2122
11766TIP3    H156789   1.378   3.063   2.782  0.1018 -0.0667 -0.8644
11766TIP3    H256790   1.305   3.189   2.741 -0.3100  0.2679  0.8402
11767TIP3   OH256791   5.518   1.064   5.078 -0.4268  0.1395 -0.2387
11767TIP3    H156792   5.542   1.025   4.993 -0.2971 -0.3657  0.0227
11767TIP3    H256793   5.570   1.144   5.083  0.5629 -0.4981 -0.0648
11768TIP3   OH256794   0.029   6.577  15.300  0.1834  0.5404 -0.0015
11768TIP3    H156795  -0.003   6.550  15.386 -0.5904  0.4992 -0.2968
11768TIP3    H256796   0.117   6.540  15.294 -0.7057 -1.6993 -0.2724
11769TIP3   OH256797   2.083   3.348  16.055  0.0282 -0.0010 -0.1192
11769TIP3    H156798   1.990   3.345  16.078  0.0015 -0.4674 -0.2763
11769TIP3    H256799   2.111   3.436  16.080  0.1703 -0.6675  2.2812
11770TIP3   OH256800   1.639   6.835   2.717 -0.4938  0.6155  0.2824
11770TIP3    H156801   1.599   6.853   2.802 -0.2043 -1.4205  0.9044
11770TIP3    H256802   1.568   6.847   2.654 -0.9800  1.1391  0.9161
11771TIP3   OH256803   5.625   2.269   0.518 -0.2110  0.4685  0.2597
11771TIP3    H156804   5.634   2.261   0.613 -0.8075  0.7124  0.3437
11771TIP3    H256805   5.704   2.313   0.490 -0.0743  0.4835  0.6576
11772TIP3   OH256806   1.933   0.346   4.790  0.4506  0.5831  0.7772
11772TIP3    H156807   1.975   0.262   4.807  0.3930 -0.0821 -1.9102
11772TIP3    H256808   1.855   0.324   4.739 -0.1092  2.2053  0.8858
11773TIP3   OH256809   0.345   0.695  15.149  0.2725 -0.4994  0.4511
11773TIP3    H156810   0.346   0.720  15.242  0.8293 -2.7256  1.1098
11773TIP3    H256811   0.438   0.687  15.126  0.1256 -1.2039  0.0853
11774TIP3   OH256812   3.455   1.515  15.038 -0.1113 -0.6091 -0.0702
11774TIP3    H156813   3.365   1.482  15.045  0.2256 -1.2040  2.3687
11774TIP3    H256814   3.506   1.440  15.008 -0.3379 -0.4130 -0.9625
11775TIP3   OH256815   1.830   1.374  11.767 -0.7535 -0.6630 -0.2662
11775TIP3    H156816   1.897   1.348  11.704 -1.8924  0.0736 -1.8708
11775TIP3    H256817   1.748   1.370  11.717 -1.5066  1.5915  0.6683
11776TIP3   OH256818   6.398   3.903   4.664  0.1754  0.3631 -0.0947
11776TIP3    H156819   6.365   3.827   4.615  0.5401  0.4643 -0.5024
11776TIP3    H256820   6.491   3.907   4.643 -0.1761  2.0297 -1.6118
11777TIP3   OH256821   0.676   1.447  12.973  0.2344  0.1455 -0.2333
11777TIP3    H156822   0.618   1.415  12.905  1.4151 -1.2448 -0.6349
11777TIP3    H256823   0.646   1.403  13.053 -0.1702  0.5815 -0.1358
11778TIP3   OH256824   2.704   1.056  16.017  0.3814  0.3551 -0.0443
11778TIP3    H156825   2.757   1.045  15.938 -1.0114  0.0557 -0.9678
11778TIP3    H256826   2.736   0.989  16.077 -0.4455 -1.3613 -1.4381
11779TIP3   OH256827   1.659   2.381  16.238 -0.4895  0.6907  0.1396
11779TIP3    H156828   1.749   2.353  16.224 -1.0746 -2.4048  1.4909
11779TIP3    H256829   1.660   2.476  16.229  2.4310  0.5677 -2.0842
11780TIP3   OH256830   6.387   2.609  12.721  0.0021 -0.0664  0.3323
11780TIP3    H156831   6.353   2.523  12.696  0.1583 -0.0738  0.1376
11780TIP3    H256832   6.390   2.607  12.816 -0.2833 -0.1646  0.3404
11781TIP3   OH256833   4.089   2.757   2.552 -0.5052  0.0930 -0.7618
11781TIP3    H156834   4.130   2.799   2.477 -1.2983 -2.6042 -2.8601
11781TIP3    H256835   4.125   2.668   2.553 -0.0328  0.2006  2.5229
11782TIP3   OH256836   0.719   1.936  16.475 -0.1041 -0.4588 -0.0079
11782TIP3    H156837   0.697   2.018  16.431 -0.0021 -0.4605 -0.0627
11782TIP3    H256838   0.728   1.872  16.404 -0.2615 -0.5353  0.0429
11783TIP3   OH256839   4.974   0.462   4.080 -0.0712  0.1027  0.1242
11783TIP3    H156840   4.893   0.442   4.033 -0.4513  0.1895  0.7337
11783TIP3    H256841   4.956   0.546   4.124  0.6194  0.5218 -0.3649
11784TIP3   OH256842   0.438   2.996  13.226  0.1369  0.3585  0.4416
11784TIP3    H156843   0.345   2.995  13.202  0.3563  1.7484 -0.5757
11784TIP3    H256844   0.471   3.079  13.192  2.2240 -0.9559 -0.9896
11785TIP3   OH256845   5.693   2.966  12.449  0.1085  0.2189  0.7413
11785TIP3    H156846   5.610   2.928  12.476 -0.3646  0.9796  0.4041
11785TIP3    H256847   5.737   2.897  12.401 -0.9953  0.2675 -0.3994
11786TIP3   OH256848   0.652   4.426  13.698  0.1407  0.4334 -0.6953
11786TIP3    H156849   0.580   4.448  13.757  0.6491 -0.2841  0.2027
11786TIP3    H256850   0.713   4.500  13.706 -0.2668  0.8283 -1.1236
11787TIP3   OH256851   1.232   3.798  12.627  0.1171  0.5241  0.2546
11787TIP3    H156852   1.226   3.731  12.695 -0.6842 -0.4933 -0.7670
11787TIP3    H256853   1.323   3.796  12.599  0.2597  0.3578  0.7275
11788TIP3   OH256854   2.056   6.295   1.584  0.5686 -0.4303  0.4274
11788TIP3    H156855   2.010   6.368   1.624 -0.5603 -1.3410  0.8534
11788TIP3    H256856   2.073   6.234   1.656  1.8188 -0.4463  0.1467
11789TIP3   OH256857   2.921   0.992  14.226  0.2649 -0.6433  0.0091
11789TIP3    H156858   2.979   1.069  14.228 -0.2449 -0.1812 -1.5035
11789TIP3    H256859   2.943   0.943  14.305 -0.9198  2.1646  2.2542
11790TIP3   OH256860   6.014   1.170   1.933 -0.7629  0.3101 -0.4499
11790TIP3    H156861   5.966   1.228   1.992 -2.7927 -0.3274 -1.3764
11790TIP3    H256862   6.067   1.116   1.992 -1.0147  1.1804  0.6251
11791TIP3   OH256863   3.018   4.429  12.065  0.1297 -0.4316 -1.0001
11791TIP3    H156864   3.025   4.348  12.115  1.2446  0.9730  1.2667
11791TIP3    H256865   3.067   4.494  12.116 -0.8106  1.7185 -2.6512
11792TIP3   OH256866   5.234   1.149   3.501  0.0175  0.0426 -0.4375
11792TIP3    H156867   5.222   1.088   3.573  1.2313  2.0192  1.5661
11792TIP3    H256868   5.145   1.180   3.482 -0.2006  0.6005  1.2867
11793TIP3   OH256869   0.708   6.605  12.276 -0.4124 -0.5034 -0.4614
11793TIP3    H156870   0.796   6.576  12.252 -1.4850 -2.1195 -2.8536
11793TIP3    H256871   0.692   6.680  12.219 -0.2091  0.4975  0.7703
11794TIP3   OH256872   2.591   1.877  10.554 -0.6647 -0.0858 -0.2068
11794TIP3    H156873   2.627   1.856  10.468  2.3015  3.1468  0.0304
11794TIP3    H256874   2.648   1.833  10.616 -2.4372 -1.9125  0.2345
11795TIP3   OH256875   1.608   4.666  12.749  0.2508 -0.6042  0.1653
11795TIP3    H156876   1.524   4.646  12.707 -0.1470  2.4161 -0.7533
11795TIP3    H256877   1.590   4.663  12.843 -1.2319  1.0539 -0.0247
11796TIP3   OH256878   4.552   6.824   5.495  0.4650 -0.3312 -0.2976
11796TIP3    H156879   4.614   6.757   5.523  0.7956 -0.5365 -1.4407
11796TIP3    H256880   4.466   6.781   5.498  0.2634  0.1130  1.8011
11797TIP3   OH256881   0.980   4.172  13.901 -0.3348  0.3445  0.8629
11797TIP3    H156882   0.935   4.201  13.980  0.0108  0.5538  0.9875
11797TIP3    H256883   1.013   4.085  13.922 -0.9795  0.0424  0.6499
11798TIP3   OH256884   0.023   0.476  12.063  0.4055 -0.0389 -0.5768
11798TIP3    H156885  -0.003   0.566  12.046  4.5708  1.3659 -0.5002
11798TIP3    H256886   0.009   0.430  11.980 -1.7887  0.5842 -0.6072
11799TIP3   OH256887   2.170   3.365   4.725 -0.0800 -0.9179  0.1062
11799TIP3    H156888   2.143   3.452   4.751 -2.6614 -1.5462 -0.2264
11799TIP3    H256889   2.156   3.363   4.630  0.2970 -1.6029  0.0533
11800TIP3   OH256890   2.263   0.480  11.591 -0.1344 -0.7206 -0.9470
11800TIP3    H156891   2.181   0.453  11.549 -0.0584  0.0840 -1.6575
11800TIP3    H256892   2.320   0.502  11.517 -0.3206  1.7042 -0.4598
11801TIP3   OH256893   2.078   3.254  14.440 -0.0344  0.1931 -0.2859
11801TIP3    H156894   2.095   3.264  14.347 -0.9161 -0.7987 -0.5733
11801TIP3    H256895   1.997   3.203  14.445  0.0706  0.1013  1.0192
11802TIP3   OH256896   4.488   0.504  16.514  0.8050 -0.2724  0.4690
11802TIP3    H156897   4.404   0.498  16.559  0.2630  1.6034 -0.2294
11802TIP3    H256898   4.500   0.417  16.475 -0.9810 -0.4685  0.2738
11803TIP3   OH256899   5.615   4.406   2.190 -0.2413  0.1083  0.0468
11803TIP3    H156900   5.627   4.385   2.283  1.5087  0.4469 -0.0724
11803TIP3    H256901   5.703   4.403   2.153 -0.7384  1.3202 -1.3284
11804TIP3   OH256902   0.985   6.650  12.222 -0.0374  0.1369 -0.6285
11804TIP3    H156903   0.983   6.745  12.211  1.5757  0.1731 -0.8920
11804TIP3    H256904   0.993   6.616  12.133 -0.0488 -0.2150 -0.4961
11805TIP3   OH256905   0.521   0.004   4.567 -0.3997 -0.1187 -0.3625
11805TIP3    H156906   0.446  -0.046   4.602 -0.9735  0.8411 -0.1922
11805TIP3    H256907   0.585  -0.063   4.545 -1.4809 -1.0061 -0.9373
11806TIP3   OH256908   5.199   6.393   4.589  0.7179  0.0300 -0.1221
11806TIP3    H156909   5.160   6.378   4.675  1.3242  1.4445  0.4342
11806TIP3    H256910   5.293   6.384   4.603  0.9735  2.0520 -0.1777
11807TIP3   OH256911   6.010   1.966  12.466 -0.5513 -0.4972 -0.4384
11807TIP3    H156912   6.052   2.044  12.431  0.9976 -0.6377  0.9837
11807TIP3    H256913   6.069   1.894  12.443  0.6660 -0.5718  2.4738
11808TIP3   OH256914   3.199   3.479   3.016 -0.8067  0.7173 -0.2478
11808TIP3    H156915   3.184   3.475   2.922 -1.4310  1.7837 -0.2156
11808TIP3    H256916   3.122   3.523   3.050 -0.1857  1.1403  0.6537
11809TIP3   OH256917   1.798   3.734   0.949  0.5972 -0.4990 -0.3454
11809TIP3    H156918   1.718   3.783   0.967 -0.0941 -1.6870 -0.0434
11809TIP3    H256919   1.849   3.741   1.029  1.3874  1.2934 -0.9611
11810TIP3   OH256920   6.147   6.807   2.788  0.2599  0.0332  0.3401
11810TIP3    H156921   6.155   6.766   2.874 -1.0274  1.7325  1.3372
11810TIP3    H256922   6.103   6.890   2.806  0.5539  0.7213 -1.8941
11811TIP3   OH256923   4.100   2.383  13.677  0.7973 -0.2381 -0.0669
11811TIP3    H156924   4.153   2.315  13.719 -0.7506 -3.2172 -2.4768
11811TIP3    H256925   4.161   2.431  13.622  1.5213 -1.6474 -0.5376
11812TIP3   OH256926   0.239   1.701  11.097 -0.0351  0.0549  0.1597
11812TIP3    H156927   0.216   1.707  11.190 -0.1668  2.0799  0.0457
11812TIP3    H256928   0.293   1.622  11.091  0.0340 -0.0949  1.9684
11813TIP3   OH256929   3.955   3.713   1.890  0.6511  0.0260  0.6712
11813TIP3    H156930   3.916   3.693   1.976 -1.0619 -0.6449 -0.2218
11813TIP3    H256931   3.989   3.628   1.859  0.9032  0.1890  0.4992
11814TIP3   OH256932   4.402   3.115  11.075  0.5924  0.0252  0.0648
11814TIP3    H156933   4.423   3.056  11.147  0.9018 -1.2336 -1.0289
11814TIP3    H256934   4.314   3.092  11.049  0.4117  0.6036  0.1401
11815TIP3   OH256935   2.235   4.275  14.708 -0.0648 -0.0763 -0.1735
11815TIP3    H156936   2.187   4.248  14.787 -0.8714  0.5482 -0.4330
11815TIP3    H256937   2.253   4.368  14.722  0.1166 -0.0516 -0.5628
11816TIP3   OH256938   0.732   0.796   2.820 -0.2263 -0.0675  0.3059
11816TIP3    H156939   0.654   0.817   2.770  0.8679  0.4011 -1.3010
11816TIP3    H256940   0.797   0.859   2.791  1.2882 -1.5917  0.1952
11817TIP3   OH256941   5.342   1.215  12.967  0.2345  0.2940 -0.1208
11817TIP3    H156942   5.322   1.135  13.015  2.2125  0.7981  1.6857
11817TIP3    H256943   5.261   1.236  12.920 -1.9422 -0.1792  3.1038
11818TIP3   OH256944   3.064   4.227   1.919  0.0484 -0.4337  0.3744
11818TIP3    H156945   3.096   4.218   2.008  0.3363 -0.0813  0.3114
11818TIP3    H256946   3.123   4.171   1.867  0.0423 -0.4376  0.3713
11819TIP3   OH256947   3.379   1.873   2.510 -0.5661 -0.7641  0.2707
11819TIP3    H156948   3.355   1.943   2.570 -0.8955  0.5240 -1.3016
11819TIP3    H256949   3.475   1.876   2.506 -0.5758 -0.4169  0.2486
11820TIP3   OH256950   4.548   0.670  14.426 -0.3354 -0.2074 -0.1708
11820TIP3    H156951   4.518   0.656  14.515  0.1547 -1.1352 -0.1369
11820TIP3    H256952   4.510   0.754  14.400  0.5851  0.7355  1.3631
11821TIP3   OH256953   1.442   5.268   0.169  0.3187  0.2758 -0.0694
11821TIP3    H156954   1.356   5.236   0.142 -0.2423 -1.3048  3.1682
11821TIP3    H256955   1.502   5.197   0.147  0.5407  0.6743 -0.7789
11822TIP3   OH256956   6.393   2.110  12.522  0.7337 -0.0540 -0.2441
11822TIP3    H156957   6.423   2.023  12.497  1.8863  0.4174 -0.5569
11822TIP3    H256958   6.307   2.119  12.481  2.1206  0.3334 -3.3543
11823TIP3   OH256959   0.544   6.719   1.779 -0.3817 -0.1986 -0.2325
11823TIP3    H156960   0.603   6.683   1.845 -0.2765  0.8599  0.2809
11823TIP3    H256961   0.457   6.711   1.818 -0.2395  1.2219  0.4535
11824TIP3   OH256962   4.478   3.903  11.618  0.0289  0.4712 -0.7948
11824TIP3    H156963   4.527   3.940  11.544  0.9255  1.2594  0.1717
11824TIP3    H256964   4.466   3.811  11.595  1.2668  0.4544 -1.4217
11825TIP3   OH256965   2.797   1.490  12.828  0.4774  0.0895 -0.6259
11825TIP3    H156966   2.862   1.497  12.758 -1.1307  1.3390 -2.0991
11825TIP3    H256967   2.718   1.458  12.783 -0.5682  0.7788  0.6554
11826TIP3   OH256968   5.192   6.116   4.777  0.0608 -0.0465 -0.3819
11826TIP3    H156969   5.279   6.155   4.772 -1.0071  3.0879  1.6976
11826TIP3    H256970   5.180   6.095   4.870 -1.0090 -1.5217 -0.8113
11827TIP3   OH256971   5.644   4.362   1.563 -1.0347  0.4086  0.4277
11827TIP3    H156972   5.633   4.270   1.539 -2.1871  0.6440 -0.0064
11827TIP3    H256973   5.739   4.373   1.574 -0.8132 -0.6165 -0.3603
11828TIP3   OH256974   1.928   1.601  13.838 -0.5073 -0.5676  0.0238
11828TIP3    H156975   1.861   1.554  13.888  0.1410  0.1519  1.6786
11828TIP3    H256976   1.993   1.535  13.817 -0.7932 -0.8871  0.1302
11829TIP3   OH256977   2.693   3.386   1.751 -0.4233 -0.1586 -0.0800
11829TIP3    H156978   2.691   3.314   1.813 -2.2540 -0.6004 -0.5882
11829TIP3    H256979   2.736   3.351   1.674  0.6434 -0.0156  0.4299
11830TIP3   OH256980   1.633   2.515  13.620 -0.0849  0.1233  0.3469
11830TIP3    H156981   1.630   2.597  13.571  0.0251 -0.4981 -0.7217
11830TIP3    H256982   1.556   2.466  13.591 -0.6203  0.1680  1.5920
11831TIP3   OH256983   1.665   5.723  14.230 -0.1566 -0.2986  0.0559
11831TIP3    H156984   1.739   5.688  14.181  1.9818  2.8393  0.8080
11831TIP3    H256985   1.703   5.757  14.311 -2.2464  2.1013  0.1518
11832TIP3   OH256986   4.277   5.664  15.925  0.2414  0.6343 -0.5792
11832TIP3    H156987   4.244   5.614  16.000  0.2741 -2.5749 -2.5137
11832TIP3    H256988   4.236   5.750  15.934 -0.5638  0.0582  2.5071
11833TIP3   OH256989   6.168   4.508   3.844 -0.1293  0.0887 -0.3264
11833TIP3    H156990   6.253   4.542   3.815 -0.7269 -0.6187 -3.2188
11833TIP3    H256991   6.154   4.430   3.791 -1.4232 -1.4186  2.0294
11834TIP3   OH256992   3.740   2.125  16.053 -0.2450  0.6003  0.0123
11834TIP3    H156993   3.755   2.034  16.026  0.1925  0.9893 -1.1075
11834TIP3    H256994   3.782   2.177  15.985  0.8322  1.6398  1.4172
11835TIP3   OH256995   1.940   2.834  13.869  1.0050 -0.0083 -0.5919
11835TIP3    H156996   1.863   2.818  13.814  0.9823  0.3701 -0.6745
11835TIP3    H256997   2.013   2.838  13.808  1.5985 -3.3126 -0.3023
11836TIP3   OH256998   4.860   2.495  15.099  0.3702  0.0879  0.0715
11836TIP3    H156999   4.935   2.441  15.125  0.8498  0.4479 -0.5496
11836TIP3    H257000   4.894   2.584  15.100  0.3595  0.1404 -1.5947
11837TIP3   OH257001   0.822   2.841  14.467 -0.1077 -0.0681  0.5698
11837TIP3    H157002   0.872   2.861  14.547 -0.4960  1.9998  0.3654
11837TIP3    H257003   0.820   2.746  14.463  3.0578 -0.2473  1.0531
11838TIP3   OH257004   4.593   4.796   3.061 -0.2455 -0.1450 -0.7580
11838TIP3    H157005   4.627   4.725   3.115 -0.7560 -0.0354 -0.2969
11838TIP3    H257006   4.575   4.867   3.122 -1.4179 -0.2375 -0.9857
11839TIP3   OH257007   0.529   3.808  15.122  0.9558 -0.0639  0.3714
11839TIP3    H157008   0.607   3.863  15.131  1.5255 -0.9622  1.2462
11839TIP3    H257009   0.467   3.844  15.185  1.2203 -0.2385  0.7359
11840TIP3   OH257010   2.762   4.113   1.026  0.0250 -0.0749  0.4222
11840TIP3    H157011   2.853   4.130   1.002 -0.1155  3.1978  1.6987
11840TIP3    H257012   2.765   4.100   1.121 -0.5318 -3.4669  0.0989
11841TIP3   OH257013   3.079   6.821   5.291  0.0448 -0.0506  0.0962
11841TIP3    H157014   3.094   6.747   5.350 -0.3370  0.6551  1.0908
11841TIP3    H257015   3.106   6.788   5.205 -0.8886 -1.6218  0.3728
11842TIP3   OH257016   1.090   6.145   0.944  0.5525  0.7346  0.3729
11842TIP3    H157017   1.147   6.212   0.906 -0.3047  0.6404 -1.1377
11842TIP3    H257018   1.002   6.180   0.935  0.0919 -0.5528 -0.3744
11843TIP3   OH257019   1.773   1.597  10.803  0.5391 -0.1992 -0.5507
11843TIP3    H157020   1.726   1.594  10.720  1.0154 -0.5008 -0.8142
11843TIP3    H257021   1.826   1.517  10.803  2.3289  0.9313 -1.0288
11844TIP3   OH257022   3.533   3.277   3.833  0.1195  0.0623  0.4260
11844TIP3    H157023   3.522   3.368   3.861 -0.8012 -0.0062  0.3084
11844TIP3    H257024   3.457   3.231   3.869 -0.1303 -0.3881 -0.6394
11845TIP3   OH257025   3.430   4.414  16.385 -0.0909  0.5223  0.5198
11845TIP3    H157026   3.365   4.464  16.434 -0.0897  1.0831 -0.0314
11845TIP3    H257027   3.425   4.450  16.296  0.3455 -0.0433  0.2602
11846TIP3   OH257028   2.542   3.731   1.907  0.2056 -0.0546 -0.1766
11846TIP3    H157029   2.541   3.810   1.853 -1.4634  0.8123  1.0485
11846TIP3    H257030   2.514   3.661   1.847  2.6673  0.0134 -1.5363
11847TIP3   OH257031   6.802   4.450   4.550 -0.3079  0.0820 -0.5393
11847TIP3    H157032   6.829   4.507   4.622  0.2391 -1.2263  0.3277
11847TIP3    H257033   6.723   4.492   4.514 -0.1813  1.1243  0.3534
11848TIP3   OH257034   1.740   0.720  11.844  0.0055 -0.0218 -0.0501
11848TIP3    H157035   1.743   0.799  11.790  0.4507  0.4828  0.6762
11848TIP3    H257036   1.704   0.750  11.928  1.7495 -0.1991  0.8196
11849TIP3   OH257037   2.929   2.983  12.155  0.1599  0.0155 -0.2482
11849TIP3    H157038   2.944   2.924  12.081  1.1497 -0.5492  0.3827
11849TIP3    H257039   2.980   2.945  12.227  1.2705  1.9202  0.0374
11850TIP3   OH257040   1.656   4.929  15.232 -0.3083  0.2193  0.0181
11850TIP3    H157041   1.688   5.010  15.272 -0.6582  0.7898 -0.8372
11850TIP3    H257042   1.565   4.921  15.262 -0.3791  0.3209 -0.1704
11851TIP3   OH257043   2.558   4.696   3.454  0.1222  0.2173 -0.2746
11851TIP3    H157044   2.592   4.783   3.431  1.0290 -0.2221 -0.6516
11851TIP3    H257045   2.471   4.713   3.490  0.4754  1.3201  0.0920
11852TIP3   OH257046   4.256   0.706  15.995  0.5828 -0.0104  0.2119
11852TIP3    H157047   4.278   0.751  16.077 -0.2200 -0.8160  0.8997
11852TIP3    H257048   4.163   0.724  15.982  1.0839  1.6431 -1.5452
11853TIP3   OH257049   5.421   6.778  12.922 -0.0940 -0.1082  0.8694
11853TIP3    H157050   5.514   6.777  12.942  0.2181  0.4534 -0.4096
11853TIP3    H257051   5.382   6.835  12.988  0.4539 -0.4038  1.4477
11854TIP3   OH257052   0.277   5.646   1.459  0.6361  0.3476 -0.2210
11854TIP3    H157053   0.285   5.701   1.537  2.2919  0.5447 -0.4746
11854TIP3    H257054   0.220   5.696   1.400  0.7257  0.9958  0.2287
11855TIP3   OH257055   1.532   1.196   2.052 -0.4399 -0.3436 -0.2626
11855TIP3    H157056   1.571   1.118   2.090 -0.4703 -0.7595 -1.0596
11855TIP3    H257057   1.524   1.257   2.125 -1.5031 -1.4993  0.6439
11856TIP3   OH257058   4.296   6.082   0.019  0.1854 -1.1756 -0.0323
11856TIP3    H157059   4.202   6.096   0.029  0.8805  2.4460  4.9699
11856TIP3    H257060   4.319   6.024   0.091  1.8741 -2.0655 -1.2264
11857TIP3   OH257061   1.627   6.166  13.138 -0.2965 -0.4798  0.0472
11857TIP3    H157062   1.644   6.112  13.060 -3.4479 -2.1234  0.3529
11857TIP3    H257063   1.629   6.256  13.105  3.3976 -0.7111 -0.8225
11858TIP3   OH257064   0.818   4.645  14.062 -0.6299  0.7645 -0.3158
11858TIP3    H157065   0.735   4.657  14.016 -0.9755  0.0057  0.0913
11858TIP3    H257066   0.799   4.673  14.152 -1.1279 -1.5411  0.3654
11859TIP3   OH257067   3.871   6.360  14.186 -0.0686 -0.4953 -0.2397
11859TIP3    H157068   3.810   6.423  14.148  0.2728 -1.3111 -2.2572
11859TIP3    H257069   3.956   6.405  14.185 -0.0220 -0.5948 -0.6327
11860TIP3   OH257070   3.762   1.749   3.965  0.4135  0.1669 -0.0600
11860TIP3    H157071   3.733   1.659   3.984  1.7095 -0.3092 -0.2315
11860TIP3    H257072   3.720   1.803   4.032 -0.7201 -0.4955 -0.2045
11861TIP3   OH257073   5.756   5.125   3.706 -0.0976  0.6163  0.0369
11861TIP3    H157074   5.792   5.095   3.622 -1.1279  0.8560 -0.5062
11861TIP3    H257075   5.747   5.219   3.695  0.9118  0.8340  0.8847
11862TIP3   OH257076   6.848   2.180  14.525  0.4989  0.1973  0.2057
11862TIP3    H157077   6.781   2.240  14.492  1.7007  2.6808  1.9887
11862TIP3    H257078   6.918   2.184  14.460  0.9860  1.5635  0.7870
11863TIP3   OH257079   1.276   0.232   2.603  0.1919  0.0021  0.1843
11863TIP3    H157080   1.341   0.298   2.579  0.4154  0.0818  0.9873
11863TIP3    H257081   1.199   0.253   2.550  0.6109  0.2875 -0.3116
11864TIP3   OH257082   3.807   0.912  14.645  0.2839 -0.2488  0.2209
11864TIP3    H157083   3.829   0.953  14.729 -1.1492 -1.0340  1.0352
11864TIP3    H257084   3.726   0.956  14.618  3.1777  3.6487 -3.4248
11865TIP3   OH257085   2.778   4.252   3.780 -0.3635 -0.2908 -0.0166
11865TIP3    H157086   2.759   4.231   3.872  2.0096 -1.1052  0.3607
11865TIP3    H257087   2.857   4.306   3.784 -0.9136  0.7019 -1.5524
11866TIP3   OH257088   6.594   4.536   0.269 -0.2627  0.8649 -0.0859
11866TIP3    H157089   6.514   4.528   0.217 -0.3450 -0.7635  0.2389
11866TIP3    H257090   6.564   4.565   0.355 -0.5887 -0.2931  0.2028
11867TIP3   OH257091   4.263   2.900   5.689 -0.2838 -0.0280  0.1733
11867TIP3    H157092   4.213   2.956   5.630 -0.2389 -1.6724 -1.5359
11867TIP3    H257093   4.216   2.904   5.772 -1.7179  0.5403 -0.6330
11868TIP3   OH257094   0.284   0.987   2.990  0.4185 -0.1302  0.3496
11868TIP3    H157095   0.191   0.968   3.000  0.6429 -0.2157  2.6812
11868TIP3    H257096   0.328   0.903   3.002  0.8135 -0.2025 -1.3255
11869TIP3   OH257097   6.359   4.535  11.601  0.5432  0.3754 -0.0565
11869TIP3    H157098   6.415   4.487  11.539 -0.7488 -0.0896 -0.9086
11869TIP3    H257099   6.390   4.509  11.687  1.3692 -0.1930 -0.5137
11870TIP3   OH257100   4.566   4.724  11.629 -0.3268  0.0852  0.3671
11870TIP3    H157101   4.617   4.800  11.602 -1.1528  1.2857  2.0105
11870TIP3    H257102   4.512   4.703  11.552 -0.5196  1.5416  0.0869
11871TIP3   OH257103   4.060   1.833  14.200  0.1454  0.2724 -0.2874
11871TIP3    H157104   4.090   1.907  14.254  0.2413 -0.9797  1.4444
11871TIP3    H257105   4.139   1.781  14.186 -0.3501 -0.7438  0.5658
11872TIP3   OH257106   6.271   4.003  13.043  0.5574  0.4527 -0.5860
11872TIP3    H157107   6.248   3.915  13.013 -2.4451  2.1096 -3.8072
11872TIP3    H257108   6.367   4.006  13.035  1.1031 -3.1519  2.0243
11873TIP3   OH257109   3.331   5.182  12.632 -0.0318  0.1035 -0.0158
11873TIP3    H157110   3.353   5.090  12.620 -0.4973  0.1773 -1.7264
11873TIP3    H257111   3.335   5.196  12.726 -0.6189 -1.8288  0.3367
11874TIP3   OH257112   3.584   5.960   4.212  0.0327 -0.4214 -0.1787
11874TIP3    H157113   3.493   5.978   4.190 -0.5201 -1.8577  0.7548
11874TIP3    H257114   3.607   5.884   4.158  0.5284 -0.3387 -0.0905
11875TIP3   OH257115   4.686   5.646  10.322  0.1195  0.0675 -0.4612
11875TIP3    H157116   4.738   5.645  10.242 -0.5013  0.1880 -0.8697
11875TIP3    H257117   4.738   5.595  10.385  1.4579  1.4539 -0.3921
11876TIP3   OH257118   4.303   0.249  14.474  0.2838 -0.6801  0.5865
11876TIP3    H157119   4.289   0.342  14.461  0.3424 -0.9395 -1.8177
11876TIP3    H257120   4.221   0.208  14.448  0.7487 -1.3659  0.1451
11877TIP3   OH257121   0.556   4.487   4.347  0.4502 -0.2583 -0.1382
11877TIP3    H157122   0.494   4.438   4.293 -3.2185  3.6535  0.0316
11877TIP3    H257123   0.517   4.488   4.434  1.9270  0.4787  0.5525
11878TIP3   OH257124   1.850   2.058   1.599 -0.3644  0.7474  0.5465
11878TIP3    H157125   1.816   1.995   1.663  1.2665 -0.7015  0.0730
11878TIP3    H257126   1.925   2.097   1.643 -1.1159  2.0969  0.6695
11879TIP3   OH257127   2.128   4.181   4.747 -0.6677 -0.3221  0.2800
11879TIP3    H157128   2.096   4.270   4.732  1.1002  0.3990  0.5986
11879TIP3    H257129   2.172   4.157   4.666  1.0899  0.1213  1.0580
11880TIP3   OH257130   5.620   0.461  14.063 -0.7359 -0.2753 -0.5908
11880TIP3    H157131   5.618   0.535  14.002  1.6712  0.5608  0.2361
11880TIP3    H257132   5.543   0.473  14.118 -0.2836  1.7565 -0.3445
11881TIP3   OH257133   4.266   2.046   5.246 -0.1666 -0.4570  0.0745
11881TIP3    H157134   4.280   2.140   5.244  2.5120 -0.7245 -3.1621
11881TIP3    H257135   4.283   2.021   5.337 -0.7135  2.0928  0.9638
11882TIP3   OH257136   3.964   6.208  12.585  0.2188  0.9133  0.1154
11882TIP3    H157137   3.889   6.172  12.538  0.4840 -0.9581  1.0051
11882TIP3    H257138   3.982   6.291  12.543 -2.1501  1.2656 -0.3285
11883TIP3   OH257139   2.815   4.439   6.160 -0.1866 -0.0963  0.0263
11883TIP3    H157140   2.807   4.517   6.104  1.8093 -0.4842 -0.8691
11883TIP3    H257141   2.882   4.461   6.224  1.3584 -1.4764 -1.0386
11884TIP3   OH257142   1.882   2.792  12.235  0.1600  0.1119  0.6201
11884TIP3    H157143   1.805   2.847  12.220  0.3562  0.2710  0.2016
11884TIP3    H257144   1.915   2.771  12.148  1.2547  0.9855  0.8008
11885TIP3   OH257145   5.785   2.362   1.144 -0.2945 -0.2034  0.0927
11885TIP3    H157146   5.842   2.328   1.075 -0.5489 -1.8045  0.6308
11885TIP3    H257147   5.795   2.301   1.216 -1.8101  0.1225  0.6259
11886TIP3   OH257148   0.486   1.059   5.568  0.4168 -0.0470  0.1419
11886TIP3    H157149   0.458   1.098   5.651 -2.9850 -4.0042  1.1757
11886TIP3    H257150   0.457   1.121   5.501 -3.1921  0.2010  1.7274
11887TIP3   OH257151   0.128   4.961   3.916 -0.0822 -0.0142  0.5078
11887TIP3    H157152   0.167   4.908   3.846  0.1217  0.9705 -0.1512
11887TIP3    H257153   0.101   5.042   3.872  0.1056  0.6509  1.5775
11888TIP3   OH257154   4.704   6.509   2.522 -1.2150 -0.5413 -0.3494
11888TIP3    H157155   4.746   6.445   2.464 -0.5657 -0.5051  0.0726
11888TIP3    H257156   4.674   6.578   2.464  1.5626  0.6932 -0.4604
11889TIP3   OH257157   2.524   0.753   3.940 -0.3490  0.6612  0.1626
11889TIP3    H157158   2.563   0.674   3.902  1.1136  0.7832  1.3353
11889TIP3    H257159   2.471   0.790   3.869 -0.6939 -1.1022 -0.5595
11890TIP3   OH257160   6.347   6.160   1.951 -0.1933 -0.4436 -0.0806
11890TIP3    H157161   6.405   6.230   1.980  0.1345 -0.6662 -0.1933
11890TIP3    H257162   6.303   6.131   2.031 -1.5337  0.9536 -0.2507
11891TIP3   OH257163   2.167   1.878  12.411  0.2015  0.6582 -0.4473
11891TIP3    H157164   2.172   1.936  12.487 -2.2565 -0.8841  1.0129
11891TIP3    H257165   2.078   1.891  12.377  0.2221 -0.9144 -1.1834
11892TIP3   OH257166   1.794   4.544   2.653 -0.2828 -0.0958 -0.0579
11892TIP3    H157167   1.738   4.537   2.731 -0.4318  0.8997 -0.0600
11892TIP3    H257168   1.821   4.636   2.651 -1.0079  0.1228 -1.6792
11893TIP3   OH257169   5.974   4.607   2.214  0.0935  0.3578  0.3407
11893TIP3    H157170   5.899   4.649   2.256 -0.0501  1.5686 -1.0729
11893TIP3    H257171   6.046   4.671   2.222  0.3543  0.1528 -0.2880
11894TIP3   OH257172   6.458   2.538   3.146  0.2327  0.5216 -0.4939
11894TIP3    H157173   6.506   2.460   3.173  1.5777  1.8892  1.3637
11894TIP3    H257174   6.506   2.572   3.071  0.2133  0.0844 -0.7038
11895TIP3   OH257175   1.483   2.821   1.972 -0.0570  0.3941 -0.2750
11895TIP3    H157176   1.511   2.848   2.059 -2.4514 -0.3102  0.8078
11895TIP3    H257177   1.399   2.865   1.959 -1.3125 -1.9491 -0.8165
11896TIP3   OH257178   5.681   1.324   4.956  0.4037 -0.1069  0.5447
11896TIP3    H157179   5.690   1.302   4.863 -3.1153  0.4358 -0.0795
11896TIP3    H257180   5.679   1.420   4.957  0.9928 -0.0981  1.2830
11897TIP3   OH257181   2.273   3.971   1.008  0.0613  0.4939  0.7083
11897TIP3    H157182   2.363   3.991   1.033  0.2422  0.2710  0.2464
11897TIP3    H257183   2.274   3.970   0.912 -0.5282  0.9394  0.6847
11898TIP3   OH257184   0.805   0.519  12.580  0.2049  0.0011  0.3545
11898TIP3    H157185   0.824   0.449  12.642 -0.8154 -0.3318  0.2985
11898TIP3    H257186   0.888   0.566  12.572  0.8074 -0.9627  0.6848
11899TIP3   OH257187   0.039   1.133   5.939 -0.3498 -0.4538 -0.5853
11899TIP3    H157188   0.024   1.228   5.936  1.8620 -0.0639 -1.2839
11899TIP3    H257189   0.009   1.107   6.027  1.2994  1.3749  0.5980
11900TIP3   OH257190   2.567   5.348   3.577 -0.3246  0.6361 -0.3144
11900TIP3    H157191   2.509   5.282   3.539  0.4705 -0.0941 -0.3026
11900TIP3    H257192   2.623   5.374   3.504  1.5963 -1.1923  0.4013
11901TIP3   OH257193   2.243   1.555   4.390  0.5892  0.4216  0.0134
11901TIP3    H157194   2.224   1.648   4.402 -0.3359 -0.0227  2.4448
11901TIP3    H257195   2.309   1.536   4.457  0.0582 -0.8615  0.1906
11902TIP3   OH257196   1.316   5.905  15.877 -0.8374  0.4015 -0.1761
11902TIP3    H157197   1.221   5.910  15.881 -1.2030 -2.2812 -2.4899
11902TIP3    H257198   1.338   5.824  15.923 -0.0509 -0.6619 -2.2841
11903TIP3   OH257199   4.517   0.140  15.302 -0.2271  0.3547  0.7511
11903TIP3    H157200   4.435   0.186  15.319 -0.3959  0.1124  0.6047
11903TIP3    H257201   4.491   0.066  15.247  0.2431  0.8691 -0.1860
11904TIP3   OH257202   1.418   3.819  14.470  0.1386 -0.4020 -0.6746
11904TIP3    H157203   1.448   3.761  14.399  1.8542  0.0251 -0.3461
11904TIP3    H257204   1.499   3.849  14.511 -0.8122  0.1923  0.8075
11905TIP3   OH257205   5.237   2.249   3.586 -0.1116  0.1658 -0.4656
11905TIP3    H157206   5.232   2.326   3.643 -2.6935 -1.1698  1.2858
11905TIP3    H257207   5.313   2.201   3.618 -1.1186 -0.2120  1.4804
11906TIP3   OH257208   0.560   0.095  13.587  0.2105 -0.2560 -0.5672
11906TIP3    H157209   0.480   0.095  13.638 -0.4779 -0.5762 -1.6098
11906TIP3    H257210   0.615   0.028  13.626 -0.3071 -0.4993 -0.2623
11907TIP3   OH257211   3.081   6.753   0.640 -0.0423  0.0068  0.2406
11907TIP3    H157212   3.161   6.756   0.589 -1.0698 -2.3340 -1.6704
11907TIP3    H257213   3.032   6.831   0.613  0.1716 -0.3097 -1.1127
11908TIP3   OH257214   2.102   3.334   3.530 -0.2646 -0.1262  0.6395
11908TIP3    H157215   2.160   3.267   3.492  0.1187  0.7146 -0.2862
11908TIP3    H257216   2.072   3.385   3.456 -0.7593  0.5888  1.3165
11909TIP3   OH257217   6.774   1.923   5.675 -0.5675  0.3197 -0.4536
11909TIP3    H157218   6.737   1.884   5.753 -2.4832  0.2648 -1.3427
11909TIP3    H257219   6.832   1.992   5.707  1.0674 -1.6542  1.0666
11910TIP3   OH257220   1.735   4.477  16.496 -0.0780 -0.0986  0.3950
11910TIP3    H157221   1.719   4.386  16.519 -0.6727 -0.5033 -1.4474
11910TIP3    H257222   1.797   4.473  16.423  0.0108  0.9776  0.3910
11911TIP3   OH257223   6.789   5.042  16.114  0.2458  0.0954 -0.1912
11911TIP3    H157224   6.836   5.084  16.042  3.2809 -1.6244  0.5833
11911TIP3    H257225   6.741   4.970  16.074  0.1578  0.4484 -0.7300
11912TIP3   OH257226   1.720   1.880   0.993  0.2118 -0.8603  0.5394
11912TIP3    H157227   1.758   1.831   1.066  0.6927  1.8079  2.2200
11912TIP3    H257228   1.647   1.928   1.031  2.2439  2.9224  0.1791
11913TIP3   OH257229   0.048   6.006  16.241  0.2557  0.5060  0.4842
11913TIP3    H157230  -0.002   5.926  16.256 -0.7990  1.0771  0.1409
11913TIP3    H257231   0.130   5.977  16.201 -0.7175 -0.3159 -1.0186
11914TIP3   OH257232   4.067   3.100   4.875 -0.1066  0.1035 -0.9274
11914TIP3    H157233   4.125   3.031   4.844  1.0999  0.6536  0.0312
11914TIP3    H257234   4.119   3.181   4.867 -0.8022  0.6369 -0.2411
11915TIP3   OH257235   2.586   0.527  13.354  1.1721 -0.2704  0.2021
11915TIP3    H157236   2.497   0.506  13.325  1.1363  1.1260 -0.8091
11915TIP3    H257237   2.574   0.597  13.418  1.5161 -0.3508  0.3524
11916TIP3   OH257238   0.870   2.507  12.691 -0.5011 -0.4332 -0.7160
11916TIP3    H157239   0.828   2.507  12.777 -1.4930  0.8626 -1.1729
11916TIP3    H257240   0.842   2.425  12.651 -0.2994 -0.8900  0.0539
11917TIP3   OH257241   0.803   5.759  14.727 -0.3203 -0.0279 -0.3002
11917TIP3    H157242   0.816   5.843  14.683  0.2706 -0.2354 -0.5294
11917TIP3    H257243   0.736   5.777  14.793  0.2153  0.7653  0.0397
11918TIP3   OH257244   5.024   4.364  16.535 -0.0475  0.7453  0.3514
11918TIP3    H157245   5.069   4.348  16.452  1.8667  3.3282  0.7920
11918TIP3    H257246   4.940   4.401  16.510 -0.3983 -0.4988 -0.4235
11919TIP3   OH257247   6.230   6.554  10.402 -0.3540 -0.2110 -0.2625
11919TIP3    H157248   6.185   6.471  10.420 -0.5955  0.1637  0.9003
11919TIP3    H257249   6.311   6.549  10.453 -0.0305 -0.0249 -0.7499
11920TIP3   OH257250   5.379   5.307  11.499 -0.1290  0.0386 -0.5157
11920TIP3    H157251   5.431   5.381  11.466 -0.2573 -0.1146 -1.0601
11920TIP3    H257252   5.295   5.346  11.522  1.0867  0.9404  3.2704
11921TIP3   OH257253   2.028   6.439   3.978 -0.3825 -0.1708 -0.0298
11921TIP3    H157254   1.940   6.421   4.010 -0.9982 -0.3193 -1.6998
11921TIP3    H257255   2.028   6.533   3.959  0.3747  0.1726  1.4813
11922TIP3   OH257256   1.044   3.765  14.782 -0.1088  0.2744 -0.6263
11922TIP3    H157257   1.031   3.818  14.704  2.1068 -0.8271 -1.8333
11922TIP3    H257258   0.997   3.683  14.765 -0.0902  0.2492 -0.5607
11923TIP3   OH257259   0.125   4.700  13.671  0.9081 -0.2885 -0.1824
11923TIP3    H157260   0.062   4.768  13.692 -0.2382 -1.1147 -0.8235
11923TIP3    H257261   0.150   4.717  13.580  1.7992  0.1678  0.1375
11924TIP3   OH257262   5.783   0.475  12.595 -0.2624  0.1439  0.1939
11924TIP3    H157263   5.816   0.561  12.622 -1.3376  0.6796 -0.1429
11924TIP3    H257264   5.748   0.489  12.507 -0.9652 -0.4979  0.3564
11925TIP3   OH257265   0.529   2.811  10.872  0.2597  0.6596  0.5406
11925TIP3    H157266   0.475   2.793  10.949  0.8022  0.7490  0.9413
11925TIP3    H257267   0.503   2.899  10.845 -2.3620 -0.5293 -1.3953
11926TIP3   OH257268   2.402   3.220   0.054  0.1496 -0.0173  0.2682
11926TIP3    H157269   2.449   3.171  -0.013  1.5352  1.4401  0.1304
11926TIP3    H257270   2.315   3.179   0.057 -0.0838  0.0945 -2.6568
11927TIP3   OH257271   6.836   5.079   1.379  0.0139  0.2556 -0.1106
11927TIP3    H157272   6.860   5.105   1.468  3.0358  3.4003 -1.6063
11927TIP3    H257273   6.794   5.157   1.342 -0.8875 -0.8696 -1.5737
11928TIP3   OH257274   6.122   4.423   0.361  0.2700  0.1270  0.5844
11928TIP3    H157275   6.062   4.428   0.287  0.4646 -0.9412  0.3467
11928TIP3    H257276   6.159   4.335   0.357  1.7153  0.6965  0.8410
11929TIP3   OH257277   0.503   4.102   3.469  0.5657  0.7996  0.5142
11929TIP3    H157278   0.555   4.048   3.528  1.6805  1.4725  0.1736
11929TIP3    H257279   0.567   4.140   3.409 -0.3563  1.4388 -0.0882
11930TIP3   OH257280   3.010   3.891  14.389  0.2602  0.4257 -0.1920
11930TIP3    H157281   3.019   3.912  14.482  0.4164 -0.3964 -0.0141
11930TIP3    H257282   3.096   3.909  14.352  1.0524 -1.8488  0.3734
11931TIP3   OH257283   5.519   4.102   6.168  0.0303 -0.0501 -0.4129
11931TIP3    H157284   5.582   4.033   6.147  0.4371  0.4605 -0.9029
11931TIP3    H257285   5.564   4.183   6.144 -0.8105  0.3240 -0.7704
11932TIP3   OH257286   6.304   1.171   2.989  0.5557 -0.1218  0.6529
11932TIP3    H157287   6.281   1.123   2.909  1.7369  2.3766 -1.3345
11932TIP3    H257288   6.222   1.212   3.016  0.2553 -0.5510  0.4153
11933TIP3   OH257289   3.981   0.039   3.084 -0.2385 -0.2325  0.7088
11933TIP3    H157290   3.944  -0.022   3.021  0.3795  1.1512 -1.0662
11933TIP3    H257291   3.921   0.113   3.084  1.2384  1.0341 -0.4855
11934TIP3   OH257292   3.671   4.291   2.030 -0.6402  0.4795  0.3972
11934TIP3    H157293   3.707   4.250   1.952  1.5458  1.4439  0.8124
11934TIP3    H257294   3.587   4.328   2.002 -1.5990 -2.1481 -0.5469
11935TIP3   OH257295   0.013   4.948  13.678 -0.7331 -0.6234  0.1011
11935TIP3    H157296   0.002   4.995  13.760  1.5938 -0.3034  0.3133
11935TIP3    H257297   0.001   5.014  13.610 -1.1921 -0.5618  0.2424
11936TIP3   OH257298   0.987   2.644   2.602  0.0091 -0.1295  0.6147
11936TIP3    H157299   0.901   2.678   2.626  0.5937  0.9813  1.2029
11936TIP3    H257300   1.012   2.590   2.677 -0.6421 -1.3826 -0.0429
11937TIP3   OH257301   4.227   6.690  16.591 -0.2106 -0.2438 -0.3631
11937TIP3    H157302   4.217   6.765  16.650 -0.0753  0.7744 -1.5977
11937TIP3    H257303   4.242   6.729  16.505  3.8975 -1.6272 -0.4532
11938TIP3   OH257304   6.750   0.128  16.057 -0.1233 -0.2157  0.0749
11938TIP3    H157305   6.691   0.101  15.987 -2.6345  2.4851  0.9958
11938TIP3    H257306   6.791   0.208  16.026  0.0035  0.1164  1.0561
11939TIP3   OH257307   3.711   4.133   6.119  0.3390  0.2314  0.1270
11939TIP3    H157308   3.622   4.146   6.150  1.1483  1.6682  2.1199
11939TIP3    H257309   3.707   4.151   6.025 -1.9601 -2.6989 -0.4808
11940TIP3   OH257310   1.565   5.105   4.165  0.7958 -0.4862 -0.0406
11940TIP3    H157311   1.554   5.073   4.255  2.4153 -0.4275  0.2181
11940TIP3    H257312   1.577   5.026   4.112  1.9450 -0.4718  0.1561
11941TIP3   OH257313   3.014   5.257   6.627 -0.0319  0.2423  0.2456
11941TIP3    H157314   2.981   5.168   6.615  0.0596  0.3302 -0.7163
11941TIP3    H257315   3.109   5.249   6.620  0.0440  0.2705  1.1578
11942TIP3   OH257316   1.797   3.519   4.778  0.6001 -0.1849 -0.0579
11942TIP3    H157317   1.885   3.553   4.797  0.1551  3.0816 -2.7266
11942TIP3    H257318   1.747   3.534   4.858  2.0242 -0.4452  0.9132
11943TIP3   OH257319   2.370   2.568   0.749  0.2070  0.1446 -0.3816
11943TIP3    H157320   2.285   2.525   0.739 -0.2656  0.5690  1.3270
11943TIP3    H257321   2.400   2.541   0.836  1.5801  0.4412 -0.7336
11944TIP3   OH257322   0.853   0.606  15.086 -0.0588 -0.9188 -0.7020
11944TIP3    H157323   0.874   0.697  15.107 -0.5052 -1.1554  0.8829
11944TIP3    H257324   0.913   0.583  15.015  1.2908  0.0645  0.0785
11945TIP3   OH257325   4.170   1.062  11.652  0.4270 -0.0369  0.7285
11945TIP3    H157326   4.214   1.034  11.571 -1.7723 -1.6552 -0.0077
11945TIP3    H257327   4.118   1.138  11.625 -0.0253 -0.3585  0.6705
11946TIP3   OH257328   0.473   1.133  10.800 -0.1725  0.2384 -0.2904
11946TIP3    H157329   0.386   1.137  10.759 -0.9178  2.3281  1.3094
11946TIP3    H257330   0.472   1.051  10.850 -2.1025  1.1872  1.3771
11947TIP3   OH257331   5.468   0.481   6.129  0.4551 -0.2667  0.4057
11947TIP3    H157332   5.460   0.539   6.205 -0.3771 -0.8808  0.8013
11947TIP3    H257333   5.537   0.419   6.152  2.3260  1.3309 -0.5581
11948TIP3   OH257334   4.641   0.413  16.032  0.0618  0.7930  0.4719
11948TIP3    H157335   4.553   0.427  16.068  0.3342  2.2128  0.6710
11948TIP3    H257336   4.700   0.433  16.105  0.5553 -1.0809  0.6156
11949TIP3   OH257337   4.860   3.068   1.554  0.1313 -0.0658  0.1541
11949TIP3    H157338   4.905   3.088   1.636 -1.3479  1.5191  0.6227
11949TIP3    H257339   4.931   3.054   1.491  1.3136 -2.1349  1.8215
11950TIP3   OH257340   5.131   3.307   1.234  0.3157  0.4997  0.0513
11950TIP3    H157341   5.036   3.313   1.238  0.4326  1.9308  1.4135
11950TIP3    H257342   5.162   3.347   1.315  2.0755 -0.5860 -0.0194
11951TIP3   OH257343   4.415   2.081   5.547  0.2694  0.1445  0.1233
11951TIP3    H157344   4.445   2.170   5.562  1.8436 -0.6088  1.8319
11951TIP3    H257345   4.479   2.045   5.484  0.7677 -0.3164  0.8737
11952TIP3   OH257346   2.727   0.021  15.374  0.0334  0.5096 -0.3712
11952TIP3    H157347   2.788  -0.050  15.354 -0.7347 -0.2292 -0.1113
11952TIP3    H257348   2.641  -0.013  15.350 -0.2901  1.5172 -0.6601
11953TIP3   OH257349   2.070   2.355   5.534 -0.0704 -0.3376 -0.2333
11953TIP3    H157350   1.978   2.364   5.557 -0.1919 -0.7391 -0.5592
11953TIP3    H257351   2.073   2.285   5.469  0.2857  0.6395 -1.3223
11954TIP3   OH257352   2.469   1.622   5.330 -0.9924  0.5268 -0.7583
11954TIP3    H157353   2.426   1.707   5.340 -1.1204  0.4919 -0.9968
11954TIP3    H257354   2.488   1.594   5.419 -2.3462  0.1017 -0.5752
11955TIP3   OH257355   6.470   4.175  10.434 -0.0556 -0.1234 -0.1528
11955TIP3    H157356   6.381   4.197  10.462 -0.2933 -0.4162 -0.6728
11955TIP3    H257357   6.475   4.080  10.441  0.3116 -0.0911  0.1268
11956TIP3   OH257358   6.504   0.200   1.819  0.2709  0.1289 -0.1069
11956TIP3    H157359   6.553   0.252   1.884 -0.3889  0.0734  0.4449
11956TIP3    H257360   6.568   0.138   1.786  0.5740  0.0243  0.6467
11957TIP3   OH257361   5.489   3.975  12.186  0.4309 -0.1148  0.3657
11957TIP3    H157362   5.528   4.021  12.113 -2.5408 -1.6176 -2.4266
11957TIP3    H257363   5.412   4.028  12.209 -0.8920 -1.6326 -0.3745
11958TIP3   OH257364   1.957   4.193  16.651  0.6009  0.0078 -0.1664
11958TIP3    H157365   1.867   4.195  16.618  0.7176  0.4203 -0.4764
11958TIP3    H257366   1.998   4.272  16.615  0.2604  1.4405  2.3473
11959TIP3   OH257367   6.081   2.394   6.001 -0.0113  0.0888 -0.3450
11959TIP3    H157368   6.048   2.357   6.083  0.7495  1.7595  0.7693
11959TIP3    H257369   6.174   2.410   6.017  0.4931 -0.8714 -2.0587
11960TIP3   OH257370   2.692   3.723  15.888 -0.3368  0.1800 -0.2390
11960TIP3    H157371   2.733   3.653  15.940 -2.7786  0.0200  1.6246
11960TIP3    H257372   2.743   3.801  15.909  0.0205 -0.3007  0.7747
11961TIP3   OH257373   2.487   2.857   5.253  0.3647 -0.3546  0.0459
11961TIP3    H157374   2.464   2.767   5.230 -0.3289 -0.3651  0.6935
11961TIP3    H257375   2.404   2.905   5.246  0.7205  0.2240 -0.2571
11962TIP3   OH257376   1.147   1.841   5.896  0.0905  0.1499  0.1897
11962TIP3    H157377   1.075   1.799   5.943  0.3003  0.4897  0.8344
11962TIP3    H257378   1.220   1.838   5.958  0.5684  0.0083 -0.3740
11963TIP3   OH257379   2.373   1.909   1.682  0.6215 -0.0607 -0.1718
11963TIP3    H157380   2.305   1.872   1.738 -0.3017  2.2350  0.3337
11963TIP3    H257381   2.334   1.911   1.594  0.4325  0.2410 -0.0842
11964TIP3   OH257382   3.201   5.812   4.933 -0.1729 -0.2127  0.0479
11964TIP3    H157383   3.273   5.874   4.941  0.0342 -0.5389  0.8443
11964TIP3    H257384   3.136   5.842   4.997 -1.0853  0.5007 -1.1597
11965TIP3   OH257385   5.636   4.182   0.791  0.0558  0.2867 -0.9555
11965TIP3    H157386   5.697   4.240   0.836  0.9832 -1.4135  0.0864
11965TIP3    H257387   5.682   4.098   0.785 -1.3429 -0.4459 -2.1209
11966TIP3   OH257388   2.704   0.200  16.266 -0.0374 -0.2626 -0.6397
11966TIP3    H157389   2.608   0.193  16.264  0.0179 -0.9835 -1.3801
11966TIP3    H257390   2.723   0.277  16.211 -0.2481  0.8451  0.7783
11967TIP3   OH257391   4.592   2.924  11.180 -0.5975  0.0855  0.3318
11967TIP3    H157392   4.575   2.854  11.117  0.3193 -0.4552  0.6726
11967TIP3    H257393   4.654   2.982  11.135 -0.1016 -0.1919  0.6492
11968TIP3   OH257394   6.768   1.009  12.229  0.7305  0.1467  0.6670
11968TIP3    H157395   6.737   1.031  12.141 -0.5328 -2.4773  0.3754
11968TIP3    H257396   6.765   1.093  12.276 -3.5006  0.8387 -0.3822
11969TIP3   OH257397   1.765   1.399   2.544  0.0513 -0.1075  0.1323
11969TIP3    H157398   1.698   1.466   2.556  0.6058  0.1753  1.9298
11969TIP3    H257399   1.716   1.319   2.526 -0.6440  0.5596 -1.1282
11970TIP3   OH257400   1.055   0.491  12.313 -0.9530 -0.3144 -0.3214
11970TIP3    H157401   1.083   0.557  12.376  0.3272 -2.3288  1.3156
11970TIP3    H257402   1.133   0.470  12.263 -1.2370 -0.9359 -0.5124
11971TIP3   OH257403   6.467   4.965   2.990 -0.1472  1.0125  0.4425
11971TIP3    H157404   6.406   5.004   2.927 -0.4881 -0.4567 -0.1779
11971TIP3    H257405   6.455   4.871   2.980  1.4468  0.7048  1.1044
11972TIP3   OH257406   5.176   1.762  15.730 -0.6421  0.1677  0.7744
11972TIP3    H157407   5.207   1.830  15.790 -0.5464  0.7853  0.0293
11972TIP3    H257408   5.227   1.684  15.754 -1.5817  0.0108  2.4198
11973TIP3   OH257409   2.465   1.094  15.868  0.1598 -0.1425 -0.3114
11973TIP3    H157410   2.501   1.182  15.855  1.6574 -0.4625  1.2097
11973TIP3    H257411   2.526   1.053  15.930 -0.7765 -2.0870 -0.6116
11974TIP3   OH257412   3.871   2.376  16.547  0.3046 -0.4720 -0.0269
11974TIP3    H157413   3.840   2.340  16.464  1.0216  0.7374 -0.8505
11974TIP3    H257414   3.801   2.434  16.576  0.2262 -0.5745 -0.0157
11975TIP3   OH257415   2.531   4.978   1.707  0.2132 -0.4081 -0.3197
11975TIP3    H157416   2.548   4.896   1.661  0.5343 -0.6227  0.1706
11975TIP3    H257417   2.492   5.036   1.641 -1.3919 -1.4287 -0.3186
11976TIP3   OH257418   6.452   1.052  12.227 -0.2846 -0.1416  0.3334
11976TIP3    H157419   6.413   1.099  12.153  1.8128 -0.3218 -0.9721
11976TIP3    H257420   6.456   1.118  12.297  2.3596  1.7209 -1.3731
11977TIP3   OH257421   5.335   5.464  13.463 -0.2818  0.4527  0.0923
11977TIP3    H157422   5.316   5.558  13.465 -2.1235  0.0897  0.8808
11977TIP3    H257423   5.315   5.433  13.551 -1.9749 -1.0795 -0.7672
11978TIP3   OH257424   4.844   2.045   2.092  0.1118  0.6063  0.3602
11978TIP3    H157425   4.861   2.117   2.153 -0.1026  0.0321  1.1084
11978TIP3    H257426   4.880   2.076   2.009  0.9040  1.1813  0.8948
11979TIP3   OH257427   3.129   5.430   1.264  0.1785  0.1383  0.6764
11979TIP3    H157428   3.165   5.491   1.328  0.7833 -0.0164  0.4912
11979TIP3    H257429   3.154   5.466   1.179  0.1808 -0.1506  0.5535
11980TIP3   OH257430   6.164   3.668   1.825  0.0507 -0.1442  0.1838
11980TIP3    H157431   6.107   3.738   1.857 -0.0396 -0.9115  1.8214
11980TIP3    H257432   6.214   3.642   1.902  1.9479 -0.1506 -0.9798
11981TIP3   OH257433   2.747   2.165   2.009 -0.3301 -0.2047 -0.3328
11981TIP3    H157434   2.784   2.253   2.014  0.6486 -0.5630 -0.9715
11981TIP3    H257435   2.736   2.138   2.101 -2.1498  1.1615 -0.0812
11982TIP3   OH257436   4.031   6.090   3.703 -0.3075 -0.1725  0.4455
11982TIP3    H157437   4.083   6.155   3.656 -0.2728  0.2781  1.0978
11982TIP3    H257438   4.036   6.012   3.648 -0.8338  0.5328 -0.6465
11983TIP3   OH257439   4.403   4.858   2.858 -0.4447 -0.3791  0.3090
11983TIP3    H157440   4.389   4.933   2.800  1.0404  0.9740  1.5939
11983TIP3    H257441   4.453   4.894   2.932  0.1495 -2.6077  1.0730
11984TIP3   OH257442   5.943   2.237   0.136 -0.3846 -0.1847 -0.1081
11984TIP3    H157443   5.913   2.246   0.227 -0.1380  3.2245 -0.2284
11984TIP3    H257444   6.037   2.225   0.144 -0.5092 -1.0863  0.0890
11985TIP3   OH257445   6.197   3.151   3.202 -0.0600  0.1489 -0.1761
11985TIP3    H157446   6.213   3.245   3.195  2.7371 -0.2236 -0.1707
11985TIP3    H257447   6.221   3.130   3.292 -0.4602 -0.6073 -0.2375
11986TIP3   OH257448   3.769   0.500   3.222 -0.5490 -0.2436 -0.0830
11986TIP3    H157449   3.683   0.525   3.188 -0.4919  1.9070  1.1560
11986TIP3    H257450   3.811   0.583   3.246  1.7895 -1.2395 -0.3948
11987TIP3   OH257451   6.432   1.510  15.704  0.3891  0.3176 -0.5860
11987TIP3    H157452   6.422   1.580  15.768  1.3146  1.8640 -2.0611
11987TIP3    H257453   6.448   1.555  15.621 -0.3648 -1.6172 -1.8570
11988TIP3   OH257454   1.692   4.415   5.288  0.1707  0.0469  0.3125
11988TIP3    H157455   1.677   4.509   5.295 -0.5523  0.0747 -1.1393
11988TIP3    H257456   1.604   4.377   5.286  0.4576 -0.7050  1.2045
11989TIP3   OH257457   6.322   1.873  14.195 -0.1313  0.4329  0.0398
11989TIP3    H157458   6.411   1.894  14.167 -0.3807 -0.5151 -1.5628
11989TIP3    H257459   6.266   1.916  14.130 -0.7293 -1.9330 -1.1148
11990TIP3   OH257460   0.625   2.841   0.174  0.2843  0.2439 -0.4217
11990TIP3    H157461   0.595   2.762   0.220 -1.8839 -0.1581 -2.3033
11990TIP3    H257462   0.693   2.809   0.115  1.0666  0.2360  0.4735
11991TIP3   OH257463   2.570   2.559  16.777 -0.6742 -0.0567  0.3225
11991TIP3    H157464   2.588   2.545  16.870 -0.5405 -0.7517  0.1929
11991TIP3    H257465   2.478   2.538  16.766 -0.6400 -0.1680  0.2548
11992TIP3   OH257466   1.088   1.259  11.500  0.2854 -0.0378  0.6464
11992TIP3    H157467   1.029   1.190  11.468 -0.7125  0.3504  1.5739
11992TIP3    H257468   1.043   1.341  11.478  1.1100  0.2951  0.2026
11993TIP3   OH257469   5.854   5.025   2.357  0.4994 -0.4483 -0.0209
11993TIP3    H157470   5.887   4.979   2.434 -0.3746 -1.8275 -0.4323
11993TIP3    H257471   5.767   5.055   2.383  1.0160  0.9597  0.2083
11994TIP3   OH257472   0.466   4.427  11.441 -0.3265  0.7959 -0.2295
11994TIP3    H157473   0.478   4.332  11.442  0.2825  0.8523 -1.2903
11994TIP3    H257474   0.404   4.444  11.512  1.3057 -0.1381  1.5003
11995TIP3   OH257475   2.888   2.065   3.615  0.0887 -0.0552 -0.1157
11995TIP3    H157476   2.921   2.132   3.556  0.2250  0.8880  0.9901
11995TIP3    H257477   2.967   2.027   3.655  0.0051 -0.7753 -0.6148
11996TIP3   OH257478   5.764   2.775   4.567 -0.6809 -0.1501  0.2823
11996TIP3    H157479   5.768   2.720   4.645 -1.8846 -0.3534  0.2109
11996TIP3    H257480   5.751   2.713   4.495  0.2346  0.0537 -0.0746
11997TIP3   OH257481   2.593   5.675  14.134  0.2066 -0.8529 -0.2752
11997TIP3    H157482   2.526   5.721  14.084 -0.6312 -0.5770  1.0610
11997TIP3    H257483   2.658   5.742  14.155 -0.7377 -0.3476  1.1923
11998TIP3   OH257484   5.261   5.793   4.485 -0.2390 -0.3382  0.3251
11998TIP3    H157485   5.247   5.762   4.574 -1.8129 -0.0268  0.2188
11998TIP3    H257486   5.327   5.734   4.449 -0.7804 -1.4935  1.1749
11999TIP3   OH257487   0.581   4.070  17.012  0.3510 -0.3862  0.1408
11999TIP3    H157488   0.557   4.139  16.950  1.5751 -1.5751 -1.7412
11999TIP3    H257489   0.676   4.075  17.018  0.3284 -0.9503  1.1699
12000TIP3   OH257490   4.855   6.429   0.132 -0.3410  0.2881  0.6021
12000TIP3    H157491   4.848   6.488   0.058  0.3891 -0.8478 -0.4046
12000TIP3    H257492   4.926   6.465   0.185  1.9271 -0.9918 -1.3419
12001TIP3   OH257493   5.219   3.875  12.774 -0.0880 -0.0082 -0.4244
12001TIP3    H157494   5.256   3.850  12.689  0.1266 -0.1088 -0.3038
12001TIP3    H257495   5.126   3.886  12.758  0.2502  2.2733 -1.2208
12002TIP3   OH257496   0.338   4.864  13.799  0.4974 -0.1123 -0.1755
12002TIP3    H157497   0.348   4.808  13.722 -1.6080  0.2027 -0.7370
12002TIP3    H257498   0.261   4.831  13.844  0.6172  0.8565  0.7951
12003TIP3   OH257499   1.815   5.144  10.606 -1.0958  0.0273  0.8710
12003TIP3    H157500   1.818   5.167  10.513 -1.8738  1.9814  1.2706
12003TIP3    H257501   1.729   5.105  10.619 -1.0872 -0.0082  0.8210
12004TIP3   OH257502   5.929   3.307  11.264  0.5691 -0.5624  0.8931
12004TIP3    H157503   5.837   3.320  11.287  0.5727  0.2021  0.5232
12004TIP3    H257504   5.978   3.343  11.338  0.5780  1.6296 -0.1084
12005TIP3   OH257505   5.296   3.936   5.898 -0.3790  0.2264  0.2245
12005TIP3    H157506   5.249   3.927   5.980 -1.0092  1.4797  0.0185
12005TIP3    H257507   5.302   4.030   5.883 -0.7377  0.0250 -1.4123
12006TIP3   OH257508   4.546   5.131  13.640 -0.3018 -0.4572 -0.1919
12006TIP3    H157509   4.612   5.083  13.689 -1.3921  0.0025  1.8328
12006TIP3    H257510   4.522   5.072  13.568  0.3824 -1.7588  0.6101
12007TIP3   OH257511   5.751   2.497  11.169  0.8800  0.3180 -0.3577
12007TIP3    H157512   5.656   2.494  11.156  0.5898  0.4258  1.4096
12007TIP3    H257513   5.785   2.427  11.113 -0.3596 -0.4186 -0.2364
12008TIP3   OH257514   6.585   0.690   2.707 -0.6710  0.1716 -0.3056
12008TIP3    H157515   6.517   0.756   2.691  0.9888  1.5564 -2.0901
12008TIP3    H257516   6.606   0.655   2.620 -1.4185 -2.7237  0.5775
12009TIP3   OH257517   6.090   2.140   1.962 -0.3998  0.0983 -0.6086
12009TIP3    H157518   6.173   2.148   2.009 -0.9419  0.5921  0.2841
12009TIP3    H257519   6.104   2.066   1.903  0.7188  0.2535 -0.5755
12010TIP3   OH257520   2.482   6.458  14.758 -0.3086 -0.3602  0.2862
12010TIP3    H157521   2.491   6.375  14.805  1.2514 -0.8709 -0.8486
12010TIP3    H257522   2.568   6.499  14.766 -1.5131  2.0750  2.3975
12011TIP3   OH257523   0.026   3.235   5.560 -0.1286  0.5130  0.4752
12011TIP3    H157524  -0.017   3.228   5.645  0.7873 -0.0172  0.9144
12011TIP3    H257525  -0.039   3.203   5.497 -0.5370  0.1605  1.0657
12012TIP3   OH257526   4.716   1.903   1.891  0.2779  0.0293  0.1366
12012TIP3    H157527   4.760   1.930   1.971  0.3459 -0.1593  0.1622
12012TIP3    H257528   4.787   1.888   1.829  0.2843 -0.8534  0.3539
12013TIP3   OH257529   5.964   6.331   4.614  0.3265 -0.3378 -0.3104
12013TIP3    H157530   6.037   6.340   4.553  1.8951 -1.5692  1.2806
12013TIP3    H257531   5.901   6.274   4.568  0.8180 -0.0976 -1.3013
12014TIP3   OH257532   2.448   6.376  16.758 -0.5909 -0.4567 -0.3917
12014TIP3    H157533   2.427   6.470  16.759  1.1223 -0.0521  0.1580
12014TIP3    H257534   2.438   6.350  16.666  2.2983  1.1244 -1.2863
12015TIP3   OH257535   2.448   3.592  14.228 -0.1472 -0.0246 -0.0086
12015TIP3    H157536   2.416   3.591  14.318  1.1477 -0.9310  0.4671
12015TIP3    H257537   2.478   3.682  14.214  0.6601 -0.1455  0.8532
12016TIP3   OH257538   0.275   5.367   2.985  0.7037  0.2029  0.0939
12016TIP3    H157539   0.342   5.326   2.930  1.6805  0.3244  1.1596
12016TIP3    H257540   0.324   5.422   3.046 -0.3497  0.1258  1.0431
12017TIP3   OH257541   1.501   4.037  15.819 -0.1480  0.3334  0.7718
12017TIP3    H157542   1.431   4.019  15.881  1.2518 -0.1563  2.2864
12017TIP3    H257543   1.553   3.957  15.817 -0.9126 -0.2140 -2.1812
12018TIP3   OH257544   5.602   2.228   5.547 -0.2883 -0.5743 -0.1740
12018TIP3    H157545   5.598   2.133   5.533  0.5469 -0.7398  0.6191
12018TIP3    H257546   5.685   2.242   5.593  0.3919  0.7322 -1.7158
12019TIP3   OH257547   5.622   4.094  11.979  0.0844 -0.2822  0.5511
12019TIP3    H157548   5.706   4.136  11.995  0.4249 -0.5760 -0.3984
12019TIP3    H257549   5.603   4.113  11.887 -1.0584  0.0753  0.8358
12020TIP3   OH257550   5.592   0.689  16.347  0.2547 -0.3916  0.1310
12020TIP3    H157551   5.556   0.747  16.280 -0.1995 -2.3470 -1.4140
12020TIP3    H257552   5.687   0.698  16.338  0.1942 -0.0134 -0.1713
12021TIP3   OH257553   5.436   6.558  12.747 -0.3184  0.2892 -0.0090
12021TIP3    H157554   5.454   6.629  12.808  0.3988  2.1181 -2.2169
12021TIP3    H257555   5.349   6.576  12.713 -1.0172 -1.1222  0.9187
12022TIP3   OH257556   0.964   3.953   1.410  0.1435 -0.3437 -0.2906
12022TIP3    H157557   1.048   4.000   1.408  0.7919 -1.4426  0.3171
12022TIP3    H257558   0.983   3.870   1.366 -0.8651 -0.2595 -0.9071
12023TIP3   OH257559   2.748   6.491  16.704 -0.8446 -0.0575 -0.0743
12023TIP3    H157560   2.680   6.535  16.652 -0.7552  1.8773  1.3306
12023TIP3    H257561   2.743   6.533  16.790  2.1642  0.2085  0.0811
12024TIP3   OH257562   6.615   2.969   0.417  0.0499  0.2467 -0.1928
12024TIP3    H157563   6.606   3.022   0.337 -0.9171  1.3783  0.6195
12024TIP3    H257564   6.525   2.954   0.446  0.3900  0.0365  0.7992
12025TIP3   OH257565   2.818   1.935   1.182 -0.5572 -0.1056  0.0982
12025TIP3    H157566   2.892   1.904   1.131  1.0001  3.2837  0.0668
12025TIP3    H257567   2.818   1.880   1.260  0.4299 -1.7290 -0.9869
12026TIP3   OH257568   3.993   1.751  12.423  0.1500  0.0745 -0.2059
12026TIP3    H157569   3.925   1.810  12.455 -0.4438  0.0495 -1.3805
12026TIP3    H257570   4.074   1.786  12.459 -0.3665  0.6979  0.3767
12027TIP3   OH257571   3.621   4.432   3.197 -0.1208  0.1107 -0.3967
12027TIP3    H157572   3.598   4.469   3.111  0.5380  0.3306 -0.4850
12027TIP3    H257573   3.538   4.401   3.233 -0.8439  2.4411  0.0502
12028TIP3   OH257574   2.191   2.288   6.735  0.3471 -0.3221 -0.0490
12028TIP3    H157575   2.185   2.373   6.691  1.5032 -0.9512 -1.5062
12028TIP3    H257576   2.112   2.242   6.709  0.1126  0.0067  0.0786
12029TIP3   OH257577   1.524   2.643  11.837 -0.3742  0.2936  0.5780
12029TIP3    H157578   1.542   2.733  11.811 -0.1743  0.6474  1.8733
12029TIP3    H257579   1.561   2.635  11.925 -0.7266 -0.9371  0.6401
12030TIP3   OH257580   3.749   4.110   4.913  0.0483  0.1099 -0.2739
12030TIP3    H157581   3.781   4.042   4.854 -1.3415 -0.0451 -0.8889
12030TIP3    H257582   3.828   4.151   4.948  0.9256 -1.6886 -0.0293
12031TIP3   OH257583   2.071   5.570   4.893 -0.9101  0.2850 -0.5521
12031TIP3    H157584   2.108   5.586   4.806 -3.6675  1.3934 -1.6340
12031TIP3    H257585   2.032   5.483   4.886 -3.6541  1.4686 -1.5252
12032TIP3   OH257586   6.063   6.173   5.651  0.1743 -0.1615  0.3020
12032TIP3    H157587   5.999   6.243   5.664  1.4485  0.7769  2.0576
12032TIP3    H257588   6.123   6.207   5.585 -0.3036 -0.4199 -0.2657
12033TIP3   OH257589   0.450   2.490   0.642  0.4736  0.1424  0.1638
12033TIP3    H157590   0.371   2.474   0.694  0.1500 -0.5487 -0.5243
12033TIP3    H257591   0.511   2.532   0.703 -0.2888  0.3407  0.8029
12034TIP3   OH257592   4.256   1.504   0.816 -0.2613 -0.2554  0.6647
12034TIP3    H157593   4.312   1.478   0.743  0.6549 -0.2761  1.3696
12034TIP3    H257594   4.168   1.476   0.789  0.2068 -1.1286 -0.0164
12035TIP3   OH257595   1.429   4.396   0.862  0.2686  0.2147 -0.2968
12035TIP3    H157596   1.452   4.356   0.945  0.8855  1.3503  0.1057
12035TIP3    H257597   1.483   4.352   0.797 -0.1030 -0.5689 -0.0905
12036TIP3   OH257598   4.362   3.314  15.387  0.4874  0.4155  0.7805
12036TIP3    H157599   4.413   3.302  15.467  0.6102 -0.4285  0.5805
12036TIP3    H257600   4.276   3.278  15.408 -0.1411  2.0721  1.2052
12037TIP3   OH257601   3.409   2.366   1.812  0.1185  0.1264  0.0318
12037TIP3    H157602   3.490   2.342   1.856 -1.1165 -0.3108  2.2345
12037TIP3    H257603   3.355   2.287   1.818 -0.6197  0.5312 -1.0451
12038TIP3   OH257604   0.563   3.831   0.691 -0.0809 -0.2498 -0.6043
12038TIP3    H157605   0.524   3.903   0.641 -0.0058 -0.6341 -1.2283
12038TIP3    H257606   0.489   3.793   0.740  0.1351  1.2110  0.9737
12039TIP3   OH257607   5.890   1.065   3.537 -0.2948  0.3096 -0.3117
12039TIP3    H157608   5.820   1.119   3.574 -0.2042  1.5450 -1.8331
12039TIP3    H257609   5.858   0.975   3.548 -0.7580  0.6520  1.6696
12040TIP3   OH257610   1.704   5.760   4.503 -0.1383 -0.4586  0.1134
12040TIP3    H157611   1.619   5.762   4.458  0.9538 -0.5367 -2.1091
12040TIP3    H257612   1.685   5.722   4.588 -2.3807 -0.2033 -0.1987
12041TIP3   OH257613   1.852   3.983  15.586  0.2785 -0.2281  0.0539
12041TIP3    H157614   1.885   3.969  15.675  0.3937  0.9987  0.2186
12041TIP3    H257615   1.857   3.896  15.545  1.3546 -0.5744  0.8570
12042TIP3   OH257616   1.724   1.006  16.162 -0.1855  0.6399 -0.2419
12042TIP3    H157617   1.658   1.071  16.135 -0.4799  0.3573 -0.2092
12042TIP3    H257618   1.675   0.942  16.212  0.2633  0.8493  0.4727
12043TIP3   OH257619   4.471   1.475  14.954  0.7585 -0.4008 -0.1223
12043TIP3    H157620   4.379   1.470  14.928  0.8515  1.8335 -1.1253
12043TIP3    H257621   4.519   1.488  14.872  1.6935  0.9413  0.5903
12044TIP3   OH257622   2.458   6.536   5.610  0.3542 -0.4868  0.3055
12044TIP3    H157623   2.487   6.569   5.695 -1.4996 -1.8768  1.5757
12044TIP3    H257624   2.435   6.445   5.626 -1.8857 -0.2729 -1.1929
12045TIP3   OH257625   0.975   2.622   3.289 -0.0214 -0.0975  0.1359
12045TIP3    H157626   0.929   2.544   3.321 -2.6052  0.8713 -0.9261
12045TIP3    H257627   0.919   2.655   3.218  0.8327  2.8255  0.6943
12046TIP3   OH257628   4.591   2.366   3.399  0.5042 -0.3945  0.0649
12046TIP3    H157629   4.597   2.406   3.486  2.0572 -1.8727  0.6818
12046TIP3    H257630   4.502   2.388   3.369  0.1939  0.7627  1.7035
12047TIP3   OH257631   2.093   5.230   2.382 -0.0696 -0.4032  0.2932
12047TIP3    H157632   2.143   5.218   2.463 -1.0448 -0.3361  0.9196
12047TIP3    H257633   2.005   5.201   2.404 -0.1341 -1.3048 -1.0354
12048TIP3   OH257634   3.605   5.930  11.286 -0.4060  0.0821 -0.3052
12048TIP3    H157635   3.676   5.868  11.304 -0.4006 -0.0757 -0.8633
12048TIP3    H257636   3.553   5.889  11.218  0.2100  1.1525 -1.4709
12049TIP3   OH257637   1.631   1.218  13.139  0.3469  0.0111  0.8562
12049TIP3    H157638   1.635   1.313  13.134 -1.8965  0.1048 -0.2872
12049TIP3    H257639   1.684   1.196  13.216  1.4237  2.0989  0.7750
12050TIP3   OH257640   1.804   2.872   4.502 -0.3873 -0.2800 -0.8964
12050TIP3    H157641   1.807   2.798   4.563  0.0936 -0.8963 -1.6497
12050TIP3    H257642   1.730   2.925   4.532 -0.0675 -0.4842  0.3101
12051TIP3   OH257643   0.596   3.551  12.283 -0.2993 -0.2859  0.0136
12051TIP3    H157644   0.648   3.483  12.241 -0.3053 -0.0205 -0.4241
12051TIP3    H257645   0.508   3.540  12.247 -0.9010 -1.5711  1.7026
12052TIP3   OH257646   6.077   0.592  14.196  0.2809  0.2538 -0.2637
12052TIP3    H157647   6.108   0.502  14.201  0.6592  0.3629 -0.5595
12052TIP3    H257648   6.155   0.642  14.169  0.7249  1.0160  2.1830
12053TIP3   OH257649   2.252   0.283  14.104 -0.0712 -0.0359 -0.5297
12053TIP3    H157650   2.316   0.218  14.134 -1.2367 -0.9018  0.1799
12053TIP3    H257651   2.304   0.347  14.055  1.0924 -1.5896 -1.4142
12054TIP3   OH257652   3.689   2.531  16.161  0.2782 -0.1036  0.6228
12054TIP3    H157653   3.718   2.444  16.188  2.7548  0.9713  1.6989
12054TIP3    H257654   3.606   2.515  16.116  0.0388 -2.8688  1.8316
12055TIP3   OH257655   2.319   1.543  11.372  0.2786  0.3003  0.2172
12055TIP3    H157656   2.251   1.515  11.434 -1.5492  1.5107 -1.1163
12055TIP3    H257657   2.271   1.595  11.307  2.2481 -0.1950 -1.7211
12056TIP3   OH257658   6.253   1.796   3.553  0.1711 -0.0545  0.1747
12056TIP3    H157659   6.303   1.833   3.624  2.1844  3.5064 -2.7755
12056TIP3    H257660   6.288   1.707   3.543  1.9732  0.4292  1.6614
12057TIP3   OH257661   1.470   6.129  13.464 -0.0068  0.2336 -0.4768
12057TIP3    H157662   1.437   6.217  13.445 -0.0334 -0.1251 -2.2581
12057TIP3    H257663   1.565   6.140  13.471 -0.2324  0.9229  2.6443
12058TIP3   OH257664   6.091   1.271   4.777 -0.4540  0.2379  0.1415
12058TIP3    H157665   6.050   1.238   4.698 -0.7831 -1.1111  0.8407
12058TIP3    H257666   6.072   1.205   4.844 -0.7804  1.6547  1.5287
12059TIP3   OH257667   3.309   4.026   0.778  0.3138  0.2444  0.1390
12059TIP3    H157668   3.299   3.945   0.726  0.8810  0.0164  0.3772
12059TIP3    H257669   3.308   4.096   0.712  1.2598 -0.0586 -0.2164
12060TIP3   OH257670   4.412   3.979   4.107  0.7095 -0.4092  0.0087
12060TIP3    H157671   4.439   3.909   4.049 -1.8889 -2.4613  1.0714
12060TIP3    H257672   4.351   4.032   4.055  0.8859 -0.2939 -0.0840
12061TIP3   OH257673   0.216   1.647   1.551 -0.0427  0.1350  0.2725
12061TIP3    H157674   0.281   1.715   1.567  0.3704 -0.0098 -0.7217
12061TIP3    H257675   0.190   1.660   1.460 -0.8853 -0.2540  0.4496
12062TIP3   OH257676   0.859   0.318  16.459 -0.2200  0.2440 -0.4958
12062TIP3    H157677   0.855   0.381  16.530  0.2730  2.4713 -2.3443
12062TIP3    H257678   0.936   0.343  16.408  0.5293 -2.4099 -0.8543
12063TIP3   OH257679   0.429   0.526   1.700 -0.5808 -0.0241 -0.0496
12063TIP3    H157680   0.359   0.585   1.728 -1.6317  0.6938 -3.6767
12063TIP3    H257681   0.474   0.574   1.631  1.7110 -1.6174  0.2352
12064TIP3   OH257682   2.779   0.307  15.333  0.3750 -0.0577 -0.1695
12064TIP3    H157683   2.800   0.219  15.302 -0.9762 -0.2203 -0.7173
12064TIP3    H257684   2.714   0.294  15.401 -0.3336  0.5300 -0.7135
12065TIP3   OH257685   1.990   4.650   0.969  0.0018 -0.2105 -0.1885
12065TIP3    H157686   2.028   4.573   0.925  1.1338 -0.1304  0.5892
12065TIP3    H257687   2.012   4.637   1.061 -2.2536 -0.3294  0.3799
12066TIP3   OH257688   0.493   6.103   5.960 -0.2158  0.2685 -0.1479
12066TIP3    H157689   0.503   6.111   6.055  0.1625 -0.7486 -0.0939
12066TIP3    H257690   0.404   6.070   5.948  0.4210 -1.5724 -0.0225
12067TIP3   OH257691   4.437   1.151   5.381 -0.8197  0.0796  0.1113
12067TIP3    H157692   4.461   1.133   5.290 -0.3506 -0.9454  0.4247
12067TIP3    H257693   4.405   1.067   5.414 -1.3848  0.5481  0.7736
12068TIP3   OH257694   2.800   4.978  16.584  0.1569  0.0806 -0.2162
12068TIP3    H157695   2.892   4.957  16.574  0.0039 -0.9665  0.4154
12068TIP3    H257696   2.798   5.051  16.645  0.5176 -0.8893  1.0050
12069TIP3   OH257697   2.754   2.699   0.281  0.4416  0.0349 -0.1196
12069TIP3    H157698   2.663   2.674   0.266  0.0234  1.1371  0.5056
12069TIP3    H257699   2.804   2.620   0.260 -0.8134 -1.2411  1.4826
12070TIP3   OH257700   4.244   0.429  12.991  0.3155 -0.4857  0.2009
12070TIP3    H157701   4.202   0.367  12.932  0.7099 -0.1401 -0.4600
12070TIP3    H257702   4.333   0.438  12.957  0.5988 -0.4050  0.9525
12071TIP3   OH257703   2.938   3.202   5.770 -0.3530 -0.2134  0.6403
12071TIP3    H157704   2.902   3.113   5.768 -0.0045 -0.4283  2.1569
12071TIP3    H257705   3.030   3.190   5.796 -0.0754  0.5389  0.0314
12072TIP3   OH257706   0.463   0.468   4.578  0.0339  0.3460  0.5309
12072TIP3    H157707   0.383   0.510   4.548  0.3767  1.3124  0.9020
12072TIP3    H257708   0.433   0.394   4.632 -0.6027  0.5739  0.4984
12073TIP3   OH257709   5.873   0.898  14.648  0.0352 -0.3130 -0.7079
12073TIP3    H157710   5.867   0.843  14.726 -2.1586 -0.1570 -0.7010
12073TIP3    H257711   5.951   0.952  14.662 -0.4382 -0.1347  1.4772
12074TIP3   OH257712   5.559   6.319   0.196  0.0579 -0.2272 -0.1564
12074TIP3    H157713   5.520   6.289   0.115  1.6111 -1.7976 -0.3848
12074TIP3    H257714   5.516   6.268   0.265 -0.3874  0.2130 -0.1045
12075TIP3   OH257715   5.971   2.447   1.614 -0.3222 -0.2560  0.0604
12075TIP3    H157716   6.048   2.425   1.563 -1.5925  1.4695 -2.8542
12075TIP3    H257717   5.944   2.364   1.654  1.8935 -1.2747 -0.4234
12076TIP3   OH257718   2.180   4.382   5.028  0.0139  0.3906  0.9736
12076TIP3    H157719   2.204   4.445   4.959 -0.6331 -0.9739 -0.5814
12076TIP3    H257720   2.084   4.380   5.025  0.0070 -2.5204 -0.8978
12077TIP3   OH257721   3.322   1.128  13.977 -0.4228  0.0222 -0.3359
12077TIP3    H157722   3.364   1.046  14.003  1.2185  0.9863  0.1447
12077TIP3    H257723   3.302   1.172  14.059  0.9918  1.2021 -0.5772
12078TIP3   OH257724   6.108   3.002  10.409 -0.0990 -0.4363 -0.1081
12078TIP3    H157725   6.161   2.932  10.447  0.0292 -0.5592 -0.5096
12078TIP3    H257726   6.159   3.082  10.426 -1.3594 -0.0539  2.5442
12079TIP3   OH257727   5.487   5.569   4.885 -0.5457 -0.0802 -0.2074
12079TIP3    H157728   5.427   5.505   4.848  0.8031 -0.9662 -0.9680
12079TIP3    H257729   5.534   5.521   4.953  2.1608 -0.7578 -2.3485
12080TIP3   OH257730   5.951   4.124   5.716  0.4196 -0.6762 -0.5258
12080TIP3    H157731   5.949   4.094   5.807  0.4057  0.0199 -0.2890
12080TIP3    H257732   5.970   4.218   5.723 -1.1177 -0.2931 -1.1670
12081TIP3   OH257733   1.641   4.456  15.805  0.1744  0.4063  0.1288
12081TIP3    H157734   1.641   4.395  15.732  0.7567  2.5101 -1.7591
12081TIP3    H257735   1.728   4.496  15.803 -0.0400  0.9966  1.5504
12082TIP3   OH257736   6.041   6.553  14.705  0.3584 -0.2650 -0.2082
12082TIP3    H157737   6.013   6.629  14.757 -0.2080  0.9720 -2.2263
12082TIP3    H257738   6.132   6.539  14.732 -0.0668 -0.0101  1.4725
12083TIP3   OH257739   5.677   2.123  11.108 -0.1108  0.2555 -0.3802
12083TIP3    H157740   5.646   2.044  11.151  0.4937 -0.4531 -1.2106
12083TIP3    H257741   5.729   2.169  11.174 -1.1920  0.4130  0.3731
12084TIP3   OH257742   2.346   5.906   2.426  0.0300 -0.5705  0.0997
12084TIP3    H157743   2.390   5.824   2.402  1.0367  0.1796 -0.7016
12084TIP3    H257744   2.388   5.932   2.508  1.0403  0.0794 -0.6000
12085TIP3   OH257745   2.404   6.621  13.288 -0.5049 -0.7606 -0.2363
12085TIP3    H157746   2.442   6.651  13.205 -0.5997  2.0362  0.6251
12085TIP3    H257747   2.473   6.568  13.328  0.4055 -0.2775 -1.1207
12086TIP3   OH257748   5.499   6.136   1.423 -0.5192 -0.4156 -0.0377
12086TIP3    H157749   5.437   6.097   1.484 -0.5170  0.5229  0.5855
12086TIP3    H257750   5.444   6.174   1.355 -0.6253  0.1863  0.3770
12087TIP3   OH257751   3.386   0.376  11.481  0.2596  0.2705 -0.3239
12087TIP3    H157752   3.310   0.416  11.437 -1.8519 -0.9257  1.9960
12087TIP3    H257753   3.385   0.414  11.569  0.6327 -1.8161  0.6349
12088TIP3   OH257754   2.459   1.059  16.697 -1.1214 -0.5449  0.0114
12088TIP3    H157755   2.387   1.014  16.654 -0.7122 -1.3425  0.1282
12088TIP3    H257756   2.444   1.152  16.680 -0.8131 -0.8196 -2.1408
12089TIP3   OH257757   4.937   1.469   5.396  1.1387 -0.1308  0.4404
12089TIP3    H157758   4.847   1.489   5.419  1.7492  0.9050  2.1533
12089TIP3    H257759   4.933   1.433   5.307 -0.9902 -0.6193  0.7046
12090TIP3   OH257760   3.630   5.016   5.121 -0.8986  0.3820 -0.4342
12090TIP3    H157761   3.568   4.945   5.136  1.6004 -2.0846 -0.9093
12090TIP3    H257762   3.703   4.998   5.180  0.8966  1.0872 -2.2993
12091TIP3   OH257763   5.194   1.844  14.360 -0.3175 -0.0666  0.1641
12091TIP3    H157764   5.114   1.799  14.388  0.0170 -0.9593 -0.2585
12091TIP3    H257765   5.249   1.846  14.439  0.5487 -2.4043 -0.2822
12092TIP3   OH257766   3.365   3.675  13.901 -0.0729  0.0338  0.5397
12092TIP3    H157767   3.438   3.643  13.954  1.2256 -0.0982 -1.2469
12092TIP3    H257768   3.333   3.598  13.854 -0.6512  0.3033  0.4768
12093TIP3   OH257769   0.580   6.558  15.849 -0.0153 -0.2015  0.2805
12093TIP3    H157770   0.630   6.482  15.879  0.1295 -0.2808 -0.1539
12093TIP3    H257771   0.603   6.567  15.757 -0.8379 -0.2730  0.0600
12094TIP3   OH257772   5.368   1.072  12.248 -0.3359 -0.8053 -0.3615
12094TIP3    H157773   5.400   0.999  12.195  2.1162  0.6467 -1.0630
12094TIP3    H257774   5.446   1.103  12.295 -0.9575  2.1214 -1.0669
12095TIP3   OH257775   3.918   3.284  16.411 -0.2371  0.1007  0.2256
12095TIP3    H157776   3.854   3.336  16.459  1.4339  1.5164  1.0153
12095TIP3    H257777   3.909   3.196  16.447 -0.4131  0.6994  1.7127
12096TIP3   OH257778   4.375   5.817  13.566 -0.4145  0.1270  0.0386
12096TIP3    H157779   4.318   5.893  13.555  0.4870  0.6918 -0.9859
12096TIP3    H257780   4.412   5.802  13.479  1.5880  0.2920  0.7952
12097TIP3   OH257781   0.503   0.533  11.444 -0.6149  0.0374 -0.1294
12097TIP3    H157782   0.580   0.513  11.391 -2.0172  0.6938 -2.5425
12097TIP3    H257783   0.441   0.463  11.424 -1.1609  0.2505  0.7544
12098TIP3   OH257784   6.845   5.925  17.041 -0.0051  0.1211 -0.4472
12098TIP3    H157785   6.853   5.995  17.106  1.1875  0.9911 -1.4957
12098TIP3    H257786   6.922   5.870  17.054 -0.9712 -1.0973  0.4243
12099TIP3   OH257787   5.863   3.680   4.608  0.0279 -0.4315 -0.1151
12099TIP3    H157788   5.804   3.608   4.629  1.2513 -1.5639 -0.4304
12099TIP3    H257789   5.884   3.668   4.516 -1.1616  1.4225 -0.6772
12100TIP3   OH257790   4.955   6.433  15.647 -0.1777  0.0353 -0.2678
12100TIP3    H157791   4.902   6.383  15.585 -1.7596  0.6031  0.5673
12100TIP3    H257792   5.044   6.405  15.630 -0.7795 -1.3180 -1.4171
12101TIP3   OH257793   2.246   6.110   1.161  0.4446  0.0437  0.2081
12101TIP3    H157794   2.210   6.127   1.248 -1.1958  0.1220 -0.4501
12101TIP3    H257795   2.240   6.015   1.150 -1.6443  0.2336 -0.7160
12102TIP3   OH257796   5.729   4.177  15.905 -0.6297  0.7559 -0.1315
12102TIP3    H157797   5.816   4.178  15.866 -0.0117 -2.8540  0.8284
12102TIP3    H257798   5.698   4.087  15.892 -3.7911  1.6322  0.5284
12103TIP3   OH257799   3.124   0.617   3.004 -0.0654  0.0329 -0.0530
12103TIP3    H157800   3.205   0.615   2.953 -0.0840 -1.4876 -0.0844
12103TIP3    H257801   3.080   0.697   2.976  0.8298  0.2178 -0.9997
12104TIP3   OH257802   4.382   5.993  12.176 -0.1873  0.1544 -0.2080
12104TIP3    H157803   4.288   5.998  12.195 -0.5641 -0.1022 -1.8382
12104TIP3    H257804   4.409   6.084  12.168 -0.8351  0.2392 -1.9710
12105TIP3   OH257805   3.408   1.430   0.038  0.2975  0.1287  0.3758
12105TIP3    H157806   3.487   1.480   0.019  0.2862 -0.1326 -0.3623
12105TIP3    H257807   3.427   1.341   0.011  0.2680 -0.2644  1.5694
12106TIP3   OH257808   2.166   6.445   0.085  0.0506 -0.4875 -0.1876
12106TIP3    H157809   2.198   6.434   0.175  1.4553  3.7267  0.0455
12106TIP3    H257810   2.083   6.492   0.095 -1.8601 -3.4186 -1.1182
12107TIP3   OH257811   6.669   5.212  16.759 -1.0525  0.1137  0.3847
12107TIP3    H157812   6.632   5.300  16.760 -0.4976  0.3635 -0.2184
12107TIP3    H257813   6.627   5.168  16.685 -1.8731 -0.3823  1.1274
12108TIP3   OH257814   4.494   2.413  11.591  0.3562 -0.8731  0.3437
12108TIP3    H157815   4.552   2.482  11.558  0.2975 -1.8388 -2.0071
12108TIP3    H257816   4.508   2.413  11.685  0.7430  1.9815  0.3835
12109TIP3   OH257817   1.366   2.305   3.184  0.6841  0.3484  0.1714
12109TIP3    H157818   1.441   2.311   3.125  1.6472  0.4125  1.3462
12109TIP3    H257819   1.290   2.293   3.127  1.8929 -2.7991 -0.9882
12110TIP3   OH257820   5.189   4.403  13.792  0.5279  0.3821 -0.5803
12110TIP3    H157821   5.239   4.418  13.872 -0.3740 -1.0586  0.2885
12110TIP3    H257822   5.200   4.309  13.774 -1.7751  0.0285 -0.3879
12111TIP3   OH257823   5.167   5.442  12.210 -0.1842  0.1012  0.0617
12111TIP3    H157824   5.143   5.517  12.266  0.9107  1.3460 -1.0637
12111TIP3    H257825   5.096   5.438  12.145  0.9414  1.7861 -1.3636
12112TIP3   OH257826   6.622   5.170   5.261  0.3319 -0.0443 -0.1064
12112TIP3    H157827   6.606   5.236   5.329 -0.3826 -0.1338 -0.1786
12112TIP3    H257828   6.700   5.123   5.291 -1.1911 -1.5353  1.8088
12113TIP3   OH257829   4.228   3.355   5.518  0.5073 -0.3294  0.1269
12113TIP3    H157830   4.145   3.402   5.522 -0.7188 -2.4669  2.8915
12113TIP3    H257831   4.269   3.371   5.603  0.2100 -3.7331  1.0462
12114TIP3   OH257832   2.504   3.207  12.350 -0.2449  0.4591 -0.2959
12114TIP3    H157833   2.461   3.130  12.386  2.6769 -1.0089  0.4346
12114TIP3    H257834   2.508   3.269  12.422 -3.6583  1.9531 -1.2036
12115TIP3   OH257835   3.807   6.751   2.918  0.3327  0.2290 -0.0225
12115TIP3    H157836   3.758   6.833   2.907  0.5723  0.4795  0.7053
12115TIP3    H257837   3.849   6.737   2.833 -0.9635  0.0189 -0.6517
12116TIP3   OH257838   4.918   0.932  16.073  0.1054 -0.2887  0.1431
12116TIP3    H157839   4.962   0.888  16.000 -0.6238 -0.0074 -0.4820
12116TIP3    H257840   4.835   0.886  16.083 -0.0475  0.0403  0.4128
12117TIP3   OH257841   0.034   5.741  16.335  0.6101  0.0228  0.2777
12117TIP3    H157842   0.128   5.758  16.330  0.1801  3.0162  0.5664
12117TIP3    H257843   0.012   5.756  16.427 -0.6501  3.1980 -0.4055
12118TIP3   OH257844   6.458   2.172   0.277  0.6779 -0.2307  0.3874
12118TIP3    H157845   6.506   2.223   0.342 -0.3238  0.1086  0.8870
12118TIP3    H257846   6.441   2.088   0.320 -1.1403  0.4520  1.1370
12119TIP3   OH257847   5.076   0.951  14.336 -0.1066  0.5191 -0.1677
12119TIP3    H157848   5.121   0.942  14.420 -0.0994 -0.7060 -0.2839
12119TIP3    H257849   5.137   0.912  14.273 -0.6202  0.3685 -0.5724
12120TIP3   OH257850   3.432   5.507  12.530 -0.2065 -0.8226  0.3194
12120TIP3    H157851   3.489   5.583  12.539 -0.0663 -1.0628  1.7440
12120TIP3    H257852   3.356   5.539  12.482  0.7264 -0.2861 -0.8582
12121TIP3   OH257853   3.733   4.859   5.734 -0.0045  0.0670 -0.2863
12121TIP3    H157854   3.734   4.766   5.758  1.7750  0.1849  0.2589
12121TIP3    H257855   3.734   4.906   5.817  1.8620  0.5191 -0.5212
12122TIP3   OH257856   6.643   3.373  16.743 -0.2965  0.3459  0.0186
12122TIP3    H157857   6.700   3.310  16.697 -0.5730  1.3254 -1.7243
12122TIP3    H257858   6.703   3.421  16.800  0.8197  1.7252 -2.1769
12123TIP3   OH257859   6.082   6.375   3.415 -0.7145  0.2761 -0.2160
12123TIP3    H157860   6.008   6.334   3.372 -1.8861  1.0426  0.9861
12123TIP3    H257861   6.043   6.432   3.481  0.8819  2.2857 -0.9070
12124TIP3   OH257862   0.496   0.447   1.271  0.4348 -0.0194 -0.1585
12124TIP3    H157863   0.479   0.398   1.190 -2.6565 -0.2226  0.4796
12124TIP3    H257864   0.429   0.416   1.332  1.7749  1.1679  2.0598
12125TIP3   OH257865   0.190   3.992   3.054  0.7667  0.0445  0.3407
12125TIP3    H157866   0.132   4.037   2.993 -0.6824 -0.4936  1.2783
12125TIP3    H257867   0.138   3.920   3.088  2.0458 -0.5506  1.1159
12126TIP3   OH257868   1.839   3.552   5.882  0.0977 -0.0485  0.7393
12126TIP3    H157869   1.795   3.525   5.962  0.0424 -1.6076  0.2055
12126TIP3    H257870   1.770   3.593   5.830 -0.4812 -1.3741  0.4212
12127TIP3   OH257871   5.007   2.451   0.876 -0.5651 -0.0565 -0.1842
12127TIP3    H157872   5.087   2.412   0.909 -0.6294  0.3190  0.4269
12127TIP3    H257873   4.994   2.530   0.929 -2.1379 -0.8996  0.7532
12128TIP3   OH257874   2.652   3.411   0.382 -0.4796 -0.2680 -0.5623
12128TIP3    H157875   2.736   3.452   0.360 -0.1726  0.0550  1.0403
12128TIP3    H257876   2.674   3.346   0.449 -1.2494 -1.6532 -1.6074
12129TIP3   OH257877   2.809   1.758  14.684 -0.1489 -0.3357 -0.1613
12129TIP3    H157878   2.898   1.785  14.662 -0.5579  1.6850  0.4561
12129TIP3    H257879   2.821   1.688  14.749  0.9666 -1.2295 -1.2712
12130TIP3   OH257880   5.594   6.109  12.449 -0.7010  0.4034  0.1629
12130TIP3    H157881   5.543   6.178  12.492  0.4252  0.9971  0.5956
12130TIP3    H257882   5.648   6.072  12.519 -0.3763 -0.0468 -0.3221
12131TIP3   OH257883   4.638   0.646   0.565  0.0973  0.1978  0.1820
12131TIP3    H157884   4.599   0.646   0.477  0.4852  1.0283 -0.0035
12131TIP3    H257885   4.565   0.633   0.624 -0.0188 -1.7216 -0.3005
12132TIP3   OH257886   1.669   3.227   2.067  0.3514 -0.2117 -0.1329
12132TIP3    H157887   1.610   3.282   2.016 -1.6875  0.6440  2.8882
12132TIP3    H257888   1.726   3.289   2.113  0.5936 -0.7907  0.3630
12133TIP3   OH257889   2.847   6.809   3.674  0.1943 -0.0419 -0.0092
12133TIP3    H157890   2.915   6.832   3.736  0.5561  0.0922 -0.4503
12133TIP3    H257891   2.773   6.865   3.697  0.2525 -0.1378  0.4223
12134TIP3   OH257892   2.507   2.498  13.272 -0.0000  0.1094  0.7914
12134TIP3    H157893   2.506   2.588  13.241 -0.3147  0.6618  2.2972
12134TIP3    H257894   2.415   2.471  13.273  0.1781 -0.7048 -0.8475
12135TIP3   OH257895   1.744   3.940  13.662 -0.4004  0.1928 -0.3481
12135TIP3    H157896   1.838   3.937  13.679 -0.2834  0.0626 -0.9874
12135TIP3    H257897   1.707   3.979  13.741  0.3614  1.8184 -0.7436
12136TIP3   OH257898   0.368   2.628  14.531  0.4649  0.1628 -0.8122
12136TIP3    H157899   0.372   2.667  14.444 -1.2672 -0.9379 -1.4330
12136TIP3    H257900   0.356   2.534  14.514 -1.2961  0.0845  0.5805
12137TIP3   OH257901   5.051   3.749  14.728 -0.1513  0.2944 -0.2026
12137TIP3    H157902   5.043   3.654  14.723 -1.6856  0.3360  0.7033
12137TIP3    H257903   4.965   3.782  14.701  0.1842  1.4063  0.0053
12138TIP3   OH257904   2.767   1.644  11.302 -0.7159  0.5103 -0.1989
12138TIP3    H157905   2.731   1.714  11.357 -0.0576  1.1922 -0.6087
12138TIP3    H257906   2.736   1.563  11.342 -2.5817  1.0538 -0.4456
12139TIP3   OH257907   1.942   2.028  13.801  0.3332 -0.0935 -0.2984
12139TIP3    H157908   1.874   1.970  13.766  0.1792  0.0525 -0.2411
12139TIP3    H257909   1.944   2.102  13.741  0.9478 -0.4388 -0.7143
12140TIP3   OH257910   1.095   0.894  12.848  0.4234  0.4346 -0.4158
12140TIP3    H157911   1.132   0.917  12.933  0.1802  1.8216 -0.6653
12140TIP3    H257912   1.170   0.866  12.796  0.5120 -0.8964  0.3865
12141TIP3   OH257913   0.926   1.742   3.278  0.1721  0.5600 -0.1122
12141TIP3    H157914   0.958   1.805   3.343  0.3854 -0.0924  0.4293
12141TIP3    H257915   0.954   1.657   3.312 -1.8659 -0.0199  0.2445
12142TIP3   OH257916   2.594   1.240  13.272  0.0064  0.6485  0.0011
12142TIP3    H157917   2.539   1.162  13.272 -0.1498  0.7113  2.0581
12142TIP3    H257918   2.585   1.276  13.183 -0.2682 -1.3971 -0.8471
12143TIP3   OH257919   5.606   3.527  16.708 -0.0082  0.2374 -0.0922
12143TIP3    H157920   5.558   3.595  16.661 -2.0150 -0.5643  0.7023
12143TIP3    H257921   5.560   3.446  16.686  0.8751 -0.5564  0.8755
12144TIP3   OH257922   0.177   3.368   5.375 -0.1884 -0.0063  0.2879
12144TIP3    H157923   0.123   3.308   5.427 -0.5104 -0.3196 -0.4027
12144TIP3    H257924   0.260   3.321   5.364  0.5531  0.7990  2.0227
12145TIP3   OH257925   1.716   0.034   5.300 -0.0050  0.6727  0.0274
12145TIP3    H157926   1.673   0.087   5.366 -1.8232  0.0343 -0.5856
12145TIP3    H257927   1.716  -0.055   5.336 -1.2093  0.2822 -0.8853
12146TIP3   OH257928   0.416   0.694  13.654  0.0385  0.1758 -0.3063
12146TIP3    H157929   0.438   0.763  13.717  2.0313 -0.7072  0.0616
12146TIP3    H257930   0.410   0.740  13.570 -0.0850  0.9968  0.1358
12147TIP3   OH257931   0.591   1.740  16.885 -0.3923 -0.2119 -0.0522
12147TIP3    H157932   0.527   1.798  16.845 -0.3530  0.0119  0.2038
12147TIP3    H257933   0.543   1.696  16.955 -0.3218 -0.1982  0.0062
12148TIP3   OH257934   5.486   3.722  12.111 -0.5157 -0.3391  0.2429
12148TIP3    H157935   5.489   3.811  12.147 -1.1473  0.9303 -2.5307
12148TIP3    H257936   5.577   3.693  12.112 -0.3820  0.0190  1.7955
12149TIP3   OH257937   1.336   0.849   1.887 -0.3927  0.0798  0.1190
12149TIP3    H157938   1.327   0.841   1.792 -0.7518 -0.0703  0.1644
12149TIP3    H257939   1.399   0.920   1.899 -1.6023  1.2364 -0.2165
12150TIP3   OH257940   4.924   0.862   0.634  0.3647  0.2439  0.6909
12150TIP3    H157941   4.958   0.806   0.704  2.0128  0.0525 -0.1999
12150TIP3    H257942   4.846   0.817   0.602  0.6457 -0.6116  1.1842
12151TIP3   OH257943   5.207   1.317  12.283  0.7285  0.8541 -0.4681
12151TIP3    H157944   5.245   1.235  12.252  0.2287 -0.3130  1.7983
12151TIP3    H257945   5.281   1.365  12.320  0.6183  0.1168  0.7819
12152TIP3   OH257946   3.392   3.673   1.517  0.6043  0.9302  0.1707
12152TIP3    H157947   3.421   3.597   1.467 -1.4607  0.6781 -0.7350
12152TIP3    H257948   3.416   3.653   1.608 -0.6198 -1.2143  0.0845
12153TIP3   OH257949   3.525   0.655   6.226  0.0402 -0.0180  0.0555
12153TIP3    H157950   3.605   0.698   6.256  0.7580 -2.0647  1.2734
12153TIP3    H257951   3.517   0.577   6.281 -2.1932 -0.4774 -0.8037
12154TIP3   OH257952   0.540   4.319  16.884  0.6022  0.0613 -0.5337
12154TIP3    H157953   0.555   4.368  16.965 -2.0998 -1.5019  1.0338
12154TIP3    H257954   0.523   4.387  16.818  1.3172  1.3110  0.5055
12155TIP3   OH257955   0.603   5.177   5.938 -0.3819  0.3157  0.5668
12155TIP3    H157956   0.616   5.268   5.912  0.4519  0.4472  1.4142
12155TIP3    H257957   0.518   5.177   5.983 -0.1835  0.7575  0.9473
12156TIP3   OH257958   5.141   2.345  11.473  0.0872  0.0736  0.1821
12156TIP3    H157959   5.209   2.366  11.410  0.5903  0.2231  0.7680
12156TIP3    H257960   5.112   2.257  11.449  2.1411 -0.9952  1.3434
12157TIP3   OH257961   6.563   4.960  15.555  0.3438 -0.1482 -0.0007
12157TIP3    H157962   6.608   4.963  15.471  1.3944  0.7625  0.5685
12157TIP3    H257963   6.581   5.045  15.595  0.5787 -0.8684  1.4869
12158TIP3   OH257964   6.688   0.609   5.155  0.1062  0.0293 -0.2583
12158TIP3    H157965   6.759   0.555   5.123 -0.3410 -0.7581  0.0421
12158TIP3    H257966   6.696   0.692   5.108  0.5117 -0.4749 -1.0792
12159TIP3   OH257967   4.473   6.553   3.574  0.3241  0.0829  0.3237
12159TIP3    H157968   4.517   6.552   3.489  0.2543  2.8315  0.1612
12159TIP3    H257969   4.527   6.497   3.630  1.4711 -0.2182 -1.0244
12160TIP3   OH257970   2.863   4.747   2.518  0.1697 -0.2271  0.4574
12160TIP3    H157971   2.897   4.658   2.511 -0.6198 -0.4742 -0.6847
12160TIP3    H257972   2.768   4.737   2.506  0.1795  0.8568 -0.8213
12161TIP3   OH257973   2.540   2.141   3.074 -0.5157  0.4212 -0.4030
12161TIP3    H157974   2.609   2.075   3.088 -1.5270 -0.6116 -0.1923
12161TIP3    H257975   2.547   2.198   3.150  0.0993  0.3276 -0.3760
12162TIP3   OH257976   5.949   5.257  15.453 -0.6137 -0.0662 -0.2131
12162TIP3    H157977   5.976   5.166  15.466 -0.7741  0.2512  3.4311
12162TIP3    H257978   6.030   5.307  15.460 -1.0099  0.3686  3.9902
12163TIP3   OH257979   1.511   6.679  12.798  0.0513  0.5608 -0.2338
12163TIP3    H157980   1.536   6.587  12.797 -0.7505  0.3075  0.8652
12163TIP3    H257981   1.430   6.682  12.747  0.6388  0.8627 -1.1850
12164TIP3   OH257982   2.357   5.758   4.240 -0.1994 -0.4328 -0.1221
12164TIP3    H157983   2.345   5.849   4.212 -3.0592  0.0254  2.1819
12164TIP3    H257984   2.414   5.763   4.317  0.3165 -0.7181 -0.4762
12165TIP3   OH257985   6.773   4.919   4.135  0.7063  0.3864  0.6975
12165TIP3    H157986   6.844   4.894   4.076 -0.9303 -3.6955  0.1516
12165TIP3    H257987   6.750   5.008   4.109  3.8526  0.8822 -0.8169
12166TIP3   OH257988   4.003   0.456   0.942  0.3180 -0.2850 -0.1888
12166TIP3    H157989   4.069   0.441   1.010 -0.1644  0.2817  0.4270
12166TIP3    H257990   3.923   0.416   0.976  0.1881 -0.4292 -0.6510
12167TIP3   OH257991   3.796   4.257  15.235 -0.7004 -0.1887  0.5111
12167TIP3    H157992   3.702   4.242  15.220 -0.2842  0.1284 -4.0727
12167TIP3    H257993   3.838   4.179  15.199  0.7858  1.2504 -1.0762
12168TIP3   OH257994   2.543   5.651   1.122 -0.0580  0.5834 -0.0146
12168TIP3    H157995   2.522   5.595   1.196  0.3279  1.6100  0.8878
12168TIP3    H257996   2.632   5.625   1.096  0.1225  0.7809  0.4049
12169TIP3   OH257997   2.802   1.197  15.742  0.0383 -0.0589  0.6700
12169TIP3    H157998   2.734   1.253  15.779 -1.9394 -1.9368  0.0759
12169TIP3    H257999   2.792   1.205  15.647  1.8002  0.9032  0.5138
12170TIP3   OH258000   1.964   6.665   4.166 -0.4330  0.1679  0.2268
12170TIP3    H158001   2.059   6.679   4.162 -0.4168 -0.2381 -2.2730
12170TIP3    H258002   1.955   6.574   4.194  0.0187 -0.3173 -1.1038
12171TIP3   OH258003   2.530   1.296  11.643 -0.0778 -0.3419 -0.0871
12171TIP3    H158004   2.449   1.274  11.688 -0.5529  0.8710 -0.3114
12171TIP3    H258005   2.583   1.341  11.709  1.2513 -2.7897  0.6279
12172TIP3   OH258006   6.675   1.242   3.420 -0.4716 -0.2773 -0.6208
12172TIP3    H158007   6.633   1.231   3.505  2.9435 -0.3853  1.2564
12172TIP3    H258008   6.604   1.242   3.357 -3.2474  0.5059  2.2753
12173TIP3   OH258009   5.937   4.613   3.202 -0.2158  0.5234  0.4019
12173TIP3    H158010   5.853   4.636   3.163  1.2016  0.4061 -3.0372
12173TIP3    H258011   5.985   4.567   3.133  2.2067 -0.6876  2.6635
12174TIP3   OH258012   0.015   4.611   4.732  0.2510  0.7321  0.3076
12174TIP3    H158013  -0.045   4.682   4.753 -0.1511 -0.3927  3.3984
12174TIP3    H258014   0.094   4.630   4.782  0.2353 -0.8058  0.9889
12175TIP3   OH258015   4.064   0.448  12.025  0.0627 -0.2102  0.2130
12175TIP3    H158016   4.069   0.539  12.055  1.6912  0.2929 -1.4186
12175TIP3    H258017   4.057   0.397  12.106  0.5876  1.2874  1.2469
12176TIP3   OH258018   5.676   0.061   0.297  0.3043 -0.2942 -0.4628
12176TIP3    H158019   5.749  -0.001   0.309  0.3277  0.0429  1.3349
12176TIP3    H258020   5.716   0.135   0.251  0.9265 -0.4353 -0.1702
12177TIP3   OH258021   5.634   3.372  13.996 -0.2831  0.0315 -0.3515
12177TIP3    H158022   5.591   3.429  14.059 -1.2370 -0.5119 -0.4910
12177TIP3    H258023   5.726   3.369  14.024  0.0011  2.3294 -0.8614
12178TIP3   OH258024   1.092   6.056   6.027  0.0436 -0.4030 -0.1638
12178TIP3    H158025   1.155   5.998   6.069  0.4194  0.3951  0.4045
12178TIP3    H258026   1.017   6.056   6.086 -0.4183 -1.1735 -0.7265
12179TIP3   OH258027   5.797   0.737   0.140 -0.4577  0.2862  0.7718
12179TIP3    H158028   5.859   0.764   0.207 -0.2638  0.4111  0.5437
12179TIP3    H258029   5.768   0.818   0.099 -1.8602  0.3476  1.8194
12180TIP3   OH258030   0.920   6.482   5.014  0.4376 -0.0186  0.2673
12180TIP3    H158031   0.990   6.513   5.071 -0.6448  1.6515  0.7419
12180TIP3    H258032   0.898   6.558   4.960  0.3735 -1.1184 -1.3106
12181TIP3   OH258033   2.154   1.529  12.738 -0.5781 -0.3699  0.3827
12181TIP3    H158034   2.217   1.599  12.754  0.2357 -0.9809 -0.0713
12181TIP3    H258035   2.194   1.451  12.775 -0.3920 -1.0434 -1.1681
12182TIP3   OH258036   4.964   3.061   5.687  0.6371  0.0454  0.1247
12182TIP3    H158037   5.006   2.987   5.642 -1.1866 -0.6508 -0.5535
12182TIP3    H258038   4.913   3.104   5.618  0.1849  0.7972  0.9148
12183TIP3   OH258039   3.009   0.867   0.578  0.3197 -0.3246 -0.1009
12183TIP3    H158040   3.073   0.863   0.648  0.3460 -0.3245 -0.1251
12183TIP3    H258041   2.999   0.777   0.548 -0.5412 -0.5124  0.6744
12184TIP3   OH258042   1.596   0.863  16.359  0.3001 -0.1214 -0.3931
12184TIP3    H158043   1.641   0.893  16.438 -0.9317  1.7911 -0.3514
12184TIP3    H258044   1.503   0.859  16.384 -0.2363  1.4071 -1.9475
12185TIP3   OH258045   3.962   2.978  16.965  0.5093 -0.5446  0.2413
12185TIP3    H158046   3.906   2.954  16.892 -0.3411 -1.7830  1.2711
12185TIP3    H258047   3.943   2.914  17.033 -0.3711  1.8392  2.3948
12186TIP3   OH258048   2.785   0.250  12.444 -0.9695  0.7035 -0.0898
12186TIP3    H158049   2.730   0.217  12.515 -1.7153  1.3128 -0.3780
12186TIP3    H258050   2.796   0.343  12.463  0.3090  0.5130  0.1823
12187TIP3   OH258051   3.298   5.793   0.260  0.6105 -0.1663 -0.2009
12187TIP3    H158052   3.338   5.737   0.326 -0.4000 -0.0211  0.5605
12187TIP3    H258053   3.323   5.882   0.284  3.5884 -0.2839 -2.3400
12188TIP3   OH258054   1.564   5.394  14.694 -0.5541  1.0732  0.0304
12188TIP3    H158055   1.571   5.327  14.762 -0.3584  2.2995  1.2589
12188TIP3    H258056   1.653   5.428  14.685 -0.7959  1.6974 -0.0225
12189TIP3   OH258057   4.176   5.741   1.447 -0.3416  0.2803 -0.4005
12189TIP3    H158058   4.252   5.778   1.404 -0.5370  0.2524 -0.7733
12189TIP3    H258059   4.198   5.743   1.540  0.5706 -0.7577 -0.5746
12190TIP3   OH258060   0.626   2.595   4.761  0.0280  0.1868  0.1644
12190TIP3    H158061   0.567   2.559   4.696 -0.0045  0.6612 -0.0695
12190TIP3    H258062   0.678   2.660   4.714 -1.2348  1.8753  0.9693
12191TIP3   OH258063   3.916   6.847  11.925 -0.3186 -0.1311 -0.2642
12191TIP3    H158064   3.868   6.802  11.855  0.3925  1.5452 -1.9266
12191TIP3    H258065   3.859   6.920  11.950  0.6783  1.0612 -1.2903
12192TIP3   OH258066   4.403   5.904   4.972 -0.1138  0.4529 -0.1667
12192TIP3    H158067   4.445   5.987   4.992  0.6721 -0.0912  0.4902
12192TIP3    H258068   4.336   5.893   5.040  0.3016  0.1908  0.2050
12193TIP3   OH258069   2.566   4.963   3.389 -0.7783 -0.3620 -0.5694
12193TIP3    H158070   2.518   5.042   3.414 -1.0693 -0.4786 -0.7587
12193TIP3    H258071   2.539   4.946   3.298  0.6080  0.3209 -1.1500
12194TIP3   OH258072   2.914   0.207  10.937 -0.2606 -0.0024  0.6297
12194TIP3    H158073   2.978   0.143  10.969  1.9365  1.7355 -0.0451
12194TIP3    H258074   2.830   0.160  10.939  1.3542 -3.2516 -0.8351
12195TIP3   OH258075   2.118   2.813  14.947  0.0636 -0.0869  0.2612
12195TIP3    H158076   2.048   2.867  14.984 -0.5789 -0.5138 -0.3039
12195TIP3    H258077   2.135   2.850  14.861 -1.1208 -1.3597 -0.5809
12196TIP3   OH258078   3.127   2.978  15.421 -0.3938  0.1290 -0.0840
12196TIP3    H158079   3.137   3.062  15.465 -1.4941  1.7093 -2.6542
12196TIP3    H258080   3.032   2.969  15.408 -0.1369 -0.3558 -1.8837
12197TIP3   OH258081   1.057   4.059  12.202  0.0383 -0.5367  0.0687
12197TIP3    H158082   1.132   4.058  12.261 -0.1001 -1.7728  0.2359
12197TIP3    H258083   1.014   3.974  12.215 -0.1160 -0.7484 -1.6427
12198TIP3   OH258084   2.063   5.433  12.364  0.0113 -0.0332 -0.3852
12198TIP3    H158085   2.082   5.343  12.388  0.0256  0.3162  0.9868
12198TIP3    H258086   2.067   5.434  12.268 -2.5949 -2.0482 -0.6098
12199TIP3   OH258087   2.096   2.705   4.638  0.5706 -0.0348  0.0133
12199TIP3    H158088   2.146   2.683   4.717  0.7393 -0.4116 -0.1971
12199TIP3    H258089   2.004   2.693   4.664  0.6439 -0.5702  0.0273
12200TIP3   OH258090   6.133   4.633  16.868  0.2125  0.3582  0.0080
12200TIP3    H158091   6.154   4.549  16.826  0.3665 -0.5781  1.8411
12200TIP3    H258092   6.211   4.686  16.856  0.2109  0.1629 -0.9601
12201TIP3   OH258093   4.049   5.337   5.641 -0.0356 -0.0874  0.2820
12201TIP3    H158094   4.133   5.327   5.687  0.2408 -2.0181 -0.5208
12201TIP3    H258095   4.019   5.425   5.664  2.0176  0.5168  0.9101
12202TIP3   OH258096   5.864   3.343  11.746 -0.0889 -0.0611  0.3954
12202TIP3    H158097   5.797   3.395  11.701  0.1122  0.0743  0.2481
12202TIP3    H258098   5.932   3.407  11.769  0.3047 -0.3053 -0.0625
12203TIP3   OH258099   6.657   6.473   3.577  0.3565 -0.1039  0.1205
12203TIP3    H158100   6.635   6.522   3.498 -1.3767 -0.8989  0.0688
12203TIP3    H258101   6.575   6.471   3.628  1.6001  1.0772  2.3397
12204TIP3   OH258102   4.907   2.072  16.135 -0.3288  0.0294 -0.1615
12204TIP3    H158103   4.996   2.037  16.133 -0.2189  0.3031 -1.9120
12204TIP3    H258104   4.858   2.016  16.075 -1.0983  0.4901  0.0215
12205TIP3   OH258105   5.553   0.521   4.181  0.1179 -0.2869 -0.3545
12205TIP3    H158106   5.532   0.603   4.137  0.4551 -0.1344 -0.2369
12205TIP3    H258107   5.545   0.541   4.274  0.0755 -0.4243 -0.3277
12206TIP3   OH258108   0.646   1.418   0.483 -0.0021  0.1472  0.2344
12206TIP3    H158109   0.584   1.484   0.452 -0.0309  0.4312  0.8711
12206TIP3    H258110   0.666   1.444   0.573  1.3036  0.2501 -0.0702
12207TIP3   OH258111   1.632   3.426   2.859  0.0160  0.2056  0.1846
12207TIP3    H158112   1.718   3.451   2.825  0.5689  1.5183  2.3383
12207TIP3    H258113   1.571   3.447   2.788  1.2823  1.0563 -0.6942
12208TIP3   OH258114   3.197   4.743   3.925 -0.5142 -0.5856  0.2083
12208TIP3    H158115   3.259   4.816   3.927 -0.1262 -0.9057 -0.0806
12208TIP3    H258116   3.112   4.783   3.944 -0.2070 -0.1600  0.7130
12209TIP3   OH258117   3.291   5.203  16.194  0.3304  0.0676 -0.1415
12209TIP3    H158118   3.291   5.259  16.271  1.5237  0.1899 -0.2100
12209TIP3    H258119   3.342   5.252  16.129  0.3342 -0.5573 -0.6167
12210TIP3   OH258120   2.549   1.599   3.732  0.0993  0.3296 -0.0913
12210TIP3    H158121   2.575   1.689   3.711 -1.6919  0.0012 -5.1368
12210TIP3    H258122   2.611   1.545   3.683 -1.0110 -1.0223 -0.0313
12211TIP3   OH258123   1.024   6.622   0.025 -0.2665 -0.0777 -0.1608
12211TIP3    H158124   0.934   6.632   0.058 -1.1620  1.6223 -2.8341
12211TIP3    H258125   1.058   6.711   0.022  0.8737 -0.5188 -0.8961
12212TIP3   OH258126   0.101   6.802   0.703  0.3564 -0.2235 -0.2118
12212TIP3    H158127   0.123   6.860   0.776 -0.3053  0.9533 -0.9154
12212TIP3    H258128   0.185   6.780   0.664  0.5972  0.5902 -0.1746
12213TIP3   OH258129   2.610   2.297   6.341 -0.1851 -0.6806  0.5361
12213TIP3    H158130   2.674   2.255   6.398  0.8207 -0.3218 -0.3089
12213TIP3    H258131   2.646   2.384   6.324  0.5256 -1.4394 -2.1920
12214TIP3   OH258132   2.856   2.581   3.560  0.7993  0.0064 -0.0471
12214TIP3    H158133   2.880   2.671   3.539 -0.0627  0.0517 -0.9073
12214TIP3    H258134   2.846   2.538   3.475 -1.2634 -0.2299  0.2782
12215TIP3   OH258135   1.776   3.151  12.450 -0.4079  0.8499 -0.2067
12215TIP3    H158136   1.870   3.142  12.464 -0.0933  0.5959 -2.1858
12215TIP3    H258137   1.744   3.060  12.449 -0.4516  0.8722 -0.8641
12216TIP3   OH258138   3.917   5.393   4.731  0.0906 -0.0211 -0.1172
12216TIP3    H158139   3.975   5.461   4.695 -1.1619  0.6205 -1.0015
12216TIP3    H258140   3.852   5.378   4.662 -2.4069  1.2380  1.7884
12217TIP3   OH258141   6.323   3.953   2.339 -0.0495 -0.5961 -0.0342
12217TIP3    H158142   6.300   4.032   2.290 -0.2629 -0.8625 -0.3740
12217TIP3    H258143   6.353   3.892   2.272  1.2126 -0.4227  0.3526
12218TIP3   OH258144   1.519   3.220   3.020  0.2329 -0.1991  0.3715
12218TIP3    H158145   1.447   3.201   2.961  0.9728  0.6747 -0.8568
12218TIP3    H258146   1.560   3.299   2.984  0.4813  0.5960  2.2615
12219TIP3   OH258147   1.948   1.809  16.911  0.4158 -0.1907  0.3592
12219TIP3    H158148   1.881   1.764  16.963 -0.4353  1.1819  0.4774
12219TIP3    H258149   2.008   1.846  16.976  1.9841 -2.3234  0.2516
12220TIP3   OH258150   6.209   0.637  16.557 -0.1159  0.6014 -0.4516
12220TIP3    H158151   6.238   0.563  16.609 -2.2875  0.3641  0.5130
12220TIP3    H258152   6.242   0.714  16.603 -1.5265  0.3686  1.0522
12221TIP3   OH258153   5.322   2.553   3.044  0.1068  0.0498 -0.2438
12221TIP3    H158154   5.273   2.471   3.031 -2.4728  1.5243 -0.4659
12221TIP3    H258155   5.276   2.597   3.115  2.3132  0.7466  0.8376
12222TIP3   OH258156   2.872   6.143   0.401 -0.3698  0.4838  0.0190
12222TIP3    H158157   2.878   6.200   0.324 -3.2622 -0.2805 -0.9042
12222TIP3    H258158   2.795   6.175   0.449  0.1601 -0.3508  1.5166
12223TIP3   OH258159   4.535   3.206  14.712 -0.0823  0.0776  0.1742
12223TIP3    H158160   4.499   3.133  14.763 -0.1727 -0.0721 -0.1020
12223TIP3    H258161   4.618   3.226  14.754  0.7861 -1.3173 -0.7640
12224TIP3   OH258162   1.182   6.018  13.950  0.2483  0.3273  0.0270
12224TIP3    H158163   1.212   5.944  13.898  1.6471  0.6113  0.3980
12224TIP3    H258164   1.132   6.072  13.888 -0.0078 -0.4487 -0.4605
12225TIP3   OH258165   4.801   0.388  13.248  0.1521 -0.4446 -0.3407
12225TIP3    H158166   4.772   0.416  13.335 -0.3946 -1.0609 -0.3175
12225TIP3    H258167   4.769   0.298  13.240 -2.5697  0.5939 -2.4329
12226TIP3   OH258168   0.280   5.825  16.204  0.3746 -0.4703  0.6253
12226TIP3    H158169   0.357   5.853  16.253 -0.2282  3.1887 -0.2114
12226TIP3    H258170   0.306   5.833  16.112 -1.0330  1.3388  0.3175
12227TIP3   OH258171   0.439   2.654  13.972  0.3633  0.3406  0.2336
12227TIP3    H158172   0.354   2.676  14.009  0.5843  1.3000  0.1814
12227TIP3    H258173   0.439   2.694  13.885  0.6024 -0.2478 -0.0441
12228TIP3   OH258174   0.556   2.411  11.207 -0.1142  0.2065 -0.1206
12228TIP3    H158175   0.469   2.443  11.232  0.2665  1.5020 -0.3558
12228TIP3    H258176   0.542   2.320  11.181 -1.0171 -0.3064  1.9461
12229TIP3   OH258177   2.223   1.290   4.307  0.6951  0.6569  0.6279
12229TIP3    H158178   2.220   1.300   4.211 -4.3116 -0.6724  0.3889
12229TIP3    H258179   2.235   1.379   4.340 -0.5493  1.6045 -1.2971
12230TIP3   OH258180   0.659   3.044  16.968  0.0447 -0.0601 -0.1385
12230TIP3    H158181   0.636   3.033  17.061  0.2343 -0.4852 -0.1387
12230TIP3    H258182   0.752   3.023  16.964 -0.1484 -0.8988 -0.5638
12231TIP3   OH258183   5.305   3.006  13.514 -0.5445  0.0444  0.1813
12231TIP3    H158184   5.369   2.940  13.487 -1.2306 -0.0851 -1.2197
12231TIP3    H258185   5.272   2.974  13.598 -0.0529 -0.8038  0.0684
12232TIP3   OH258186   4.327   6.012  12.809  0.1728 -0.0311  0.3519
12232TIP3    H158187   4.288   6.072  12.745 -0.4866 -1.2997 -0.4921
12232TIP3    H258188   4.264   5.940  12.816  1.8489 -1.6620 -0.2850
12233TIP3   OH258189   2.915   4.300  14.085  0.0531 -0.6635  0.0158
12233TIP3    H158190   2.851   4.366  14.060  0.6714  0.8113  2.0891
12233TIP3    H258191   2.902   4.229  14.022 -1.7186  0.7402 -1.3000
12234TIP3   OH258192   3.468   5.368   5.345  0.5736  0.4221  0.0436
12234TIP3    H158193   3.523   5.416   5.283  3.1725 -2.1299  0.1471
12234TIP3    H258194   3.530   5.322   5.401 -1.6593 -2.4152  0.4019
12235TIP3   OH258195   5.691   6.783  12.080  0.5848 -0.9133 -0.1020
12235TIP3    H158196   5.666   6.750  12.167  0.4904  2.7399  1.4564
12235TIP3    H258197   5.781   6.811  12.091  0.4207  0.0230 -1.0337
12236TIP3   OH258198   0.975   4.115   4.956 -0.5279  0.2374  0.2371
12236TIP3    H158199   0.933   4.098   4.872 -1.7209 -0.9495  1.0384
12236TIP3    H258200   0.911   4.087   5.021  0.1250  1.6769  1.5719
12237TIP3   OH258201   5.190   1.410  10.403  0.2040  0.0168  0.7110
12237TIP3    H158202   5.263   1.371  10.451 -0.1228  1.4226  2.4691
12237TIP3    H258203   5.223   1.420  10.313  1.9416 -0.0004  1.2995
12238TIP3   OH258204   1.411   0.306   5.676 -0.2681 -0.2372 -0.9353
12238TIP3    H158205   1.368   0.236   5.627 -3.1631  0.9295 -0.2567
12238TIP3    H258206   1.345   0.375   5.682  1.1509  1.0464  1.6197
12239TIP3   OH258207   4.350   4.585   1.433  0.9384  0.8291  0.3563
12239TIP3    H158208   4.345   4.671   1.474  1.5569  1.1143 -0.1404
12239TIP3    H258209   4.272   4.581   1.377 -1.0878 -0.4088  3.0380
12240TIP3   OH258210   2.228   2.393   4.452 -0.3381 -1.0987 -0.3200
12240TIP3    H158211   2.146   2.408   4.499 -0.5277 -1.3683 -0.5624
12240TIP3    H258212   2.258   2.480   4.425 -0.8449 -1.0536 -0.7395
12241TIP3   OH258213   5.341   4.193   1.666 -0.2064  0.9768  0.0189
12241TIP3    H158214   5.258   4.227   1.698  0.3819  2.6054 -0.0683
12241TIP3    H258215   5.317   4.117   1.613 -1.6436  1.4614 -0.0725
12242TIP3   OH258216   1.878   4.576   2.069  0.7894 -0.1469 -0.9397
12242TIP3    H158217   1.805   4.561   2.129 -0.8252 -1.5690 -3.1052
12242TIP3    H258218   1.883   4.496   2.017  1.9254  1.0819 -2.8570
12243TIP3   OH258219   6.027   0.763  12.644  0.4369  0.3352 -0.2749
12243TIP3    H158220   6.076   0.818  12.705  1.3250 -0.6974 -0.0140
12243TIP3    H258221   5.940   0.802  12.640  0.3359  0.4088  1.6987
12244TIP3   OH258222   5.657   4.409  16.499 -0.1555 -0.0090  0.0713
12244TIP3    H158223   5.602   4.446  16.568  0.4920 -0.9783  1.1266
12244TIP3    H258224   5.747   4.428  16.527  0.1148 -0.1230 -0.6850
12245TIP3   OH258225   5.056   1.052   1.874  0.4359  0.5547 -0.2406
12245TIP3    H158226   4.976   0.999   1.870  0.5764  0.4015 -1.2723
12245TIP3    H258227   5.081   1.064   1.782 -0.0102  3.0501 -0.0863
12246TIP3   OH258228   3.250   0.855  14.619  0.0163  0.2417  0.6706
12246TIP3    H158229   3.303   0.812  14.552  2.4549  1.0510  1.9899
12246TIP3    H258230   3.245   0.791  14.690 -1.0991  0.0596  0.4570
12247TIP3   OH258231   2.867   2.992  12.718 -0.3902 -0.3848 -0.0997
12247TIP3    H158232   2.805   2.999  12.646  0.8456  1.5038 -1.0602
12247TIP3    H258233   2.851   3.071  12.771 -0.2771 -0.9899  0.8501
12248TIP3   OH258234   3.890   2.663  15.900  0.0136 -0.1315  0.0210
12248TIP3    H158235   3.829   2.700  15.835  0.6107 -2.6757 -2.1767
12248TIP3    H258236   3.845   2.586  15.934  0.9382 -0.5353  0.3594
12249TIP3   OH258237   2.522   4.421   3.305 -0.6866  0.0842  0.0791
12249TIP3    H158238   2.430   4.399   3.294 -0.6717  1.0349 -2.8654
12249TIP3    H258239   2.522   4.515   3.326 -0.4084 -0.5843  3.8366
12250TIP3   OH258240   0.321   2.036  16.891  0.4045  0.3514  0.3236
12250TIP3    H158241   0.272   2.114  16.867  0.0526 -0.1821 -0.7625
12250TIP3    H258242   0.378   2.019  16.816 -1.4860 -1.9634 -0.7213
12251TIP3   OH258243   1.517   0.866  11.671  0.0734  0.1868 -0.0042
12251TIP3    H158244   1.595   0.919  11.658 -0.4333  0.7167 -1.0768
12251TIP3    H258245   1.444   0.927  11.658 -0.5276 -0.2321  1.2543
12252TIP3   OH258246   5.241   5.969   5.618 -0.1351 -0.1315  0.2599
12252TIP3    H158247   5.222   6.024   5.694 -2.2555 -1.9655  1.1851
12252TIP3    H258248   5.277   5.889   5.655  0.0306 -0.5632 -0.7966
12253TIP3   OH258249   3.010   5.850  16.822  0.2018 -0.3025  0.1921
12253TIP3    H158250   3.011   5.881  16.731 -0.2070 -3.2582 -0.9232
12253TIP3    H258251   3.091   5.801  16.832 -0.1945 -0.7955  1.1060
12254TIP3   OH258252   3.030   0.177   4.614  0.0100 -0.2200  0.2655
12254TIP3    H158253   2.944   0.216   4.602  0.2616  0.1439 -0.3380
12254TIP3    H258254   3.091   0.238   4.574  0.6241 -0.1627  1.2448
12255TIP3   OH258255   4.192   1.831   4.332 -0.1172 -0.1827 -0.0245
12255TIP3    H158256   4.236   1.793   4.408 -0.5181  0.0024  0.2999
12255TIP3    H258257   4.231   1.786   4.257  0.6074 -0.0435  0.2616
12256TIP3   OH258258   5.514   0.247  11.336  0.0832 -0.2447  0.0897
12256TIP3    H158259   5.588   0.250  11.397 -0.0920 -1.5249  0.3857
12256TIP3    H258260   5.522   0.162  11.293 -0.5673  0.0896 -0.7101
12257TIP3   OH258261   5.813   2.005  15.421 -0.0767 -0.0245  0.4526
12257TIP3    H158262   5.815   2.052  15.338 -0.3775  1.3922  1.2075
12257TIP3    H258263   5.869   1.928  15.407 -0.7064 -0.1982 -1.2555
12258TIP3   OH258264   2.976   4.386   5.663  0.2890  0.9110 -0.1296
12258TIP3    H158265   2.902   4.443   5.642  0.5625  1.1678 -0.4142
12258TIP3    H258266   3.027   4.383   5.582 -0.0718 -0.2779 -0.3411
12259TIP3   OH258267   3.827   6.218  13.102 -0.1987  0.5174 -0.2793
12259TIP3    H158268   3.775   6.288  13.142  2.0233  2.1566 -0.0631
12259TIP3    H258269   3.856   6.254  13.018  0.5332 -0.3349 -0.4094
12260TIP3   OH258270   4.286   3.166   0.543 -0.3254 -0.0035 -0.6513
12260TIP3    H158271   4.364   3.112   0.552  0.8053  1.4455 -1.4202
12260TIP3    H258272   4.292   3.230   0.614 -0.4054  0.6108 -1.1955
12261TIP3   OH258273   1.287   5.446   3.469  0.3336 -0.2923 -0.7338
12261TIP3    H158274   1.368   5.396   3.455  0.4746 -0.3262  0.1902
12261TIP3    H258275   1.267   5.482   3.382  1.9561  0.6491 -0.7606
12262TIP3   OH258276   2.900   1.057   1.452  0.2587 -0.8507  0.4245
12262TIP3    H158277   2.937   1.017   1.531  1.5703 -0.4405  0.0448
12262TIP3    H258278   2.806   1.048   1.463  0.4487 -1.8324  1.4982
12263TIP3   OH258279   4.456   0.141   5.912  0.2078 -0.1279 -0.1883
12263TIP3    H158280   4.391   0.126   5.980  0.0868 -0.4016 -0.3640
12263TIP3    H258281   4.483   0.054   5.884  0.1828 -0.0200 -0.5589
12264TIP3   OH258282   1.575   4.963  10.347  0.2771  0.2974 -0.0955
12264TIP3    H158283   1.485   4.974  10.315  0.3290  0.9525 -0.0405
12264TIP3    H258284   1.585   4.869  10.358 -0.1238  0.1417 -0.9129
12265TIP3   OH258285   2.611   5.110   2.365 -0.0126 -0.1010  0.4021
12265TIP3    H158286   2.696   5.101   2.408 -0.1973 -1.2957  0.5741
12265TIP3    H258287   2.617   5.190   2.314  0.8091  0.4522  1.3349
12266TIP3   OH258288   6.428   5.329  10.994  0.1724  0.0092 -0.3085
12266TIP3    H158289   6.482   5.407  11.009  0.6464 -0.4984  0.6996
12266TIP3    H258290   6.344   5.349  11.034  1.0336 -0.8549  2.1182
12267TIP3   OH258291   1.609   1.190   0.883 -0.3651  0.1036 -0.1614
12267TIP3    H158292   1.542   1.253   0.855  0.0753  0.4116 -0.5449
12267TIP3    H258293   1.692   1.237   0.872  0.2027 -1.2736 -2.7084
12268TIP3   OH258294   0.355   1.632  16.342  0.0649 -0.3866  0.0395
12268TIP3    H158295   0.436   1.633  16.394 -0.8310  3.1197  1.6519
12268TIP3    H258296   0.289   1.602  16.404 -0.1783 -1.7407 -0.8351
12269TIP3   OH258297   6.740   2.508   5.973  0.5702 -0.3722  0.6817
12269TIP3    H158298   6.766   2.595   5.942  0.8719 -0.4289  0.7740
12269TIP3    H258299   6.709   2.463   5.894  1.4331 -0.5509  0.4302
12270TIP3   OH258300   3.492   0.449  13.256 -0.4715 -0.5198 -0.5973
12270TIP3    H158301   3.498   0.541  13.230  0.6470 -0.1849  0.6884
12270TIP3    H258302   3.456   0.452  13.345  2.4163 -1.0459  0.6939
12271TIP3   OH258303   6.011   4.334  14.149 -0.1581  0.1381 -0.0342
12271TIP3    H158304   5.978   4.244  14.145  0.6144 -0.3532  2.6745
12271TIP3    H258305   6.099   4.326  14.186  0.8649  1.8728 -1.9004
12272TIP3   OH258306   2.805   6.008  14.535 -0.3670 -0.4306  0.1227
12272TIP3    H158307   2.782   5.915  14.539  0.1624 -0.6761 -1.6760
12272TIP3    H258308   2.899   6.008  14.515 -0.6309  0.4509 -1.2557
12273TIP3   OH258309   2.124   4.977  12.151 -0.8772 -0.5392  0.2580
12273TIP3    H158310   2.161   4.902  12.105 -0.6364  0.3155 -0.9783
12273TIP3    H258311   2.194   5.008  12.208  1.0636  1.9941 -3.1431
12274TIP3   OH258312   4.023   6.749   5.425  0.0571  0.2566 -0.5442
12274TIP3    H158313   4.051   6.760   5.335 -0.6961 -0.6190 -0.9115
12274TIP3    H258314   3.953   6.814   5.437  0.0805  0.2969 -0.6295
12275TIP3   OH258315   6.026   1.381  11.587  0.0777 -0.0602  0.3439
12275TIP3    H158316   5.980   1.342  11.512  0.3916  2.3784 -1.2521
12275TIP3    H258317   6.079   1.309  11.622 -1.0360 -1.6193 -0.9653
12276TIP3   OH258318   2.676   6.266   2.295  0.0677  0.3895  0.9287
12276TIP3    H158319   2.679   6.361   2.285 -1.7189  0.6336  2.1462
12276TIP3    H258320   2.608   6.252   2.362  0.5268 -1.7238  1.0026
12277TIP3   OH258321   4.361   4.329   4.166 -0.2418 -0.8043  0.2044
12277TIP3    H158322   4.341   4.384   4.242  1.3375 -0.1255  0.1728
12277TIP3    H258323   4.291   4.348   4.103  0.0185  0.8664  0.3744
12278TIP3   OH258324   3.583   3.833   6.613 -0.4979  0.3182 -0.2089
12278TIP3    H158325   3.529   3.905   6.647  0.2103  0.3781  0.8468
12278TIP3    H258326   3.547   3.755   6.654  0.8607  0.4767  1.4035
12279TIP3   OH258327   5.339   5.840  16.587 -0.1856 -0.4159  0.1189
12279TIP3    H158328   5.373   5.871  16.504 -1.1035  1.4046  0.3695
12279TIP3    H258329   5.399   5.875  16.653  0.1934 -1.3390  0.2823
12280TIP3   OH258330   5.391   0.170   4.063 -0.3451 -0.3370 -0.5242
12280TIP3    H158331   5.319   0.142   4.120 -0.1289 -1.2264 -0.6871
12280TIP3    H258332   5.438   0.090   4.041 -0.2340  0.0320 -1.7077
12281TIP3   OH258333   3.230   0.619  16.601  0.0984  0.8099  0.1441
12281TIP3    H158334   3.157   0.672  16.569 -0.8353 -0.8312 -0.5518
12281TIP3    H258335   3.285   0.681  16.650 -1.1155  2.3255 -0.3384
12282TIP3   OH258336   2.425   6.684   1.542 -0.2628 -0.2719 -0.8465
12282TIP3    H158337   2.350   6.627   1.524 -1.2157  0.3899  0.7702
12282TIP3    H258338   2.466   6.645   1.620 -0.6782  0.9614  0.0191
12283TIP3   OH258339   3.735   2.693  11.596  0.2877 -0.2128 -0.3358
12283TIP3    H158340   3.809   2.658  11.546  0.1800 -0.0489 -0.6076
12283TIP3    H258341   3.661   2.640  11.568  0.7037 -2.0991  1.7417
12284TIP3   OH258342   3.271   3.238  13.686 -0.3979  0.0508 -0.2067
12284TIP3    H158343   3.252   3.187  13.607 -1.0180 -0.9143  0.5401
12284TIP3    H258344   3.290   3.172  13.753 -1.7287  0.7700  0.9236
12285TIP3   OH258345   3.578   1.676   5.598  0.1024  1.0561  0.1823
12285TIP3    H158346   3.673   1.672   5.615 -0.0728  2.2407  1.6372
12285TIP3    H258347   3.539   1.632   5.673 -0.4912 -0.2157 -0.8561
12286TIP3   OH258348   4.634   4.379   6.786 -0.0349 -0.1990  0.2544
12286TIP3    H158349   4.702   4.322   6.822 -1.1345 -0.6017  1.7676
12286TIP3    H258350   4.646   4.373   6.691  2.6206  0.4968  0.4780
12287TIP3   OH258351   5.446   0.477  15.191 -0.4131  0.1445  0.2316
12287TIP3    H158352   5.470   0.464  15.099 -1.6063  1.9652 -0.3885
12287TIP3    H258353   5.368   0.533  15.188 -1.6347 -1.3094  2.3109
12288TIP3   OH258354   3.580   1.349   5.759  0.5709 -0.6333  0.2031
12288TIP3    H158355   3.531   1.431   5.756 -1.1871 -1.6515 -0.1792
12288TIP3    H258356   3.548   1.305   5.837  1.2995 -1.0781  0.2529
12289TIP3   OH258357   6.713   3.617   1.233  0.0058  0.0345  0.9355
12289TIP3    H158358   6.687   3.611   1.325 -0.0903  1.4165  1.0127
12289TIP3    H258359   6.797   3.663   1.235 -0.6201  1.2537  0.2628
12290TIP3   OH258360   0.007   0.767   4.289  0.2710 -0.0837 -0.5621
12290TIP3    H158361  -0.062   0.716   4.247 -0.6679  1.7366 -1.3269
12290TIP3    H258362  -0.020   0.773   4.381 -0.1871 -0.0334 -0.6981
12291TIP3   OH258363   1.528   3.074   3.266 -0.1492  0.7610 -0.3747
12291TIP3    H158364   1.534   3.136   3.194 -1.5594  1.9268  0.4627
12291TIP3    H258365   1.565   3.120   3.341  1.4708 -0.5023 -0.3266
12292TIP3   OH258366   3.667   3.519   5.596  0.2243  0.2435  0.1747
12292TIP3    H158367   3.626   3.472   5.524 -0.9206  2.8202 -0.9644
12292TIP3    H258368   3.744   3.466   5.618 -1.3732 -2.5319 -0.4226
12293TIP3   OH258369   4.436   3.198   1.220 -0.1583 -0.4091 -0.0286
12293TIP3    H158370   4.448   3.248   1.139  1.2780 -0.3745  0.1695
12293TIP3    H258371   4.525   3.188   1.255 -0.6582 -1.2034  1.0779
12294TIP3   OH258372   1.104   0.150   4.858 -0.2987  0.2512 -0.0646
12294TIP3    H158373   1.012   0.156   4.885 -0.0301  1.9510  0.6432
12294TIP3    H258374   1.128   0.241   4.839  1.4024 -0.0928  0.3345
12295TIP3   OH258375   6.582   4.899   0.445 -0.0266  0.0158 -0.3154
12295TIP3    H158376   6.504   4.861   0.406 -0.4075  0.6845 -0.2196
12295TIP3    H258377   6.554   4.985   0.477  0.4453 -0.2412  0.8225
12296TIP3   OH258378   1.208   3.250  13.419  0.4469  0.7383  0.4452
12296TIP3    H158379   1.123   3.223  13.382  1.5449 -1.3207 -0.7665
12296TIP3    H258380   1.186   3.294  13.501 -1.8298  1.0846 -0.2746
12297TIP3   OH258381   4.822   5.080   6.047  0.3451 -0.0595 -0.3193
12297TIP3    H158382   4.848   5.140   6.117 -1.0865 -1.6471  1.7213
12297TIP3    H258383   4.897   5.077   5.989  1.1298  2.3122  0.4278
12298TIP3   OH258384   6.105   6.318   2.794  0.0798 -0.6720 -0.2732
12298TIP3    H158385   6.048   6.242   2.799  0.5979 -1.0522 -0.0701
12298TIP3    H258386   6.158   6.314   2.873 -1.0230  0.8361  0.6079
12299TIP3   OH258387   3.788   6.206   3.459  0.3283  0.6050  0.3700
12299TIP3    H158388   3.788   6.284   3.515  0.3700 -0.0752  1.3434
12299TIP3    H258389   3.696   6.182   3.451  0.4507 -1.5541  3.4641
12300TIP3   OH258390   3.548   4.455  16.836 -0.2506 -0.0306  0.8775
12300TIP3    H158391   3.580   4.472  16.924  1.4663  2.6584 -0.1406
12300TIP3    H258392   3.600   4.513  16.780 -3.2486  0.5671 -1.5655
12301TIP3   OH258393   2.715   3.153  16.106 -0.3555 -0.0539  0.3012
12301TIP3    H158394   2.653   3.179  16.173  0.5829 -0.3364  1.3253
12301TIP3    H258395   2.710   3.057  16.105 -3.1026 -0.0527 -2.7659
12302TIP3   OH258396   5.357   0.085   3.318  0.0659  0.8519 -0.5659
12302TIP3    H158397   5.325   0.075   3.229  0.7994  1.8990 -0.9649
12302TIP3    H258398   5.318   0.166   3.350 -3.7631 -1.5773  1.7016
12303TIP3   OH258399   2.617   4.926  12.467  0.4015 -0.0187 -0.4539
12303TIP3    H158400   2.669   4.935  12.547  0.0323 -0.1064 -0.2001
12303TIP3    H258401   2.640   4.840  12.433  0.6736  0.0815 -0.5233
12304TIP3   OH258402   2.856   5.425   0.000 -0.3064  0.1975 -0.2856
12304TIP3    H158403   2.892   5.428  -0.088 -4.2995 -1.5809 -2.2210
12304TIP3    H258404   2.815   5.511   0.012 -0.3051  0.2142 -0.4041
12305TIP3   OH258405   2.933   2.662   1.912  0.5003  0.1417 -0.7184
12305TIP3    H158406   2.900   2.751   1.919  1.3466  0.3471  1.2408
12305TIP3    H258407   2.989   2.663   1.835 -0.7151  0.8622 -1.6324
12306TIP3   OH258408   6.821   6.674   3.360  0.1831 -0.0654  0.4750
12306TIP3    H158409   6.760   6.654   3.290  1.0047  0.7908 -0.5245
12306TIP3    H258410   6.873   6.594   3.371  0.1302 -0.1606  0.0273
12307TIP3   OH258411   6.508   1.725   2.291  0.0608 -0.1069  0.1525
12307TIP3    H158412   6.480   1.634   2.301 -0.8236  0.0663 -0.6020
12307TIP3    H258413   6.429   1.771   2.262 -0.0806  1.3129  2.4930
12308TIP3   OH258414   2.037   0.084   1.330  0.3197  0.7055  0.1323
12308TIP3    H158415   1.971   0.018   1.308  0.1745 -0.0009  2.4337
12308TIP3    H258416   2.035   0.089   1.425  1.3014  3.0793  0.0970
12309TIP3   OH258417   6.377   5.295   1.568  0.2747 -0.9655 -0.0566
12309TIP3    H158418   6.334   5.220   1.608 -3.3132  1.6344  1.5761
12309TIP3    H258419   6.320   5.320   1.495  1.6611 -0.1370 -0.9053
12310TIP3   OH258420   5.623   3.991  14.598  0.1304 -0.2979  0.7909
12310TIP3    H158421   5.635   3.930  14.671 -0.2442 -1.1314  0.1721
12310TIP3    H258422   5.538   4.031  14.613 -0.2045 -0.8917  0.5233
12311TIP3   OH258423   4.149   2.280  11.982  0.4658 -0.6730 -0.4388
12311TIP3    H158424   4.073   2.221  11.983 -0.6739  0.7598 -0.3191
12311TIP3    H258425   4.219   2.228  12.020  0.1215 -2.7535 -2.3857
12312TIP3   OH258426   5.069   2.852   0.794 -0.4924  0.1195  0.0810
12312TIP3    H158427   5.101   2.791   0.727 -1.9818 -0.8230  0.1987
12312TIP3    H258428   5.076   2.938   0.752  2.1826  0.0055  0.1197
12313TIP3   OH258429   6.215   6.089   6.071  0.2264  0.0312  0.8260
12313TIP3    H158430   6.165   6.141   6.134 -0.0497  0.4762  0.2575
12313TIP3    H258431   6.150   6.034   6.028 -0.0151  1.4893 -0.7752
12314TIP3   OH258432   3.883   4.589  16.666 -0.7031  0.1451  0.0943
12314TIP3    H158433   3.828   4.590  16.745 -0.5262 -1.0383  0.2496
12314TIP3    H258434   3.822   4.570  16.595 -0.8112  0.9082 -0.0330
12315TIP3   OH258435   3.782   2.876  16.239  0.2287  0.1673 -0.2077
12315TIP3    H158436   3.849   2.813  16.266  1.1132  0.9836 -0.4469
12315TIP3    H258437   3.822   2.925  16.167 -0.6962  0.5467 -0.4819
12316TIP3   OH258438   2.599   2.643   0.983 -0.4950  0.8288  0.4041
12316TIP3    H158439   2.677   2.598   1.015 -0.7240  0.5154  0.5327
12316TIP3    H258440   2.526   2.594   1.021 -0.7968  0.0753 -1.0428
12317TIP3   OH258441   5.978   1.525  12.993 -0.2889  0.0879 -0.2255
12317TIP3    H158442   5.959   1.449  12.938 -2.2639  0.6286 -0.3900
12317TIP3    H258443   5.934   1.506  13.076 -2.1787  1.6451 -0.7867
12318TIP3   OH258444   4.161   6.700   2.296  0.5162 -0.3359 -0.1217
12318TIP3    H158445   4.241   6.657   2.267  1.1479  1.3940 -1.1070
12318TIP3    H258446   4.122   6.736   2.216 -1.1427 -0.9096  0.3719
12319TIP3   OH258447   6.363   2.123  16.979 -0.4734  0.7499  0.0482
12319TIP3    H158448   6.337   2.032  16.968  0.3166  0.5571 -0.2838
12319TIP3    H258449   6.439   2.120  17.037 -0.0307  1.1361 -0.5016
12320TIP3   OH258450   2.551   4.733  15.023  0.2795  0.5449 -0.6209
12320TIP3    H158451   2.623   4.757  15.081 -1.8297  1.6324  1.7424
12320TIP3    H258452   2.481   4.795  15.044 -1.9165 -1.3988 -1.6770
12321TIP3   OH258453   0.232   3.020  14.299  0.0190 -0.3198  0.4360
12321TIP3    H158454   0.297   3.048  14.234  1.0394 -2.7234  0.3353
12321TIP3    H258455   0.148   3.051  14.263  0.8658  1.0355 -0.4744
12322TIP3   OH258456   3.984   1.759   1.537 -0.3290 -0.2753  0.1239
12322TIP3    H158457   3.920   1.811   1.585  0.9440  1.1136  0.4059
12322TIP3    H258458   3.967   1.780   1.445 -0.6705 -0.3881  0.1614
12323TIP3   OH258459   5.604   5.725  14.850 -0.2839  0.7937 -0.0373
12323TIP3    H158460   5.583   5.752  14.939 -0.2082  0.4666  0.0804
12323TIP3    H258461   5.690   5.684  14.857 -0.8245 -0.3958 -0.0315
12324TIP3   OH258462   3.288   4.102  11.718 -0.0462 -0.1497  0.4952
12324TIP3    H158463   3.364   4.044  11.724  0.7420  0.8291  0.2648
12324TIP3    H258464   3.226   4.056  11.662  0.2959 -1.0406  0.8344
12325TIP3   OH258465   6.069   0.508  11.193 -0.4818  0.2799  0.9482
12325TIP3    H158466   6.102   0.461  11.269  0.2832  1.4612  1.3564
12325TIP3    H258467   6.062   0.440  11.125  1.0834 -0.3459  1.3665
12326TIP3   OH258468   4.894   0.172   1.014 -0.2231  0.1994  0.3186
12326TIP3    H158469   4.880   0.122   0.934  0.0843  0.4846  0.0855
12326TIP3    H258470   4.980   0.213   1.002 -0.2473  0.3727  0.7240
12327TIP3   OH258471   1.415   1.982   1.071  0.0485  0.5114  0.2162
12327TIP3    H158472   1.411   2.015   0.981  2.6795 -0.9141 -0.5337
12327TIP3    H258473   1.395   2.058   1.125  0.0130  1.8303 -1.5489
12328TIP3   OH258474   6.262   0.978  17.111 -0.3528 -0.1813 -0.3689
12328TIP3    H158475   6.197   1.040  17.077 -1.1692 -0.5823  0.4460
12328TIP3    H258476   6.216   0.929  17.179  0.1353 -1.9922 -1.2806
12329TIP3   OH258477   3.993   6.667  13.629 -0.1863 -0.3314 -0.1342
12329TIP3    H158478   4.079   6.632  13.604  0.1237  1.3050 -1.5427
12329TIP3    H258479   3.962   6.607  13.697  1.2226 -2.0757 -0.9343
12330TIP3   OH258480   5.155   4.668   1.508 -0.4639 -0.0342  0.4674
12330TIP3    H158481   5.068   4.638   1.536  0.3421 -2.3863  0.6243
12330TIP3    H258482   5.193   4.706   1.587 -0.4984 -1.1139  1.0211
12331TIP3   OH258483   1.402   6.345   2.224  0.6086 -0.1667  0.0696
12331TIP3    H158484   1.370   6.413   2.165  3.3268 -0.5805 -2.1191
12331TIP3    H258485   1.400   6.265   2.171  0.6307 -1.1322  1.4735
12332TIP3   OH258486   0.104   5.181   3.065  0.0450  0.0474  0.5915
12332TIP3    H158487   0.136   5.267   3.037  1.2155 -0.5409  0.0720
12332TIP3    H258488   0.138   5.171   3.154  0.4758 -0.1542  0.4066
12333TIP3   OH258489   2.354   4.082   2.204  0.1905  0.6195 -0.7176
12333TIP3    H158490   2.317   4.052   2.287 -1.0584 -0.5865 -1.6594
12333TIP3    H258491   2.324   4.173   2.196 -0.7437  0.3463 -0.4215
12334TIP3   OH258492   3.962   0.861  17.122 -0.5116 -0.6501 -0.4480
12334TIP3    H158493   3.949   0.844  17.029  0.5635 -0.9088 -0.5632
12334TIP3    H258494   4.044   0.911  17.127  0.2292 -1.8803  0.4464
12335TIP3   OH258495   4.843   3.031   4.321  0.2051  0.7929  0.0774
12335TIP3    H158496   4.849   3.069   4.233 -1.5569 -1.1575 -0.9678
12335TIP3    H258497   4.751   3.037   4.344  0.2588 -0.6942  0.8220
12336TIP3   OH258498   1.160   0.464   3.795 -0.3580 -0.0130 -0.0262
12336TIP3    H158499   1.098   0.487   3.726  0.2356 -1.5393 -1.1243
12336TIP3    H258500   1.181   0.371   3.779  0.9616  0.0169  1.2825
12337TIP3   OH258501   1.177   3.733  14.270  0.0701 -0.6038 -0.4724
12337TIP3    H158502   1.265   3.713  14.304 -0.2990  0.1756  1.0583
12337TIP3    H258503   1.119   3.675  14.319 -0.5907  1.2903  1.1258
12338TIP3   OH258504   0.285   5.156   5.798  0.0913 -0.1530 -0.0516
12338TIP3    H158505   0.330   5.198   5.872 -0.1719  0.2836 -0.1392
12338TIP3    H258506   0.293   5.062   5.816 -0.7649 -0.0386  1.0167
12339TIP3   OH258507   1.494   1.034  16.954  0.0892  0.3789  0.0663
12339TIP3    H158508   1.442   0.977  16.898  0.6784 -1.1722  1.0214
12339TIP3    H258509   1.583   1.027  16.919  0.4882 -0.7205  1.2306
12340TIP3   OH258510   0.394   2.315   0.374  0.4541 -0.0019  0.3288
12340TIP3    H158511   0.399   2.352   0.286 -0.2677 -1.7496 -0.4811
12340TIP3    H258512   0.409   2.390   0.432 -0.9285  1.5635 -1.2206
12341TIP3   OH258513   6.755   1.867  15.887  0.3663  0.3588 -0.7681
12341TIP3    H158514   6.810   1.937  15.923 -0.1059  0.3940 -0.0928
12341TIP3    H258515   6.666   1.892  15.912  0.0084  0.4100 -2.0103
12342TIP3   OH258516   4.899   5.548   2.159 -0.4623  0.0285 -0.3711
12342TIP3    H158517   4.850   5.467   2.148  0.0654 -0.5069  1.0044
12342TIP3    H258518   4.832   5.616   2.170 -0.9043 -0.4383 -0.1707
12343TIP3   OH258519   1.507   2.168  15.461  0.2128 -0.3347 -0.8156
12343TIP3    H158520   1.419   2.160  15.499  0.1748  2.8354  0.1215
12343TIP3    H258521   1.566   2.165  15.536  0.7161 -0.4422 -1.2119
12344TIP3   OH258522   3.503   2.816  16.611  0.5207  0.0318 -0.1515
12344TIP3    H158523   3.461   2.899  16.632 -0.8524 -1.0314  1.6192
12344TIP3    H258524   3.486   2.802  16.518  0.8690  1.7450 -0.5029
12345TIP3   OH258525   5.481   2.525  16.295  0.7597 -0.4407  0.0991
12345TIP3    H158526   5.513   2.450  16.345 -2.7232 -2.8417 -0.8961
12345TIP3    H258527   5.483   2.495  16.204 -0.2166  0.8788 -0.3862
12346TIP3   OH258528   6.549   1.164   4.009 -0.1692 -0.1994 -0.3841
12346TIP3    H158529   6.457   1.161   3.982 -0.0942  0.8367 -0.8091
12346TIP3    H258530   6.598   1.164   3.927  0.1656  0.3252 -0.1885
12347TIP3   OH258531   5.489   3.471  12.560 -0.3021  0.4449 -0.0772
12347TIP3    H158532   5.407   3.442  12.520  0.1342  1.3595 -1.7665
12347TIP3    H258533   5.532   3.391  12.590 -0.5276 -0.3749 -1.7889
12348TIP3   OH258534   5.820   5.304  14.642 -0.2784  0.7351 -0.0882
12348TIP3    H158535   5.781   5.244  14.706  3.1237  0.7143  2.2273
12348TIP3    H258536   5.835   5.250  14.565 -0.7840 -0.3595  0.5484
12349TIP3   OH258537   3.637   0.869   3.395 -0.1306  0.1125 -0.2841
12349TIP3    H158538   3.712   0.826   3.353  1.1303  0.9491  1.0020
12349TIP3    H258539   3.610   0.809   3.463 -0.3120  0.0369 -0.4215
12350TIP3   OH258540   3.191   1.079   4.217 -0.2063  0.7938  0.0274
12350TIP3    H158541   3.168   1.055   4.307  0.3715  1.7427  0.4433
12350TIP3    H258542   3.169   1.001   4.165 -0.5700  0.2422  0.9783
12351TIP3   OH258543   1.845   1.595   3.328 -0.0536  0.0499  0.0492
12351TIP3    H158544   1.866   1.618   3.238 -1.6710 -1.4067 -0.7468
12351TIP3    H258545   1.926   1.560   3.364  0.2885 -0.4745 -1.2124
12352TIP3   OH258546   3.345   0.310   6.188  1.0310  0.4179  0.3684
12352TIP3    H158547   3.272   0.257   6.155 -0.6541  2.1440  1.0961
12352TIP3    H258548   3.380   0.260   6.261  0.4033 -0.3195  0.1762
12353TIP3   OH258549   5.923   2.842  11.052 -0.3979 -0.4503 -0.0542
12353TIP3    H158550   5.918   2.837  11.148  2.1765 -0.4013  0.1551
12353TIP3    H258551   5.858   2.908  11.028 -1.0243 -0.3978  1.6586
12354TIP3   OH258552   3.546   2.972   5.644 -0.3141 -0.6521  0.1473
12354TIP3    H158553   3.470   3.001   5.594  0.4207 -2.0124 -1.8777
12354TIP3    H258554   3.617   3.030   5.617 -0.3982  0.1088  1.4448
12355TIP3   OH258555   2.815   3.527   0.879  0.0384 -0.6906  0.0724
12355TIP3    H158556   2.721   3.545   0.885 -0.2223 -1.6317 -0.8585
12355TIP3    H258557   2.821   3.432   0.867  0.9454 -0.4051 -2.3732
12356TIP3   OH258558   4.035   6.261   5.246 -0.2484 -0.0540  0.8024
12356TIP3    H158559   4.028   6.332   5.310  0.4065  0.0708  0.7465
12356TIP3    H258560   3.959   6.272   5.190 -0.4115  0.3159  1.0884
12357TIP3   OH258561   3.984   5.018  16.268 -0.8867 -0.1769 -0.1497
12357TIP3    H158562   3.980   5.089  16.332 -1.3627 -1.6122  1.4890
12357TIP3    H258563   4.077   5.001  16.257 -0.7640  0.7146 -0.6149
12358TIP3   OH258564   5.129   1.726   1.561 -0.0876 -0.0540  0.1799
12358TIP3    H158565   5.211   1.716   1.610  0.3718 -1.2984 -0.8043
12358TIP3    H258566   5.106   1.637   1.533 -2.0827  0.1810  0.8817
12359TIP3   OH258567   0.616   5.788  13.795  0.3487  0.2763 -0.4028
12359TIP3    H158568   0.635   5.709  13.745  0.3496 -0.3340  0.5365
12359TIP3    H258569   0.584   5.756  13.879  1.0645  1.2582  0.2690
12360TIP3   OH258570   0.638   3.701  11.507 -0.2627 -0.2359 -0.2566
12360TIP3    H158571   0.557   3.690  11.557  0.1242 -0.4155  0.3344
12360TIP3    H258572   0.708   3.685  11.570  0.2316 -0.9334 -0.9663
12361TIP3   OH258573   5.293   6.104   1.611 -0.6250  0.0421 -0.6282
12361TIP3    H158574   5.329   6.188   1.638  0.0086 -0.4367  0.0758
12361TIP3    H258575   5.260   6.065   1.692  1.2731 -1.4053 -0.4637
12362TIP3   OH258576   6.317   4.475  14.574  0.1285 -0.1898 -0.1668
12362TIP3    H158577   6.235   4.432  14.547 -0.1936 -0.9892  1.8757
12362TIP3    H258578   6.289   4.555  14.617  0.2639 -1.1189  1.7570
12363TIP3   OH258579   6.847   3.611   4.636 -0.0165 -0.9463 -0.1645
12363TIP3    H158580   6.876   3.539   4.580  0.2401 -1.5840  0.7613
12363TIP3    H258581   6.863   3.580   4.725  1.0920  0.6700  0.2409
12364TIP3   OH258582   6.396   5.192   2.266  0.3082  0.1622  0.0275
12364TIP3    H158583   6.300   5.199   2.268  0.1988 -1.2145  1.2533
12364TIP3    H258584   6.419   5.204   2.174 -1.2022 -1.2500 -0.5904
12365TIP3   OH258585   5.862   6.297  14.338 -0.2170 -0.4559  0.4289
12365TIP3    H158586   5.884   6.271  14.249 -1.7266 -3.5945  0.8425
12365TIP3    H258587   5.902   6.230  14.394  1.0963  1.6805  2.2413
12366TIP3   OH258588   1.579   6.714  15.828  0.0469  0.1993 -0.3771
12366TIP3    H158589   1.657   6.717  15.773  0.6560 -0.0569  0.4572
12366TIP3    H258590   1.610   6.683  15.913 -1.0464 -0.4234 -0.1777
12367TIP3   OH258591   6.227   3.869  12.144 -0.2469  0.2640 -0.1189
12367TIP3    H158592   6.174   3.794  12.117  0.8963 -0.8626  0.6922
12367TIP3    H258593   6.170   3.919  12.203 -0.7960 -0.3134 -0.1502
12368TIP3   OH258594   3.603   3.839  12.654 -0.1457 -0.3268 -0.6584
12368TIP3    H158595   3.573   3.862  12.566 -0.4822  2.2743  0.0551
12368TIP3    H258596   3.671   3.903  12.674  0.0053 -0.9416  0.9375
12369TIP3   OH258597   2.528   3.464  15.101  0.0956 -0.1566  0.1215
12369TIP3    H158598   2.611   3.447  15.056  0.2912  1.4491 -0.1969
12369TIP3    H258599   2.484   3.379  15.104  0.5082 -0.5345 -2.2626
12370TIP3   OH258600   4.435   5.537   0.864  0.5004  0.0828  0.1469
12370TIP3    H158601   4.481   5.601   0.809 -1.6926 -0.3733 -2.4414
12370TIP3    H258602   4.489   5.458   0.860  0.2967 -0.0158 -1.6892
12371TIP3   OH258603   4.592   1.410  13.586  0.3211 -0.2021  0.4033
12371TIP3    H158604   4.608   1.468  13.511  0.1462  0.1150  0.6110
12371TIP3    H258605   4.497   1.410  13.597  0.2416 -1.2469 -0.1586
12372TIP3   OH258606   3.817   5.543  12.098  0.0207  0.3304  0.0589
12372TIP3    H158607   3.758   5.534  12.173 -0.3253 -0.8418 -0.3250
12372TIP3    H258608   3.759   5.543  12.022  0.4998 -1.4854 -0.3675
12373TIP3   OH258609   2.353   3.566  12.527 -0.1757  0.6547 -0.6520
12373TIP3    H158610   2.358   3.640  12.587 -0.7041  0.0347  0.1914
12373TIP3    H258611   2.272   3.521  12.553  0.1924 -0.2617 -1.0768
12374TIP3   OH258612   4.836   0.581   3.563 -0.2986  0.3264 -0.1979
12374TIP3    H158613   4.857   0.587   3.470 -1.5181 -0.5924 -0.5582
12374TIP3    H258614   4.756   0.633   3.573 -0.6395 -0.2596  0.1698
12375TIP3   OH258615   6.788   2.685   2.651 -0.0266 -0.4528  0.3906
12375TIP3    H158616   6.722   2.680   2.582  1.1605  0.3268 -0.8714
12375TIP3    H258617   6.776   2.772   2.690 -0.7041 -0.8975  1.1995
12376TIP3   OH258618   1.605   2.854   0.687 -0.4585  0.6764 -0.1406
12376TIP3    H158619   1.661   2.931   0.687 -2.5229  2.3728  2.7745
12376TIP3    H258620   1.526   2.881   0.640  0.1561 -0.9935 -2.3442
12377TIP3   OH258621   2.725   6.562   4.461  0.2009 -0.0931 -0.0883
12377TIP3    H158622   2.728   6.529   4.371  0.6940  2.0129 -0.8896
12377TIP3    H258623   2.812   6.543   4.496 -0.5420 -2.6003  0.6691
12378TIP3   OH258624   5.226   5.329   5.962 -0.4931  0.2791  0.3072
12378TIP3    H158625   5.174   5.256   5.928 -1.0786  0.0631  1.6094
12378TIP3    H258626   5.263   5.296   6.043  2.1479  0.2647 -0.8163
12379TIP3   OH258627   3.638   0.843  14.342 -0.3165  0.1626 -0.1432
12379TIP3    H158628   3.716   0.826  14.289 -0.8472  1.0054 -1.2498
12379TIP3    H258629   3.623   0.937  14.332 -0.2132  0.4486  1.8692
12380TIP3   OH258630   0.238   1.528  16.571  0.2845  0.0612 -0.7778
12380TIP3    H158631   0.180   1.456  16.545  0.1063  0.2647 -0.9514
12380TIP3    H258632   0.271   1.503  16.657  0.6966 -0.5181 -1.0985
12381TIP3   OH258633   6.532   6.044   5.221  0.2117  0.6567 -0.0227
12381TIP3    H158634   6.498   5.958   5.246 -0.7208 -0.1319 -3.3954
12381TIP3    H258635   6.625   6.039   5.239  0.1531 -1.0530 -0.0183
12382TIP3   OH258636   1.200   3.612  11.498 -0.2217 -0.0410 -0.4181
12382TIP3    H158637   1.222   3.647  11.412  2.7211 -0.8557 -0.1219
12382TIP3    H258638   1.176   3.521  11.482 -3.0982  0.6556 -0.6517
12383TIP3   OH258639   3.462   0.137  16.538 -0.2269 -0.2881 -0.4658
12383TIP3    H158640   3.401   0.168  16.605  1.6336 -0.6853  1.5181
12383TIP3    H258641   3.538   0.194  16.547  0.6607 -1.3135 -1.2273
12384TIP3   OH258642   0.698   0.192   0.666 -0.4882 -0.5803  0.1405
12384TIP3    H158643   0.663   0.263   0.612  0.7374 -0.0751 -0.0121
12384TIP3    H258644   0.651   0.114   0.636 -0.7664 -0.0904 -0.7295
12385TIP3   OH258645   2.532   0.945  11.374  0.5056 -0.2760  0.4166
12385TIP3    H158646   2.519   1.029  11.329 -0.2224  0.1160  1.3119
12385TIP3    H258647   2.496   0.960  11.462  1.7363 -1.0617  1.0867
12386TIP3   OH258648   3.810   4.797   4.783 -0.4631  0.0961 -0.0452
12386TIP3    H158649   3.869   4.873   4.788 -0.5703  0.2554 -0.9276
12386TIP3    H258650   3.796   4.785   4.689  0.0021 -1.3741  0.0454
12387TIP3   OH258651   0.317   3.972   3.734  0.2191  0.3316 -0.1270
12387TIP3    H158652   0.411   3.986   3.721 -0.1266  1.7899 -1.1975
12387TIP3    H258653   0.294   4.032   3.805  0.1859 -0.4272  0.5157
12388TIP3   OH258654   4.530   3.882  11.889 -0.0091  0.6075  0.2246
12388TIP3    H158655   4.522   3.913  11.799 -1.5292  0.3873  0.2687
12388TIP3    H258656   4.624   3.867  11.901  0.1303 -0.0570 -1.5490
12389TIP3   OH258657   6.842   1.026  13.534 -0.2576 -0.2793  0.4140
12389TIP3    H158658   6.864   1.034  13.626 -0.2721 -1.6384  0.5640
12389TIP3    H258659   6.789   1.103  13.514 -0.3071 -0.0088  1.5573
12390TIP3   OH258660   4.972   0.225  13.672 -0.3610  0.2606  0.5513
12390TIP3    H158661   4.959   0.291  13.603 -1.6724 -2.2961 -1.8148
12390TIP3    H258662   5.060   0.191  13.656 -0.1140  0.6262  1.0868
12391TIP3   OH258663   4.397   4.269   3.150 -0.0300  0.3164 -0.0588
12391TIP3    H158664   4.390   4.355   3.191  1.1085  0.8735 -0.9728
12391TIP3    H258665   4.311   4.253   3.112 -0.0662  1.3358 -0.4264
12392TIP3   OH258666   3.753   3.534   0.597  0.0789  0.0700 -0.3134
12392TIP3    H158667   3.757   3.616   0.647 -0.5287 -0.1220  0.0625
12392TIP3    H258668   3.707   3.557   0.517  0.4990  0.2409 -0.5077
12393TIP3   OH258669   0.407   5.792  11.941 -0.1776  0.2966 -0.6907
12393TIP3    H158670   0.390   5.886  11.938  2.2662  1.0079  2.1422
12393TIP3    H258671   0.345   5.759  12.006  0.9997  0.6134  0.6443
12394TIP3   OH258672   0.615   2.971   1.432  0.3775 -0.2337  0.1316
12394TIP3    H158673   0.522   2.957   1.449  0.5659 -1.3981  0.2842
12394TIP3    H258674   0.644   2.888   1.394  1.5589 -0.2092  0.9540
12395TIP3   OH258675   2.002   2.375  13.935  0.8085 -0.4392  0.8156
12395TIP3    H158676   1.936   2.435  13.900  0.0620  0.2085  3.1545
12395TIP3    H258677   2.067   2.367  13.865  0.0951  1.8191 -0.1930
12396TIP3   OH258678   1.278   0.080  14.294  0.2725  0.1909 -0.1846
12396TIP3    H158679   1.217   0.152  14.307  1.3134  1.0393  0.1582
12396TIP3    H258680   1.265   0.054  14.203 -0.5894  0.3541 -0.1136
12397TIP3   OH258681   2.715   6.606  11.512  0.4380 -0.4651  0.0577
12397TIP3    H158682   2.735   6.689  11.556  1.7674 -1.0354  0.5627
12397TIP3    H258683   2.799   6.575  11.478 -0.0929 -1.4689 -0.3880
12398TIP3   OH258684   2.637   1.710   4.746  0.2016 -0.2102 -0.2146
12398TIP3    H158685   2.717   1.746   4.783 -0.4896  1.3477 -0.1448
12398TIP3    H258686   2.631   1.622   4.782  1.3444  0.0238  0.5935
12399TIP3   OH258687   6.416   2.963  12.668 -0.2806 -0.0640 -0.2597
12399TIP3    H158688   6.456   2.950  12.582  0.1337  1.0262 -0.2460
12399TIP3    H258689   6.484   3.007  12.719 -1.0224  0.5835  0.1823
12400TIP3   OH258690   2.031   4.169   2.019 -0.6342 -0.2013  0.2629
12400TIP3    H158691   1.993   4.253   1.995 -1.6863 -0.8114 -0.3059
12400TIP3    H258692   2.124   4.177   1.997 -0.1555  1.6819  2.6535
12401TIP3   OH258693   5.876   1.706  13.882 -0.3453  0.3631 -0.0460
12401TIP3    H158694   5.794   1.669  13.849 -0.8763  0.5135  1.0948
12401TIP3    H258695   5.852   1.753  13.962  0.9962 -0.4074  0.8466
12402TIP3   OH258696   4.194   3.461  11.347 -0.2241  0.1324  0.2309
12402TIP3    H158697   4.120   3.410  11.378  0.0475  0.2312  1.0871
12402TIP3    H258698   4.224   3.508  11.425  0.0666  0.9206 -0.3497
12403TIP3   OH258699   4.407   5.689   0.260  0.0018 -0.1985  0.1069
12403TIP3    H158700   4.343   5.621   0.241 -0.1568  0.2547 -1.0592
12403TIP3    H258701   4.432   5.723   0.174  2.7710 -1.2396  0.3885
12404TIP3   OH258702   3.964   5.006  13.071 -0.3116  0.3019 -0.1657
12404TIP3    H158703   3.901   4.949  13.028 -1.4637  0.3842  1.3372
12404TIP3    H258704   3.933   5.095  13.053  0.0762  0.3892 -0.4263
12405TIP3   OH258705   5.321   0.850  10.795  0.3935 -0.1594 -0.0982
12405TIP3    H158706   5.305   0.884  10.883  1.2639 -0.4557  0.1837
12405TIP3    H258707   5.237   0.857  10.751  0.0089  0.2249  0.6794
12406TIP3   OH258708   5.770   0.070   4.210 -0.1245 -0.3689  0.5471
12406TIP3    H158709   5.845   0.103   4.259 -0.0899 -2.0333  1.6898
12406TIP3    H258710   5.695   0.119   4.246  0.2244  0.3564  0.3174
12407TIP3   OH258711   5.054   6.723  12.849  0.1446  0.0886  0.1400
12407TIP3    H158712   5.113   6.703  12.776 -0.3311  1.3069 -0.6183
12407TIP3    H258713   4.966   6.712  12.812 -0.1197 -0.4902  0.9024
12408TIP3   OH258714   5.788   4.484   1.261  0.5719  0.3616  0.1191
12408TIP3    H158715   5.835   4.465   1.342  0.3459  2.4709  0.8196
12408TIP3    H258716   5.697   4.495   1.287  0.5657  1.5111 -0.3034
12409TIP3   OH258717   4.826   4.742   5.396 -0.4040 -0.2998  0.1052
12409TIP3    H158718   4.817   4.704   5.483 -0.1470 -1.3130 -0.3031
12409TIP3    H258719   4.767   4.690   5.341  2.5683 -2.5440 -1.2072
12410TIP3   OH258720   0.861   0.518   1.480 -0.1296 -0.5034 -0.2106
12410TIP3    H158721   0.849   0.433   1.523 -2.0512 -1.0590 -1.7173
12410TIP3    H258722   0.933   0.503   1.418 -0.3698 -1.0141 -0.3768
12411TIP3   OH258723   2.034   6.760  14.201  0.2159 -0.2694 -0.1234
12411TIP3    H158724   2.067   6.673  14.224 -0.4012  0.3533  3.6313
12411TIP3    H258725   1.969   6.742  14.132 -0.8280 -2.9994  1.4063
12412TIP3   OH258726   5.977   3.071  16.404 -0.7609  0.6428  0.0689
12412TIP3    H158727   5.962   3.041  16.314  0.4718  1.9825 -0.6284
12412TIP3    H258728   6.036   3.005  16.441  0.9744  1.4682 -1.0612
12413TIP3   OH258729   0.766   4.082   5.132  0.7221 -0.7572  0.3938
12413TIP3    H158730   0.735   4.079   5.223  1.5279  0.0620  0.7109
12413TIP3    H258731   0.694   4.045   5.081 -0.7244  0.9152  1.1216
12414TIP3   OH258732   6.840   5.393   4.539  0.2411 -0.4659 -0.3177
12414TIP3    H158733   6.898   5.465   4.563 -1.4329  1.3030 -1.2787
12414TIP3    H258734   6.881   5.354   4.461  1.0741 -0.4386  0.1048
12415TIP3   OH258735   2.106   0.716  14.654  0.5003  0.4266  0.1633
12415TIP3    H158736   2.172   0.651  14.631  0.8537  1.4009 -1.7077
12415TIP3    H258737   2.156   0.795  14.674 -0.0469  1.6411 -2.7906
12416TIP3   OH258738   0.324   0.311   1.101 -0.0237 -0.0515 -0.3923
12416TIP3    H158739   0.254   0.325   1.166 -0.4259  0.6723 -0.9635
12416TIP3    H258740   0.291   0.354   1.022  1.1738  0.5080 -0.6040
12417TIP3   OH258741   4.265   6.495  14.924 -0.4121 -0.3974 -0.4944
12417TIP3    H158742   4.216   6.556  14.868 -0.5568 -1.1387 -1.1861
12417TIP3    H258743   4.217   6.413  14.919  0.0296 -0.7006  0.0868
12418TIP3   OH258744   3.030   3.489  13.531 -0.4783 -0.4619  0.2687
12418TIP3    H158745   2.987   3.533  13.603  1.3686 -0.2834  1.3340
12418TIP3    H258746   3.116   3.465  13.565  1.5120  1.8725 -2.5862
12419TIP3   OH258747   0.420   4.146  11.011 -0.0807 -0.1034 -0.1800
12419TIP3    H158748   0.409   4.208  10.939 -1.9628 -0.1848 -0.0158
12419TIP3    H258749   0.512   4.120  11.006 -0.1131 -0.0207 -2.4951
12420TIP3   OH258750   5.365   2.146   5.172  0.3516 -0.2886  0.0103
12420TIP3    H158751   5.293   2.169   5.113  0.6988 -1.5833 -0.9672
12420TIP3    H258752   5.326   2.085   5.234  0.2783  0.1350  0.3881
12421TIP3   OH258753   3.360   4.990   3.946  0.1392  0.5959 -0.2912
12421TIP3    H158754   3.335   5.046   4.020 -2.2726 -0.3858 -0.3014
12421TIP3    H258755   3.421   4.927   3.984 -0.9642  0.1831  0.8471
12422TIP3   OH258756   4.416   3.201   4.114  0.0999  1.2540  0.2787
12422TIP3    H158757   4.500   3.218   4.156  0.9342  2.4667 -1.7176
12422TIP3    H258758   4.418   3.107   4.094  1.2063  1.3372 -0.1206
12423TIP3   OH258759   0.807   4.848   2.622 -0.2720 -0.4318 -0.0668
12423TIP3    H158760   0.853   4.802   2.693  1.7667  1.2306 -0.1999
12423TIP3    H258761   0.824   4.795   2.544  0.7263 -0.3049  0.0498
12424TIP3   OH258762   6.626   3.178  11.934  0.5803 -0.0372  0.1060
12424TIP3    H158763   6.639   3.272  11.925 -2.1993  0.7225  2.2610
12424TIP3    H258764   6.705   3.147  11.978  1.6484  1.1994 -0.8603
12425TIP3   OH258765   0.028   1.670  16.857 -0.3947 -0.3663 -0.5552
12425TIP3    H158766   0.089   1.597  16.864 -1.0676 -0.9017 -0.2121
12425TIP3    H258767   0.045   1.724  16.935  0.0047 -0.2313 -0.7353
12426TIP3   OH258768   5.416   4.769   4.534  0.3982  0.2168  0.1077
12426TIP3    H158769   5.349   4.780   4.602  0.6631 -0.9678  0.5864
12426TIP3    H258770   5.490   4.729   4.579  1.0314  0.5098 -0.6444
12427TIP3   OH258771   3.219   0.767   5.333  0.2629 -0.0620  0.4311
12427TIP3    H158772   3.149   0.817   5.375  1.0512  1.3836  0.0879
12427TIP3    H258773   3.182   0.679   5.321 -1.4001  0.6018  0.4539
12428TIP3   OH258774   2.230   3.471  12.058  0.2154  0.1432  0.0636
12428TIP3    H158775   2.284   3.498  12.132  2.3591 -0.9181 -1.0107
12428TIP3    H258776   2.231   3.376  12.062 -0.5941  0.0967 -0.6953
12429TIP3   OH258777   3.391   0.998  16.626 -0.2384  0.5945 -0.0482
12429TIP3    H158778   3.464   1.056  16.603 -0.4907  0.5752 -0.9235
12429TIP3    H258779   3.324   1.057  16.661 -0.6733  0.9046 -1.3611
12430TIP3   OH258780   1.380   1.045   2.684 -0.5368 -0.2967  0.0060
12430TIP3    H158781   1.398   1.062   2.776 -1.1921  2.3223 -0.2648
12430TIP3    H258782   1.461   1.007   2.649  0.3667  0.4388  1.2475
12431TIP3   OH258783   4.299   3.000   4.545  0.0845 -0.2747 -0.3826
12431TIP3    H158784   4.248   3.081   4.538 -0.4403 -0.4537  1.0300
12431TIP3    H258785   4.302   2.982   4.639  2.1821 -0.6500 -0.4794
12432TIP3   OH258786   6.047   6.256   1.643 -0.0824  0.1520 -0.3681
12432TIP3    H158787   6.059   6.195   1.715  0.6041 -0.4882 -1.0020
12432TIP3    H258788   6.084   6.338   1.674  1.0315 -0.3545 -0.2937
12433TIP3   OH258789   4.769   2.032  10.425 -0.3833 -0.0057 -0.3901
12433TIP3    H158790   4.793   2.103  10.365 -2.7545  0.5696 -0.7625
12433TIP3    H258791   4.837   1.966  10.413  0.7732  1.3405 -1.5609
12434TIP3   OH258792   6.430   5.087   6.342 -0.1400  0.6804  0.4494
12434TIP3    H158793   6.338   5.090   6.368 -0.6037  0.3636 -1.0682
12434TIP3    H258794   6.430   5.049   6.254  1.6890 -2.1780  1.5362
12435TIP3   OH258795   6.232   0.065   3.855 -0.1710 -0.3863 -0.5816
12435TIP3    H158796   6.307   0.007   3.845 -0.1657 -0.9165  1.9417
12435TIP3    H258797   6.266   0.152   3.836  0.7973 -0.7476 -0.5556
12436TIP3   OH258798   3.401   4.685  15.021  0.0821  0.2485  0.0817
12436TIP3    H158799   3.389   4.626  14.946  0.5425 -0.1707  0.3319
12436TIP3    H258800   3.495   4.701  15.024 -0.1704  2.3993 -1.0336
12437TIP3   OH258801   0.600   4.998   2.542  0.0680  0.0536 -0.5389
12437TIP3    H158802   0.650   4.954   2.611 -2.3138 -0.1352  1.2135
12437TIP3    H258803   0.555   4.927   2.497 -0.5134  0.3674 -0.4646
12438TIP3   OH258804   3.599   4.526  17.085 -0.4347  0.1522  0.2348
12438TIP3    H158805   3.584   4.618  17.105 -0.8567  0.0907  0.2166
12438TIP3    H258806   3.608   4.484  17.170 -0.4910  0.1719  0.2505
12439TIP3   OH258807   1.908   3.058  14.333  0.2992 -0.1211 -0.7436
12439TIP3    H158808   1.827   3.011  14.354 -0.4680  0.5346 -2.1199
12439TIP3    H258809   1.949   3.004  14.265  0.3330  0.2443 -1.0133
12440TIP3   OH258810   4.613   6.645   2.090  0.0047  0.7222  0.4434
12440TIP3    H158811   4.567   6.581   2.035  0.0710  0.1702  1.0207
12440TIP3    H258812   4.682   6.680   2.033  0.9091 -0.7895  0.5421
12441TIP3   OH258813   1.195   5.102   3.480 -0.3486  0.0886  0.4473
12441TIP3    H158814   1.286   5.080   3.463 -0.6937 -0.6240 -0.5398
12441TIP3    H258815   1.178   5.181   3.428 -0.6372 -0.5052 -0.3727
12442TIP3   OH258816   6.466   4.685  16.028 -0.0153 -0.0765 -0.0395
12442TIP3    H158817   6.405   4.631  16.079  0.2522 -1.1777 -0.8582
12442TIP3    H258818   6.438   4.674  15.937  0.3719  0.7558 -0.2667
12443TIP3   OH258819   4.082   4.400   3.303 -0.1429  0.5571 -0.0283
12443TIP3    H158820   3.997   4.433   3.275 -0.6168 -0.5381  0.0507
12443TIP3    H258821   4.080   4.407   3.398 -1.4478 -2.3043  0.2645
12444TIP3   OH258822   5.835   6.016   3.564 -0.3912 -0.2181  0.0973
12444TIP3    H158823   5.763   5.954   3.577 -0.9123  0.4275  0.3488
12444TIP3    H258824   5.897   5.995   3.635 -0.3361 -0.7571 -0.1046
12445TIP3   OH258825   2.405   2.475  11.086 -0.1421 -0.7900 -0.1080
12445TIP3    H158826   2.324   2.478  11.037  0.7370 -0.8324 -1.6269
12445TIP3    H258827   2.474   2.492  11.021  1.1486 -1.9610  0.8739
12446TIP3   OH258828   3.799   4.661  10.988 -0.1347 -0.5203  0.3960
12446TIP3    H158829   3.708   4.633  10.997 -0.0109 -0.7343  1.0584
12446TIP3    H258830   3.850   4.579  10.992  0.4225 -0.2409  4.8041
12447TIP3   OH258831   2.676   5.145  16.778  0.7537 -0.0945  0.0205
12447TIP3    H158832   2.599   5.126  16.832  1.5623 -3.1492  0.3140
12447TIP3    H258833   2.747   5.156  16.840  0.7774  1.7331 -0.2893
12448TIP3   OH258834   1.794   1.590   4.932 -0.3049 -0.9694  0.3189
12448TIP3    H158835   1.717   1.599   4.876  0.0037  2.3942  0.1985
12448TIP3    H258836   1.760   1.565   5.017 -1.5253 -0.0939  0.1189
12449TIP3   OH258837   0.266   5.907   0.307  0.0883 -0.4367  0.4899
12449TIP3    H158838   0.288   5.992   0.345  0.1355 -0.2549  0.0641
12449TIP3    H258839   0.349   5.875   0.270  0.1839 -0.8984  1.0822
12450TIP3   OH258840   6.695   3.442   0.989  0.3209 -0.3311  0.8527
12450TIP3    H158841   6.720   3.481   1.072 -0.1155 -1.9121  1.7821
12450TIP3    H258842   6.600   3.431   0.996  0.3575 -1.0068  0.3977
12451TIP3   OH258843   0.711   1.241  11.585  0.0569  0.3630  0.3326
12451TIP3    H158844   0.647   1.312  11.598 -0.0184  0.1761  1.0377
12451TIP3    H258845   0.658   1.163  11.570  0.1440  0.6251 -1.5119
12452TIP3   OH258846   1.727   4.195  16.516 -0.7596 -0.5097 -0.4127
12452TIP3    H158847   1.663   4.146  16.567  0.5494 -3.0617 -1.0677
12452TIP3    H258848   1.712   4.167  16.425 -0.1556  0.5293 -0.8521
12453TIP3   OH258849   1.791   2.039  12.510  0.4941 -0.0003  0.1906
12453TIP3    H158850   1.805   2.016  12.418  0.7848 -1.2370  0.5155
12453TIP3    H258851   1.752   1.960  12.548 -2.4077  1.4730  0.5234
12454TIP3   OH258852   1.585   0.669   1.800 -0.2435 -0.2254 -0.0030
12454TIP3    H158853   1.494   0.675   1.771 -0.2680  1.3041  0.3212
12454TIP3    H258854   1.632   0.732   1.745  0.6072 -0.9438 -0.1141
12455TIP3   OH258855   4.991   0.274   4.684 -0.1165  0.2220  0.2304
12455TIP3    H158856   4.916   0.222   4.714  0.7492 -0.8206  0.6609
12455TIP3    H258857   5.013   0.330   4.759 -0.3371  0.3779  0.1781
12456TIP3   OH258858   0.301   3.963  16.740  0.0600  0.0931  0.0763
12456TIP3    H158859   0.378   3.928  16.783  0.4633 -0.1617 -0.8167
12456TIP3    H258860   0.334   4.036  16.687 -0.5416  0.8931  0.7840
12457TIP3   OH258861   1.210   3.629  11.219 -0.0689  0.0951 -0.3259
12457TIP3    H158862   1.165   3.565  11.163  0.3051 -1.0486  0.6256
12457TIP3    H258863   1.295   3.643  11.176  0.4715 -1.2583  0.2367
12458TIP3   OH258864   6.722   3.094  16.925 -0.4842 -0.2227  0.5542
12458TIP3    H158865   6.703   3.122  16.836  0.2204  2.2356  1.1163
12458TIP3    H258866   6.637   3.088  16.968 -0.6738  0.9169  0.3452
12459TIP3   OH258867   3.286   1.716   4.484  0.1537 -0.3953 -0.3563
12459TIP3    H158868   3.267   1.636   4.533 -2.3611 -0.7975 -1.8379
12459TIP3    H258869   3.242   1.785   4.534 -0.2457 -0.4125 -0.6830
12460TIP3   OH258870   0.694   0.091  16.485 -0.3995 -0.7180  0.0033
12460TIP3    H158871   0.744   0.010  16.497  0.9186 -0.1113 -1.1734
12460TIP3    H258872   0.758   0.161  16.497 -2.0478  0.4031  3.9708
12461TIP3   OH258873   4.339   0.531  14.090  0.1268 -0.2128  0.1285
12461TIP3    H158874   4.266   0.586  14.061  0.4795 -0.2378 -0.8574
12461TIP3    H258875   4.396   0.525  14.013  0.7094 -0.9424  0.6049
12462TIP3   OH258876   0.155   6.621  11.047  0.0349  0.7689 -0.2551
12462TIP3    H158877   0.090   6.652  10.984  1.5861  2.2635 -1.2084
12462TIP3    H258878   0.185   6.538  11.011 -0.1238  0.9101 -0.7186
12463TIP3   OH258879   5.372   5.767   5.748 -0.1357  0.3937 -0.2718
12463TIP3    H158880   5.316   5.738   5.820 -0.6143  2.1461  0.1075
12463TIP3    H258881   5.461   5.745   5.777 -0.2625  1.6015  1.1669
12464TIP3   OH258882   5.560   6.307  11.942 -0.1662 -0.0386 -0.1205
12464TIP3    H158883   5.575   6.401  11.930 -0.8954  0.3700  1.9245
12464TIP3    H258884   5.499   6.300  12.015  0.1576 -2.1325  0.0306
12465TIP3   OH258885   6.120   5.442   2.890  0.4450  0.2256 -0.1707
12465TIP3    H158886   6.150   5.490   2.967 -2.9720  0.0030  1.4857
12465TIP3    H258887   6.169   5.360   2.892  0.4879  0.2549  1.7754
12466TIP3   OH258888   1.694   0.162  11.640 -0.6310 -0.5679 -0.1328
12466TIP3    H158889   1.602   0.184  11.648 -0.6659  0.4230 -2.5691
12466TIP3    H258890   1.737   0.244  11.618  0.9113 -0.9763  1.1542
12467TIP3   OH258891   3.943   5.546  13.417 -0.1628 -0.4476  0.5797
12467TIP3    H158892   3.985   5.612  13.471 -0.9679 -0.4605  1.2472
12467TIP3    H258893   3.913   5.594  13.339  1.9261 -0.6292 -0.4045
12468TIP3   OH258894   5.419   5.568  13.789  0.6410 -0.2903  0.8871
12468TIP3    H158895   5.382   5.542  13.873 -1.0425  2.5259  1.1348
12468TIP3    H258896   5.371   5.647  13.765  2.1438 -0.1213 -1.9970
12469TIP3   OH258897   2.987   0.545  12.238 -0.1322 -0.1742 -0.1456
12469TIP3    H158898   3.005   0.637  12.258  3.2952 -0.6975 -0.3031
12469TIP3    H258899   2.945   0.547  12.152  1.9850  1.1948 -1.2270
12470TIP3   OH258900   4.468   2.504  16.397 -0.2675  0.3272 -0.4031
12470TIP3    H158901   4.551   2.500  16.350 -0.2214 -0.4992 -0.2769
12470TIP3    H258902   4.419   2.428  16.365  0.1944 -0.9189  1.6575
12471TIP3   OH258903   4.029   2.395  12.318  0.0915  0.1225  0.7043
12471TIP3    H158904   4.123   2.399  12.337  0.7347 -2.5724 -1.2787
12471TIP3    H258905   4.017   2.457  12.246  0.5026  0.0808  0.5931
12472TIP3   OH258906   4.194   2.412  12.931 -0.5528 -0.4795  0.7014
12472TIP3    H158907   4.198   2.508  12.923  1.0430 -0.5393  0.2906
12472TIP3    H258908   4.154   2.397  13.017 -0.9739  0.5478  0.7038
12473TIP3   OH258909   1.778   6.008   2.140 -0.7624 -0.1391 -0.2052
12473TIP3    H158910   1.746   6.007   2.050  1.5824  0.2447 -1.1104
12473TIP3    H258911   1.819   6.094   2.151  1.1086 -1.0271  0.3544
12474TIP3   OH258912   3.071   0.028  12.713 -0.2057 -0.0265 -0.5229
12474TIP3    H158913   3.064   0.034  12.618  0.6852 -2.8151 -0.8428
12474TIP3    H258914   2.993  -0.020  12.740 -0.8106  1.3434  0.3017
12475TIP3   OH258915   1.233   4.992   6.525  0.3990  0.8757  0.1774
12475TIP3    H158916   1.298   4.926   6.549  0.4516  0.7445 -0.3244
12475TIP3    H258917   1.184   4.953   6.453  0.2089  1.2489  0.0990
12476TIP3   OH258918   6.828   4.485   3.339  0.0767  0.7263 -0.3945
12476TIP3    H158919   6.777   4.487   3.258  0.9294  1.6288 -0.9258
12476TIP3    H258920   6.781   4.422   3.395 -1.3607  1.1908 -1.0225
12477TIP3   OH258921   3.508   1.785  12.174 -0.2195 -0.3357 -0.4924
12477TIP3    H158922   3.533   1.698  12.144  1.7685  0.0537 -0.1088
12477TIP3    H258923   3.588   1.821  12.213 -0.9922  1.6527 -0.6094
12478TIP3   OH258924   5.192   6.476   0.030  0.1470 -0.4010  0.2063
12478TIP3    H158925   5.101   6.500   0.012  1.1742  2.7046 -1.3795
12478TIP3    H258926   5.224   6.438  -0.051  0.6162 -0.2865  0.3339
12479TIP3   OH258927   3.102   6.077   4.774  0.3376 -0.4764 -0.2438
12479TIP3    H158928   3.093   6.034   4.689 -0.8789 -0.1695 -0.2901
12479TIP3    H258929   3.064   6.014   4.836 -0.0311 -0.1305 -0.1135
12480TIP3   OH258930   2.367   0.323   4.518  0.1052  0.0756  0.2056
12480TIP3    H158931   2.399   0.408   4.489  0.3754 -0.2571 -0.4972
12480TIP3    H258932   2.283   0.313   4.473  0.7101 -0.6165 -0.8165
12481TIP3   OH258933   3.170   3.405  13.911  0.0906 -0.7615  0.2518
12481TIP3    H158934   3.191   3.337  13.848 -1.0963 -0.4853 -0.4729
12481TIP3    H258935   3.129   3.358  13.984  1.5839 -1.0952  0.9086
12482TIP3   OH258936   5.708   0.337   6.102  0.0960 -0.2023  0.1885
12482TIP3    H158937   5.672   0.254   6.072 -1.1647 -0.1650  1.4973
12482TIP3    H258938   5.802   0.322   6.109 -0.2074 -1.8446  1.3462
12483TIP3   OH258939   2.850   1.379   2.454 -0.0658  0.3541 -0.7713
12483TIP3    H158940   2.771   1.328   2.469  1.3736 -2.8578 -2.8870
12483TIP3    H258941   2.892   1.337   2.378  3.0314  2.6651 -0.5580
12484TIP3   OH258942   1.179   4.359   0.456  0.3060 -0.4501 -0.4768
12484TIP3    H158943   1.111   4.311   0.503  0.1303 -0.1031 -0.3722
12484TIP3    H258944   1.173   4.327   0.366 -0.6598  0.2743 -0.6961
12485TIP3   OH258945   1.569   2.033  10.754  0.5797 -0.1541 -0.4682
12485TIP3    H158946   1.501   2.001  10.814  0.2943 -1.5339 -1.4805
12485TIP3    H258947   1.650   1.998  10.789  0.8276  1.4697  0.7249
12486TIP3   OH258948   2.742   5.677   0.016 -0.1663  0.0803 -0.0500
12486TIP3    H158949   2.650   5.671   0.042 -0.1799  0.7496  0.0691
12486TIP3    H258950   2.741   5.731  -0.063  0.0391 -0.6554 -0.5677
12487TIP3   OH258951   3.444   3.318   4.473  0.2106 -0.2332 -0.1664
12487TIP3    H158952   3.462   3.225   4.459  0.7584  0.1306 -2.1090
12487TIP3    H258953   3.530   3.358   4.481  0.0254  0.3311 -0.9640
12488TIP3   OH258954   4.526   2.785   0.383 -0.0131  0.7662 -0.2097
12488TIP3    H158955   4.548   2.720   0.451  0.3563  0.8972 -0.1997
12488TIP3    H258956   4.440   2.758   0.351  0.8537 -0.7856 -1.4211
12489TIP3   OH258957   2.220   2.420  13.203  0.0161  0.2025 -0.1785
12489TIP3    H158958   2.243   2.375  13.121  3.0242  0.1629  0.5656
12489TIP3    H258959   2.128   2.398  13.217  0.2039 -2.2454 -2.0046
12490TIP3   OH258960   5.213   6.432  13.438 -0.2402 -0.0026 -0.5650
12490TIP3    H158961   5.216   6.517  13.483  0.1739  0.6206 -1.7078
12490TIP3    H258962   5.303   6.399  13.444 -0.4150 -0.3920 -0.0703
12491TIP3   OH258963   1.940   3.542  11.307  0.0710 -0.1408  0.2455
12491TIP3    H158964   1.946   3.489  11.228 -2.3259 -1.2548  0.7015
12491TIP3    H258965   1.977   3.487  11.376 -3.1149 -1.7802  0.8660
12492TIP3   OH258966   3.697   1.882  13.670 -0.0713 -0.0227 -0.2661
12492TIP3    H158967   3.724   1.848  13.584 -0.2734  0.3372 -0.4716
12492TIP3    H258968   3.771   1.863  13.727  0.3936  0.4658 -0.7016
12493TIP3   OH258969   2.374   3.480   0.464 -0.3581  0.2341 -0.5168
12493TIP3    H158970   2.343   3.462   0.375 -0.2901 -2.4392 -0.0662
12493TIP3    H258971   2.460   3.440   0.468  0.0610  1.1741  0.5012
12494TIP3   OH258972   3.942   3.184   5.767 -1.2048 -0.0317  0.1094
12494TIP3    H158973   3.940   3.234   5.848 -1.0066  1.5978 -0.8539
12494TIP3    H258974   4.018   3.126   5.777 -1.5326 -0.2993  1.3023
12495TIP3   OH258975   1.180   0.881   1.094  0.1424  0.4520 -0.3671
12495TIP3    H158976   1.148   0.830   1.019  1.2298 -0.6986 -0.0933
12495TIP3    H258977   1.270   0.850   1.107 -0.4696 -0.4208  2.3041
12496TIP3   OH258978   1.659   2.179   1.420 -0.1808  0.1068 -0.2726
12496TIP3    H158979   1.601   2.238   1.468 -0.3927 -0.4181  0.1324
12496TIP3    H258980   1.715   2.141   1.488 -0.6388 -0.8285 -0.3984
12497TIP3   OH258981   2.385   6.348   4.100  0.1642 -0.5345 -0.5718
12497TIP3    H158982   2.451   6.339   4.031  0.1412  0.3896 -0.7199
12497TIP3    H258983   2.309   6.300   4.067 -0.1215  0.5543 -1.5531
12498TIP3   OH258984   1.911   4.080  14.081  0.4419  0.3710  0.4464
12498TIP3    H158985   1.925   3.987  14.063  2.8604  0.7658 -0.0946
12498TIP3    H258986   1.974   4.101  14.150 -0.7795  1.4124  1.2797
12499TIP3   OH258987   4.071   4.323  13.229  0.2244  0.4031 -0.4943
12499TIP3    H158988   4.000   4.259  13.239 -0.0198  0.1397 -3.2053
12499TIP3    H258989   4.143   4.272  13.192  0.7260  1.3074 -0.7804
12500TIP3   OH258990   4.058   3.361   0.120  0.1498  0.4292 -0.0182
12500TIP3    H158991   4.087   3.351   0.210  1.4941 -1.9420 -0.6416
12500TIP3    H258992   4.083   3.280   0.077 -1.1930  1.1498 -2.3596
12501TIP3   OH258993   0.728   6.215   2.074 -0.0603  0.0718 -0.3533
12501TIP3    H158994   0.754   6.143   2.017  1.1076  0.6527 -0.5866
12501TIP3    H258995   0.736   6.293   2.019  1.0473  0.6388  0.5850
12502TIP3   OH258996   2.487   6.442   2.537 -0.1551  0.2814 -0.1765
12502TIP3    H158997   2.546   6.376   2.574  0.7461  1.1194 -0.0997
12502TIP3    H258998   2.410   6.391   2.509  0.2657 -0.7216  0.4121
12503TIP3   OH258999   2.466   2.768  10.787 -0.4640 -0.2796  0.0654
12503TIP3    H159000   2.396   2.809  10.837 -0.9700 -0.4724 -0.4669
12503TIP3    H259001   2.528   2.839  10.769 -1.2574  0.2318 -0.7175
12504TIP3   OH259002   6.567   3.706   4.467  0.0768 -0.0429 -0.3560
12504TIP3    H159003   6.534   3.653   4.394  0.4992  0.1617 -0.6976
12504TIP3    H259004   6.639   3.655   4.503  1.1767  0.7570 -1.3471
12505TIP3   OH259005   2.114   2.393   3.629 -0.0757 -0.3794 -0.7211
12505TIP3    H159006   2.144   2.457   3.694  1.3742 -2.5311  0.8608
12505TIP3    H259007   2.173   2.404   3.555  1.0362 -0.7334  0.0845
12506TIP3   OH259008   0.306   0.423  11.922 -0.4521 -0.2649  0.3775
12506TIP3    H159009   0.373   0.487  11.944 -0.8196  0.6616 -1.0204
12506TIP3    H259010   0.275   0.390  12.006  0.6164  0.4910  1.0864
12507TIP3   OH259011   0.117   4.057   0.656  0.1652 -0.6730  0.3785
12507TIP3    H159012   0.209   4.030   0.653  0.5439  0.6236 -0.2473
12507TIP3    H259013   0.098   4.090   0.568 -0.5429  0.1909  0.8338
12508TIP3   OH259014   2.983   3.079  16.013 -0.1436 -0.3070  0.6652
12508TIP3    H159015   3.032   3.015  16.064  0.2168 -2.6253 -2.3262
12508TIP3    H259016   2.905   3.096  16.066  1.6145 -0.0649  3.3847
12509TIP3   OH259017   2.765   1.557  17.047 -0.5803 -0.4185 -0.4847
12509TIP3    H159018   2.712   1.508  17.110  1.0833  0.2553  1.5555
12509TIP3    H259019   2.852   1.561  17.087  0.5956  0.0186 -2.8845
12510TIP3   OH259020   4.244   6.149   6.475 -0.4175  0.4539  0.1189
12510TIP3    H159021   4.248   6.090   6.550 -0.7869  0.8794  0.4832
12510TIP3    H259022   4.215   6.094   6.402 -0.3659  0.1025  0.3620
12511TIP3   OH259023   5.095   4.918   0.650 -0.0899  0.0108 -0.0783
12511TIP3    H159024   5.105   4.826   0.628  1.0078  0.5711 -2.1531
12511TIP3    H259025   5.127   4.925   0.740 -0.5568 -1.6646  0.2530
12512TIP3   OH259026   5.845   4.220   4.688  0.6413 -0.1731  0.0151
12512TIP3    H159027   5.901   4.179   4.754  0.3389 -1.5923 -0.5674
12512TIP3    H259028   5.793   4.148   4.653  0.3912  0.6422 -1.3776
12513TIP3   OH259029   0.888   5.524  12.756  0.6145  0.0371  0.0241
12513TIP3    H159030   0.852   5.455  12.700  1.7621  0.1871 -0.9293
12513TIP3    H259031   0.970   5.487  12.789  1.0794  0.8060 -0.2374
12514TIP3   OH259032   2.330   5.460  11.294  0.2224  1.0564 -0.1309
12514TIP3    H159033   2.385   5.456  11.216 -1.4629 -2.7018 -1.3696
12514TIP3    H259034   2.369   5.398  11.355  0.2348  2.2846  1.1869
12515TIP3   OH259035   4.100   0.486  14.806 -1.0517  0.3424 -0.4005
12515TIP3    H159036   4.078   0.576  14.784 -1.8730  0.0812 -0.6877
12515TIP3    H259037   4.088   0.437  14.725 -1.4145 -0.1621 -0.0517
12516TIP3   OH259038   0.932   4.639   4.148 -0.1684  0.1262  0.2674
12516TIP3    H159039   0.960   4.585   4.222 -0.8738  0.9311  1.1507
12516TIP3    H259040   0.837   4.640   4.154 -0.2335  0.1315 -0.7059
12517TIP3   OH259041   3.954   2.577  11.814  0.5550 -0.0783  0.2987
12517TIP3    H159042   3.999   2.533  11.886  1.8818 -0.4917 -0.7361
12517TIP3    H259043   3.867   2.537  11.812 -0.2031  1.2290  2.7890
12518TIP3   OH259044   2.735   6.582  14.854 -0.4928 -0.4980  0.6969
12518TIP3    H159045   2.782   6.664  14.868 -2.1478  1.3842 -3.3925
12518TIP3    H259046   2.801   6.514  14.867  2.3986  1.7831 -0.9476
12519TIP3   OH259047   2.141   5.230  11.688 -0.0189  0.1504  0.1717
12519TIP3    H159048   2.211   5.270  11.740  0.2544  0.0385 -0.1105
12519TIP3    H259049   2.066   5.227  11.748 -0.2559  1.7035 -0.0081
12520TIP3   OH259050   4.566   1.605   1.973 -0.5460 -0.0396  0.2316
12520TIP3    H159051   4.549   1.699   1.971  0.1802  0.1643  2.0930
12520TIP3    H259052   4.569   1.580   1.880  1.1516  2.1238 -0.3883
12521TIP3   OH259053   2.294   2.945   3.685  0.4426 -0.5519 -0.3517
12521TIP3    H159054   2.386   2.942   3.711  0.6510  1.6704 -0.5749
12521TIP3    H259055   2.293   3.004   3.609 -1.0074 -1.6085 -1.2110
12522TIP3   OH259056   1.902   2.457   4.953  0.8311  0.3423 -0.4733
12522TIP3    H159057   1.847   2.489   4.881 -0.7209 -1.7911 -0.3201
12522TIP3    H259058   1.892   2.522   5.022 -1.6151  0.0141 -0.4409
12523TIP3   OH259059   4.083   1.275   4.245  0.3194 -0.0078 -0.0330
12523TIP3    H159060   4.116   1.187   4.224  1.6937  0.5594 -0.4042
12523TIP3    H259061   4.089   1.322   4.162 -1.8217  0.0583 -0.2033
12524TIP3   OH259062   4.385   1.042  14.808  0.1331  0.0335  0.4060
12524TIP3    H159063   4.390   0.964  14.753 -1.0530  0.4207 -0.2913
12524TIP3    H259064   4.370   1.114  14.746  0.8697  0.7660  1.0633
12525TIP3   OH259065   4.943   0.064   0.564 -0.3978  0.5506 -0.3725
12525TIP3    H159066   4.853   0.043   0.586 -0.2747  0.4585  0.0566
12525TIP3    H259067   4.953   0.156   0.589 -0.0028  0.2046  0.8217
12526TIP3   OH259068   2.951   6.601   3.847 -0.2122  0.4709 -0.3604
12526TIP3    H159069   3.042   6.571   3.851 -1.1554 -2.6518  0.7650
12526TIP3    H259070   2.950   6.681   3.900  1.5353 -0.6247  1.4922
12527TIP3   OH259071   3.748   0.159  15.659 -0.3690  0.1585 -0.2963
12527TIP3    H159072   3.691   0.126  15.590 -1.5912 -1.1867  1.2575
12527TIP3    H259073   3.707   0.241  15.687 -1.4856 -0.7071  0.6852
12528TIP3   OH259074   2.933   3.995  16.865  0.7405  0.0440  0.1805
12528TIP3    H159075   2.952   4.088  16.848  1.9878  0.1280  1.8246
12528TIP3    H259076   2.984   3.974  16.943 -1.7834 -1.2806  1.5926
12529TIP3   OH259077   2.939   1.282   3.446  0.2986 -0.1105 -0.2710
12529TIP3    H159078   2.897   1.200   3.422 -0.4048  0.6544 -1.8745
12529TIP3    H259079   2.943   1.331   3.363  1.7841  0.9851  0.4018
12530TIP3   OH259080   1.489   0.369   0.820 -0.2460  0.2872  0.3330
12530TIP3    H159081   1.416   0.409   0.868 -0.1416  0.5170  0.3024
12530TIP3    H259082   1.555   0.351   0.888  0.7597  2.4964  0.0431
12531TIP3   OH259083   0.912   2.604  11.359  0.1121 -0.5250 -0.1014
12531TIP3    H159084   0.863   2.636  11.283 -0.9154 -2.4868 -0.3339
12531TIP3    H259085   0.929   2.512  11.339  2.3972 -0.3430  0.7808
12532TIP3   OH259086   5.053   0.615   0.756 -0.7625  0.6622 -0.0034
12532TIP3    H159087   5.140   0.584   0.733 -0.3179  0.3456  1.9354
12532TIP3    H259088   5.001   0.602   0.677  1.0609  1.4109 -1.3823
12533TIP3   OH259089   2.694   4.253  15.915  0.0604 -0.1447  0.0959
12533TIP3    H159090   2.769   4.219  15.866  0.2315  0.6157 -0.1873
12533TIP3    H259091   2.633   4.284  15.848 -1.2200 -2.1454  0.2614
12534TIP3   OH259092   5.968   6.544  15.724 -0.1396 -0.3437  0.7551
12534TIP3    H159093   6.043   6.601  15.704 -0.2689 -0.2435  0.5533
12534TIP3    H259094   5.989   6.506  15.809  1.0228 -1.7871 -0.1316
12535TIP3   OH259095   3.048   5.989  14.366  0.0142  0.0513  0.5251
12535TIP3    H159096   3.073   5.968  14.276 -1.1442 -1.5773  0.5505
12535TIP3    H259097   2.979   6.055  14.356  1.1520  1.2666  0.3237
12536TIP3   OH259098   3.466   0.738  11.084 -0.2660  0.1101 -0.0126
12536TIP3    H159099   3.518   0.708  11.010  3.3394  3.0013  1.0723
12536TIP3    H259100   3.503   0.692  11.160 -0.4935  0.8881  0.5832
12537TIP3   OH259101   6.834   4.016   3.375  0.0557  0.1636  0.0985
12537TIP3    H159102   6.879   4.095   3.406  0.5934 -0.2417  0.3563
12537TIP3    H259103   6.881   3.944   3.416  1.0488 -0.4212 -1.9212
12538TIP3   OH259104   4.990   5.863  17.017 -0.0149  0.0866 -0.2845
12538TIP3    H159105   5.045   5.939  17.036 -1.1267  0.8413  0.0469
12538TIP3    H259106   4.992   5.811  17.098 -2.0867  1.6132  0.8426
12539TIP3   OH259107   0.934   2.733  10.885 -0.3514  0.2703 -0.0045
12539TIP3    H159108   0.976   2.760  10.804  0.2191 -0.8504 -0.0942
12539TIP3    H259109   0.845   2.710  10.860 -0.3825  0.5879 -0.1878
12540TIP3   OH259110   4.719   5.903  12.397 -0.5361 -0.1298 -0.2199
12540TIP3    H159111   4.682   5.967  12.459  3.4527  0.7378  1.6112
12540TIP3    H259112   4.701   5.941  12.311 -2.8843  0.6347  0.5163
12541TIP3   OH259113   4.696   5.528   0.620 -0.3216  0.1478  0.2856
12541TIP3    H159114   4.790   5.538   0.603 -0.3349 -0.0699  0.0918
12541TIP3    H259115   4.676   5.597   0.684 -0.5660  1.9734 -1.6352
12542TIP3   OH259116   3.130   2.354   5.564  0.0042  0.1124 -0.5594
12542TIP3    H159117   3.103   2.318   5.479 -2.0735 -0.2791  0.2293
12542TIP3    H259118   3.049   2.379   5.607  1.0742  0.9442  1.0646
12543TIP3   OH259119   1.978   4.914  13.444 -0.0949 -0.4069  0.3490
12543TIP3    H159120   1.961   4.824  13.472  0.6389 -0.3241  1.0809
12543TIP3    H259121   1.985   4.964  13.525 -0.2667  0.2800 -0.0454
12544TIP3   OH259122   2.367   4.876  15.535  0.0611 -0.2388  0.2695
12544TIP3    H159123   2.425   4.844  15.604  0.9468 -1.1223 -0.8386
12544TIP3    H259124   2.415   4.949  15.496 -0.4670  0.3023  0.6137
12545TIP3   OH259125   1.573   6.379  14.142  0.4173 -0.0303  0.4424
12545TIP3    H159126   1.646   6.437  14.119 -1.6010  1.9046 -1.5851
12545TIP3    H259127   1.546   6.409  14.229  0.2799  1.2153  0.0001
12546TIP3   OH259128   5.030   1.178  12.569  0.1319  0.4064  0.3184
12546TIP3    H159129   5.014   1.187  12.475  0.4766 -0.0352  0.2142
12546TIP3    H259130   5.074   1.094  12.578 -0.1061  0.3379  0.9033
12547TIP3   OH259131   4.775   1.589   4.807 -0.1348  0.2610  0.0392
12547TIP3    H159132   4.850   1.529   4.809 -0.0111  0.2800 -1.7365
12547TIP3    H259133   4.709   1.546   4.860  0.8342 -0.1654  0.9500
12548TIP3   OH259134   4.965   3.712  16.845  0.4905 -0.3910  0.0709
12548TIP3    H159135   5.059   3.699  16.835  0.2951 -2.0419  0.1512
12548TIP3    H259136   4.938   3.756  16.765  1.1143 -1.1558 -0.5706
12549TIP3   OH259137   6.040   5.742   0.419  0.1528 -0.1935  0.3717
12549TIP3    H159138   5.969   5.748   0.483  1.0696  1.2303  1.3308
12549TIP3    H259139   6.112   5.791   0.459  1.0945 -0.1137 -1.3288
12550TIP3   OH259140   2.264   6.831  12.024  0.1786 -0.5132 -0.4268
12550TIP3    H159141   2.337   6.892  12.020 -0.4312  0.1700 -2.0348
12550TIP3    H259142   2.240   6.816  11.932 -1.0621 -1.4925  0.0231
12551TIP3   OH259143   1.223   5.806  15.107 -0.5560  0.2463  0.5914
12551TIP3    H159144   1.261   5.892  15.128  2.6099 -0.5331 -1.2168
12551TIP3    H259145   1.165   5.824  15.033  0.0817  0.8593  0.2206
12552TIP3   OH259146   2.407   0.047   2.937 -0.1001 -0.2266  0.5072
12552TIP3    H159147   2.424   0.083   2.849 -0.1297  1.3131  1.1013
12552TIP3    H259148   2.334  -0.012   2.924 -0.2977  0.2034 -0.4706
12553TIP3   OH259149   6.216   1.340  13.840 -0.5117  0.2564  0.1912
12553TIP3    H159150   6.236   1.322  13.748 -0.7226  1.6725 -0.1611
12553TIP3    H259151   6.121   1.353  13.841 -0.6201 -0.4942  0.7660
12554TIP3   OH259152   3.643   3.612   3.782  0.6841  0.3599 -0.2770
12554TIP3    H159153   3.550   3.592   3.795  0.9710 -1.6720 -0.9883
12554TIP3    H259154   3.643   3.687   3.723 -0.5054  0.7397  0.1699
12555TIP3   OH259155   0.906   1.541  16.484 -0.1718 -0.2260 -0.5872
12555TIP3    H159156   0.846   1.547  16.558  1.7036 -3.4976  1.4517
12555TIP3    H259157   0.862   1.484  16.421 -1.1102  1.2914 -1.3614
12556TIP3   OH259158   0.202   5.329  13.401  0.0169  0.2788  0.4057
12556TIP3    H159159   0.173   5.408  13.446 -0.2071  0.6291 -0.3382
12556TIP3    H259160   0.155   5.330  13.317  0.9112 -0.0210 -0.1148
12557TIP3   OH259161   3.489   5.260   4.458  0.8450  0.0279  0.6299
12557TIP3    H159162   3.521   5.337   4.412  1.0820 -0.2494  0.3217
12557TIP3    H259163   3.413   5.231   4.406  1.0919 -0.2657  0.4282
12558TIP3   OH259164   5.580   2.294  16.418 -0.1259 -0.2692  0.0018
12558TIP3    H159165   5.657   2.299  16.362 -0.1527  1.8359  0.0972
12558TIP3    H259166   5.570   2.200  16.436  1.4357 -0.7323 -1.3242
12559TIP3   OH259167   5.359   1.955  13.454  0.4410  0.2348 -0.3397
12559TIP3    H159168   5.268   1.979  13.471 -0.3620 -1.4469 -1.9265
12559TIP3    H259169   5.408   2.037  13.464 -1.4214  1.4598 -0.7489
12560TIP3   OH259170   6.595   1.909  15.647 -0.9159  0.0691  0.0197
12560TIP3    H159171   6.674   1.908  15.701 -0.6603  0.2170 -0.3530
12560TIP3    H259172   6.534   1.963  15.696 -0.5092  0.6271 -0.0850
12561TIP3   OH259173   6.834   2.967  12.717 -0.2194  0.1925 -0.1251
12561TIP3    H159174   6.797   3.053  12.737 -0.8686  0.7672 -3.2162
12561TIP3    H259175   6.884   2.981  12.636  1.9358 -1.8258  0.7450
12562TIP3   OH259176   1.634   2.266  13.865 -0.2576 -0.7552 -0.0700
12562TIP3    H159177   1.546   2.282  13.831  1.0079  1.8697 -2.4747
12562TIP3    H259178   1.648   2.336  13.929  0.6467 -0.1618 -0.9065
12563TIP3   OH259179   4.731   5.564   4.953  0.1382 -0.0307  0.0706
12563TIP3    H159180   4.727   5.574   5.048 -0.1617 -0.1839  0.0765
12563TIP3    H259181   4.696   5.647   4.919  1.5696  0.5958  0.0746
12564TIP3   OH259182   4.693   3.485   2.991 -0.2111  0.3430 -0.6185
12564TIP3    H159183   4.606   3.464   2.957 -0.1601  1.5953 -1.6142
12564TIP3    H259184   4.743   3.404   2.980 -0.5837  0.3064 -2.3149
12565TIP3   OH259185   1.974   4.211  16.271 -0.3753 -0.0611 -0.3072
12565TIP3    H159186   1.942   4.127  16.303  1.8971 -0.7345  0.3656
12565TIP3    H259187   2.061   4.220  16.310  0.1776  1.7612 -1.8212
12566TIP3   OH259188   1.051   2.448   3.850 -0.1704 -0.9213 -0.2222
12566TIP3    H159189   0.985   2.389   3.815  0.4829 -0.6164 -2.0687
12566TIP3    H259190   1.125   2.441   3.789  0.6517  0.3713  0.5731
12567TIP3   OH259191   4.175   2.288  15.858 -0.7791  0.4461 -0.2979
12567TIP3    H159192   4.124   2.280  15.777 -0.6542  2.7916 -0.6806
12567TIP3    H259193   4.182   2.199  15.891 -4.0376 -0.1541 -0.8850
12568TIP3   OH259194   4.752   5.413  16.531  0.2141  0.3861 -0.1996
12568TIP3    H159195   4.738   5.414  16.436  0.7426  1.2710 -0.2768
12568TIP3    H259196   4.717   5.496  16.562 -0.2052 -0.0164  0.4285
12569TIP3   OH259197   6.123   4.554  11.411 -0.4176  0.4138  0.1716
12569TIP3    H159198   6.203   4.504  11.396 -1.5337 -1.0694 -1.1189
12569TIP3    H259199   6.135   4.593  11.498  0.6063 -1.9131  1.1513
12570TIP3   OH259200   6.071   1.059   6.024  0.4430  0.0625 -0.2698
12570TIP3    H159201   6.039   1.125   6.086 -0.0589 -0.0029 -0.4553
12570TIP3    H259202   6.163   1.045   6.049 -0.0848 -0.8865  1.2753
12571TIP3   OH259203   6.752   2.199  14.170 -0.7117 -0.2938  0.1307
12571TIP3    H159204   6.713   2.216  14.256 -0.6214 -0.1144  0.1365
12571TIP3    H259205   6.693   2.243  14.108  0.3609  1.4066  0.2593
12572TIP3   OH259206   1.863   4.925   2.982  0.8839 -0.2754 -0.1644
12572TIP3    H159207   1.829   5.014   2.992  1.2829  0.1553 -2.2311
12572TIP3    H259208   1.800   4.870   3.029  0.1751  1.0085  0.4365
12573TIP3   OH259209   0.769   3.492   6.459  0.5325 -0.0042 -0.0440
12573TIP3    H159210   0.692   3.503   6.404 -0.0539  1.5887  0.9980
12573TIP3    H259211   0.743   3.431   6.527  0.2730  0.2915  0.1257
12574TIP3   OH259212   1.536   3.587  15.634  0.1929  0.3856  0.2094
12574TIP3    H159213   1.536   3.492  15.638  0.4567  0.4209  1.6574
12574TIP3    H259214   1.552   3.608  15.542  0.4268 -0.9653 -0.0695
12575TIP3   OH259215   4.226   2.658  16.400  0.9381  0.4422  0.3600
12575TIP3    H159216   4.221   2.671  16.306 -0.3206 -2.1029 -0.0023
12575TIP3    H259217   4.301   2.599  16.412  1.8464  1.7074  1.1100
12576TIP3   OH259218   6.553   3.684   0.075 -0.5234 -0.4749 -0.0862
12576TIP3    H159219   6.494   3.753   0.106  0.9301  1.3898 -1.2798
12576TIP3    H259220   6.612   3.668   0.150  0.4080  1.0983 -0.4330
12577TIP3   OH259221   3.699   6.355  12.312 -0.3112  0.1008  0.1925
12577TIP3    H159222   3.709   6.339  12.219  1.0096 -0.6745  0.4357
12577TIP3    H259223   3.659   6.442  12.318 -0.4163  0.1488 -1.0915
12578TIP3   OH259224   3.884   0.522  13.463 -0.1803  0.2319  0.7326
12578TIP3    H159225   3.854   0.433  13.448 -1.5802  0.6317  0.9977
12578TIP3    H259226   3.978   0.518  13.451 -0.1490 -1.3904  1.2923
12579TIP3   OH259227   1.873   0.428  15.235  0.0796 -0.1998  0.2849
12579TIP3    H159228   1.872   0.417  15.140 -0.3412  1.9771 -0.0199
12579TIP3    H259229   1.819   0.506  15.250  1.8017  0.7326  2.0979
12580TIP3   OH259230   0.941   2.405  14.270 -0.0688  0.1223 -0.4053
12580TIP3    H159231   0.889   2.376  14.195  1.2773 -1.3994 -0.8146
12580TIP3    H259232   0.895   2.370  14.347 -0.2820 -0.2308 -0.6911
12581TIP3   OH259233   5.506   2.928   2.197  0.0651 -0.5410  0.3040
12581TIP3    H159234   5.568   2.964   2.134 -1.4228  0.0734 -0.8868
12581TIP3    H259235   5.423   2.926   2.150 -1.1947  0.2338  2.3489
12582TIP3   OH259236   4.719   5.692  13.904 -0.3305  0.2730 -0.3774
12582TIP3    H159237   4.635   5.714  13.864  0.1865  0.7955 -1.1934
12582TIP3    H259238   4.734   5.600  13.878  0.4699  0.8867 -2.2968
12583TIP3   OH259239   3.740   5.936  13.948 -0.2779 -0.5525 -0.7206
12583TIP3    H159240   3.773   5.976  14.029  2.0906 -3.0749 -0.2845
12583TIP3    H259241   3.778   5.988  13.878  0.0786 -0.0815 -0.1857
12584TIP3   OH259242   6.464   2.707   4.472  0.0451 -0.2389 -0.3765
12584TIP3    H159243   6.531   2.729   4.537 -0.7483  1.2096 -0.0106
12584TIP3    H259244   6.510   2.710   4.388  0.7960 -0.8802 -0.0025
12585TIP3   OH259245   2.349   3.600  14.718  0.0554 -0.7700  0.2508
12585TIP3    H159246   2.345   3.512  14.681  1.5701 -0.5666 -0.4693
12585TIP3    H259247   2.330   3.588  14.811 -1.8560 -1.5472 -0.2080
12586TIP3   OH259248   2.289   6.753   6.132  0.2465  0.0557 -0.3124
12586TIP3    H159249   2.283   6.726   6.223 -2.0287  0.3726 -0.3181
12586TIP3    H259250   2.283   6.672   6.081  0.2976 -0.0098 -0.2130
12587TIP3   OH259251   2.161   0.190  13.776  0.3275 -0.0740 -0.2588
12587TIP3    H159252   2.204   0.105  13.776  1.7191  0.5855 -1.1746
12587TIP3    H259253   2.216   0.244  13.833  1.4839  1.0876 -2.3192
12588TIP3   OH259254   4.923   0.109  12.590  0.4984 -0.0960  0.5655
12588TIP3    H159255   4.867   0.161  12.532 -0.4766 -2.2738 -0.5725
12588TIP3    H259256   4.916   0.020  12.556  0.1689 -1.4560  3.8227
12589TIP3   OH259257   4.994   4.605   3.000 -0.2432  0.4627  0.1429
12589TIP3    H159258   4.958   4.692   2.984  0.7621  0.6602 -1.2229
12589TIP3    H259259   4.991   4.561   2.915 -0.5600 -0.7805  0.7711
12590TIP3   OH259260   0.731   3.228  12.999 -0.5476 -0.2706 -0.1822
12590TIP3    H159261   0.759   3.312  13.036 -1.3116 -0.3117  0.5142
12590TIP3    H259262   0.690   3.251  12.916  0.3135 -0.0821 -0.5679
12591TIP3   OH259263   0.777   5.665  11.355  0.1103  0.3406 -0.5742
12591TIP3    H159264   0.727   5.747  11.353 -0.3134  0.0804 -0.8803
12591TIP3    H259265   0.711   5.597  11.368  0.7340  0.2504  3.2863
12592TIP3   OH259266   6.540   5.923   0.875  0.2331  0.1476  0.5533
12592TIP3    H159267   6.457   5.955   0.840  0.9347  0.7150 -0.6601
12592TIP3    H259268   6.546   5.962   0.963  0.4903  2.4242 -0.4184
12593TIP3   OH259269   3.081   1.709   1.087 -0.3723  0.1155 -0.4242
12593TIP3    H159270   3.048   1.631   1.131 -0.6443  0.6620  0.3776
12593TIP3    H259271   3.107   1.679   1.000 -2.8473 -0.3910 -1.0675
12594TIP3   OH259272   1.048   1.327  12.244  0.2517 -0.3551  0.1008
12594TIP3    H159273   1.120   1.341  12.305  1.8715 -0.9265 -1.6244
12594TIP3    H259274   1.044   1.232  12.232 -0.7694 -0.3305  0.1281
12595TIP3   OH259275   3.917   2.677  16.740  0.2415  0.5751  0.2628
12595TIP3    H159276   3.925   2.729  16.660 -0.0705  0.0597 -0.1135
12595TIP3    H259277   3.995   2.700  16.791  1.3882 -0.3683 -0.9643
12596TIP3   OH259278   2.881   3.493  10.623 -0.3827 -0.1553  0.1537
12596TIP3    H159279   2.857   3.579  10.658 -2.4491 -0.8765  0.6525
12596TIP3    H259280   2.940   3.512  10.551 -0.3979  1.6618  0.5770
12597TIP3   OH259281   6.080   1.584   1.224  0.0393  0.6383 -0.9616
12597TIP3    H159282   6.104   1.498   1.260  0.6710  2.3715  3.3483
12597TIP3    H259283   5.988   1.576   1.201  0.4576 -1.5419 -2.2635
12598TIP3   OH259284   5.011   3.083   1.051  0.0912 -0.0756  0.1048
12598TIP3    H159285   5.018   2.989   1.071  0.6585 -0.0075  0.2322
12598TIP3    H259286   4.951   3.087   0.976 -1.3244 -0.4050  1.1595
12599TIP3   OH259287   3.686   4.779  13.841 -0.7134  0.0105 -0.1926
12599TIP3    H159288   3.593   4.799  13.849 -0.5392  0.8539 -0.2058
12599TIP3    H259289   3.723   4.853  13.791  0.0712  0.0005  0.3482
12600TIP3   OH259290   2.796   1.473   4.945  0.0102  0.1776 -0.0181
12600TIP3    H159291   2.871   1.523   4.978 -0.4108  1.6667 -1.1945
12600TIP3    H259292   2.722   1.501   4.999  0.1542 -0.8637  0.7623
12601TIP3   OH259293   5.873   6.375   5.579  0.1702  0.0163  0.2473
12601TIP3    H159294   5.820   6.454   5.583 -1.0988 -0.8305  1.4626
12601TIP3    H259295   5.869   6.347   5.488 -1.5240 -0.0298  0.3071
12602TIP3   OH259296   2.149   6.386   0.374  0.1635  0.3267  0.1524
12602TIP3    H159297   2.070   6.426   0.338 -0.7376 -1.2354  0.3237
12602TIP3    H259298   2.118   6.313   0.426  1.7040 -0.0022  0.6654
12603TIP3   OH259299   4.800   4.373  15.512 -0.4004 -0.3688  0.7197
12603TIP3    H159300   4.808   4.468  15.514 -0.2392 -0.4001  1.6089
12603TIP3    H259301   4.859   4.345  15.441 -1.4630  0.2813 -0.4737
12604TIP3   OH259302   2.018   1.881   1.824  0.7258  0.2702 -0.1968
12604TIP3    H159303   2.107   1.893   1.858  0.1396  0.5006  1.3292
12604TIP3    H259304   1.964   1.941   1.875 -0.1450  1.0531 -1.9610
12605TIP3   OH259305   0.822   4.805  14.301 -0.0591 -0.3621 -0.7926
12605TIP3    H159306   0.879   4.803  14.378  0.5619 -0.6981 -1.2561
12605TIP3    H259307   0.879   4.835  14.230 -1.3016  2.9386 -0.5835
12606TIP3   OH259308   5.984   2.782  12.942  0.4120 -0.5143  0.3832
12606TIP3    H159309   6.045   2.796  12.870 -2.3730  1.1101 -1.8795
12606TIP3    H259310   5.977   2.867  12.984 -0.9156 -0.4063 -0.0044
12607TIP3   OH259311   3.982   3.968  16.201 -0.4071 -0.2110  0.4098
12607TIP3    H159312   3.924   3.918  16.142 -0.3998 -0.4646  0.6144
12607TIP3    H259313   3.929   3.982  16.279 -0.2458 -0.3006  0.5350
12608TIP3   OH259314   2.666   3.029  11.083 -0.2662  0.2439  0.0570
12608TIP3    H159315   2.604   2.955  11.084  0.1040 -0.0659  0.4771
12608TIP3    H259316   2.620   3.099  11.129 -0.1734 -0.1019  0.6943
12609TIP3   OH259317   0.770   0.758   3.353  0.0767 -0.1497 -0.5575
12609TIP3    H159318   0.855   0.748   3.311  0.5397  0.2452  0.2672
12609TIP3    H259319   0.783   0.827   3.418 -0.7668 -0.3726 -0.1354
12610TIP3   OH259320   2.217   6.491   1.475 -0.3849 -0.4801 -0.2292
12610TIP3    H159321   2.235   6.466   1.384 -1.6242 -0.7841 -0.4135
12610TIP3    H259322   2.152   6.427   1.505  0.4343 -0.7438  1.0753
12611TIP3   OH259323   3.149   3.825   1.515 -0.0042  0.0124  0.1566
12611TIP3    H159324   3.171   3.917   1.500  0.6806 -0.3037 -0.9897
12611TIP3    H259325   3.234   3.782   1.525 -0.3586 -0.3471  1.7420
12612TIP3   OH259326   6.848   5.039  12.116  0.3057  0.2039  0.5776
12612TIP3    H159327   6.891   5.052  12.200  1.1714  0.6652  0.0755
12612TIP3    H259328   6.826   5.127  12.086 -0.1629  0.0311  0.4043
12613TIP3   OH259329   0.564   6.209  12.421  0.9051 -0.4199 -0.4945
12613TIP3    H159330   0.527   6.201  12.508  0.3972 -0.4672 -0.7084
12613TIP3    H259331   0.521   6.286  12.384  1.1990 -0.3337 -0.6643
12614TIP3   OH259332   4.915   2.161  11.808 -0.1909 -0.8047 -0.0621
12614TIP3    H159333   4.865   2.203  11.738 -1.4733 -1.5970  0.3317
12614TIP3    H259334   4.889   2.208  11.887 -0.1138 -1.0439  0.1076
12615TIP3   OH259335   1.472   2.352   0.017  0.4933 -0.5006 -0.3442
12615TIP3    H159336   1.526   2.273   0.015  0.1615 -0.7259 -0.6846
12615TIP3    H259337   1.385   2.322  -0.010  0.4031  0.0106 -0.6423
12616TIP3   OH259338   5.486   2.835  12.583  0.0669  0.2560 -0.2364
12616TIP3    H159339   5.530   2.797  12.660  1.5788  1.1886 -0.6061
12616TIP3    H259340   5.449   2.917  12.615  0.3376  0.4411 -0.3907
12617TIP3   OH259341   5.096   4.550  16.091 -0.6160  0.0683  0.0072
12617TIP3    H159342   5.189   4.542  16.068  0.0241  3.1844  1.0899
12617TIP3    H259343   5.068   4.630  16.047 -2.8132 -0.7530 -0.1969
12618TIP3   OH259344   2.934   2.757  15.665  0.7027 -0.5380 -0.5843
12618TIP3    H159345   2.887   2.840  15.664 -0.6133 -1.0759  2.6302
12618TIP3    H259346   3.026   2.781  15.672  0.6593  0.5475 -2.8817
12619TIP3   OH259347   1.459   5.119  15.031  0.8749  0.1076 -0.0745
12619TIP3    H159348   1.422   5.148  14.948  1.2139  1.0221  0.0840
12619TIP3    H259349   1.482   5.027  15.017 -0.5555 -0.2185 -0.4781
12620TIP3   OH259350   1.998   1.661   6.305 -0.1380  0.3489 -0.3735
12620TIP3    H159351   1.953   1.720   6.245 -0.4764 -0.4217 -0.9008
12620TIP3    H259352   2.051   1.718   6.361  0.0041  1.1045 -1.2593
12621TIP3   OH259353   3.482   5.344  11.244 -0.7228 -0.2799  0.6472
12621TIP3    H159354   3.567   5.387  11.238 -1.0454  0.1802 -1.3735
12621TIP3    H259355   3.420   5.417  11.255 -0.9911 -0.4682  0.3939
12622TIP3   OH259356   2.546   1.097   0.151  0.7603  0.5513  0.0385
12622TIP3    H159357   2.530   1.004   0.165 -0.4837  0.7435  0.0446
12622TIP3    H259358   2.592   1.126   0.230  1.3043 -0.0908 -0.0422
12623TIP3   OH259359   6.378   2.591   3.799  0.4234 -0.0811 -0.2751
12623TIP3    H159360   6.382   2.680   3.762  0.3387 -0.3395 -0.9292
12623TIP3    H259361   6.412   2.600   3.888 -1.0143  0.8877  0.2121
12624TIP3   OH259362   2.663   1.511  16.803  0.0006 -0.5724  0.4977
12624TIP3    H159363   2.689   1.550  16.886  0.8574 -1.6173  0.7262
12624TIP3    H259364   2.576   1.474  16.820 -0.8756  1.2345  0.2560
12625TIP3   OH259365   5.213   6.644   5.819  0.6507 -0.2540  0.6418
12625TIP3    H159366   5.265   6.693   5.883 -0.6872 -1.0612  2.4284
12625TIP3    H259367   5.122   6.661   5.844 -0.1055  1.8422 -2.9299
12626TIP3   OH259368   4.085   2.100   2.099 -0.3174  0.7040 -0.1450
12626TIP3    H159369   4.010   2.141   2.055  1.0380  2.9777 -0.5020
12626TIP3    H259370   4.111   2.164   2.166  2.1402  0.6717 -0.9577
12627TIP3   OH259371   2.296   5.367  16.234 -0.8581 -0.5823  0.0173
12627TIP3    H159372   2.213   5.320  16.244 -0.0692 -2.0860 -0.3328
12627TIP3    H259373   2.271   5.450  16.193 -2.2252 -0.8826  0.1987
12628TIP3   OH259374   3.407   2.375  10.889  0.3581  0.5151 -0.1975
12628TIP3    H159375   3.431   2.296  10.936  2.7339  1.8929  1.1224
12628TIP3    H259376   3.437   2.446  10.945 -1.1585  2.3710 -1.5891
12629TIP3   OH259377   3.173   5.065  13.620  0.0142  0.2398  0.0111
12629TIP3    H159378   3.185   5.156  13.649 -0.6682  0.5919 -0.7603
12629TIP3    H259379   3.257   5.042  13.580  0.6988  0.0085  1.5446
12630TIP3   OH259380   5.989   4.281   5.133  0.0956 -0.8322  0.0708
12630TIP3    H159381   5.906   4.307   5.093  0.6069  0.9372  0.0702
12630TIP3    H259382   5.965   4.256   5.222 -0.1487  2.9761  1.2660
12631TIP3   OH259383   1.180   2.911   2.561 -0.8419  0.2219  0.2196
12631TIP3    H159384   1.200   2.824   2.527 -1.8826 -0.6115  1.6514
12631TIP3    H259385   1.106   2.941   2.508 -0.6292  0.1564 -0.1225
12632TIP3   OH259386   1.395   3.973  16.869  0.2249  0.1624  0.0366
12632TIP3    H159387   1.303   3.987  16.847 -1.1661 -3.9287  2.1282
12632TIP3    H259388   1.408   4.020  16.951  0.0671  0.8925 -0.3537
12633TIP3   OH259389   5.845   0.005  16.770  0.6722  0.7553 -0.3874
12633TIP3    H159390   5.923   0.024  16.821  1.2928  1.4294 -1.5312
12633TIP3    H259391   5.872  -0.064  16.709  0.7377  1.7662 -1.5487
12634TIP3   OH259392   3.336   6.286  11.957  0.1381 -0.2826  0.4293
12634TIP3    H159393   3.403   6.260  11.893 -0.1750  1.9092 -0.8966
12634TIP3    H259394   3.378   6.353  12.010 -0.2922 -0.5329  1.0944
12635TIP3   OH259395   5.956   1.580  15.504 -0.5692  0.3900 -0.1995
12635TIP3    H159396   6.046   1.582  15.538  0.0368 -3.4306 -1.0898
12635TIP3    H259397   5.962   1.622  15.418  0.2116  0.7006 -0.0035
12636TIP3   OH259398   3.911   2.652  16.259 -0.2204 -1.0698 -0.2604
12636TIP3    H159399   3.823   2.624  16.232 -1.4767  0.0130  2.3731
12636TIP3    H259400   3.968   2.578  16.235 -1.6587 -1.5103 -2.6585
12637TIP3   OH259401   3.079   1.188  15.927  0.5030 -0.2546  0.2652
12637TIP3    H159402   3.004   1.180  15.867 -0.5163 -0.8658  1.5587
12637TIP3    H259403   3.144   1.128  15.891 -0.0668 -0.5710 -0.2642
12638TIP3   OH259404   0.526   4.303   0.468 -0.2635 -0.0917 -0.3248
12638TIP3    H159405   0.615   4.311   0.433  0.5826 -0.5679  1.6243
12638TIP3    H259406   0.480   4.379   0.432  1.2455  0.7954 -0.4713
12639TIP3   OH259407   0.824   2.581   4.561  0.0001 -0.3429  0.1726
12639TIP3    H159408   0.769   2.603   4.486  2.3218  0.2738 -1.4728
12639TIP3    H259409   0.788   2.499   4.595 -1.5729 -0.2332 -1.1404
12640TIP3   OH259410   4.727   4.748   6.644 -0.5954  0.2778 -0.1667
12640TIP3    H159411   4.691   4.738   6.732  1.5441 -0.3433  0.7106
12640TIP3    H259412   4.751   4.659   6.618  0.4989  0.6691 -0.5773
12641TIP3   OH259413   3.813   0.554  11.466  0.2477 -0.1400 -0.4297
12641TIP3    H159414   3.878   0.498  11.423  1.0951 -0.3298  1.0259
12641TIP3    H259415   3.802   0.515  11.553 -2.4138 -0.5559 -0.8654
12642TIP3   OH259416   2.557   6.823  13.640  0.0928  0.1475 -0.5326
12642TIP3    H159417   2.520   6.745  13.681  0.2743 -0.6921 -1.8868
12642TIP3    H259418   2.651   6.818  13.659 -0.2443  1.6330  1.8680
12643TIP3   OH259419   0.133   2.327   0.102  0.2887  0.2003  0.0982
12643TIP3    H159420   0.072   2.300   0.033  1.8197  0.0438 -1.2616
12643TIP3    H259421   0.176   2.404   0.066  1.5670 -0.2603  0.5914
12644TIP3   OH259422   5.509   0.123   5.131  0.0824 -0.2693 -0.0379
12644TIP3    H159423   5.544   0.093   5.046  0.5262 -1.7838  0.6526
12644TIP3    H259424   5.558   0.073   5.196  0.7744  1.9012  1.2147
12645TIP3   OH259425   0.219   5.545   4.513  0.0122 -0.8099  0.2380
12645TIP3    H159426   0.192   5.613   4.450 -0.0362 -0.1764  0.9228
12645TIP3    H259427   0.270   5.593   4.578 -0.8131 -1.2657  1.2387
12646TIP3   OH259428   0.741   1.963   0.905 -0.2089 -0.6596 -0.0406
12646TIP3    H159429   0.671   1.917   0.858 -0.6073 -0.4023  0.2978
12646TIP3    H259430   0.696   2.008   0.976  0.2684 -0.2620  0.0098
12647TIP3   OH259431   0.906   5.033   0.302 -0.0826 -0.9676  0.3290
12647TIP3    H159432   0.906   5.088   0.224 -2.0290  1.2754  1.7505
12647TIP3    H259433   0.850   4.959   0.279 -1.7801  0.3540 -0.0913
12648TIP3   OH259434   3.197   6.156  15.358  0.3948  0.3385 -0.7460
12648TIP3    H159435   3.268   6.114  15.308  0.2827 -1.1940  0.3332
12648TIP3    H259436   3.213   6.131  15.449 -0.1713  1.9898 -0.1524
12649TIP3   OH259437   6.125   0.766   0.444  1.0553 -0.7172  0.7094
12649TIP3    H159438   6.129   0.808   0.530  4.7639 -2.7886  1.7547
12649TIP3    H259439   6.116   0.673   0.463 -0.1420 -1.0509 -1.2624
12650TIP3   OH259440   3.383   4.373  11.712  0.0869  0.2230 -0.1282
12650TIP3    H159441   3.437   4.378  11.634 -0.5931 -0.7327 -0.6788
12650TIP3    H259442   3.361   4.281  11.721  0.5251  0.2291  1.4675
12651TIP3   OH259443   2.987   6.222  14.767 -0.3835 -0.0030  0.1317
12651TIP3    H159444   2.897   6.195  14.787 -0.3446 -1.6451 -1.6907
12651TIP3    H259445   3.023   6.151  14.715  1.4998  1.3045 -0.4571
12652TIP3   OH259446   5.235   4.134  13.671 -0.4507 -0.3509 -0.3277
12652TIP3    H159447   5.279   4.056  13.705 -1.1596 -0.7349 -0.2706
12652TIP3    H259448   5.142   4.119  13.689 -0.7107  0.0115 -1.3004
12653TIP3   OH259449   6.593   2.740   1.623 -0.0481  0.1889  0.2666
12653TIP3    H159450   6.547   2.670   1.669 -0.2630  0.4198  0.4085
12653TIP3    H259451   6.553   2.820   1.656 -0.3061  0.3566 -0.4345
12654TIP3   OH259452   4.278   6.591   5.857  0.4856 -0.5595 -0.2649
12654TIP3    H159453   4.279   6.635   5.772  0.3324  0.9968  0.4992
12654TIP3    H259454   4.359   6.618   5.899 -0.3610  0.3072  0.8539
12655TIP3   OH259455   0.000   1.584   2.343 -0.0607  0.4538 -0.8350
12655TIP3    H159456  -0.027   1.609   2.431  1.2253 -0.4006 -0.1677
12655TIP3    H259457   0.016   1.667   2.298 -2.4715  0.9432 -0.8730
12656TIP3   OH259458   1.750   0.463   1.544 -0.3084 -0.2083  0.1144
12656TIP3    H159459   1.680   0.522   1.514  0.5584 -0.1649 -2.0216
12656TIP3    H259460   1.756   0.397   1.475 -0.4191 -2.1355  1.8641
12657TIP3   OH259461   4.470   4.034  16.279 -0.2184  0.1153  0.4589
12657TIP3    H159462   4.390   3.981  16.273 -0.5062  0.4887  0.9962
12657TIP3    H259463   4.525   4.001  16.207 -0.7320 -0.3405  0.2636
12658TIP3   OH259464   0.997   1.724   2.663 -0.2822 -0.0922  0.2412
12658TIP3    H159465   0.977   1.648   2.717 -0.2117 -0.0934  0.2657
12658TIP3    H259466   0.985   1.694   2.573 -1.2359  0.1443  0.2768
12659TIP3   OH259467   0.076   2.860  14.943 -0.1253 -0.0545 -0.6393
12659TIP3    H159468   0.083   2.952  14.970 -0.4581 -0.4124  0.7613
12659TIP3    H259469   0.067   2.864  14.848 -1.6725  1.4522 -0.4907
12660TIP3   OH259470   2.248   6.131  15.992 -0.1401  0.3770  0.1165
12660TIP3    H159471   2.298   6.212  15.998  0.6350 -0.1872  1.7023
12660TIP3    H259472   2.159   6.156  16.016 -0.2906  1.0700 -1.1043
12661TIP3   OH259473   4.647   0.482   1.703 -0.1987 -0.8594 -0.2481
12661TIP3    H159474   4.628   0.450   1.615  1.6863 -4.5902  0.5125
12661TIP3    H259475   4.577   0.446   1.757  0.1628 -0.9079  0.1896
12662TIP3   OH259476   0.991   6.599  15.544 -0.2345 -0.0484 -0.2597
12662TIP3    H159477   1.071   6.555  15.516  0.1968 -0.4018  1.4330
12662TIP3    H259478   1.003   6.690  15.516  0.6201 -0.1556 -0.2727
12663TIP3   OH259479   1.639   6.574   2.859  0.2572  0.5207  0.2313
12663TIP3    H159480   1.602   6.658   2.884 -0.9082  0.6826 -1.8890
12663TIP3    H259481   1.571   6.531   2.807  1.1534 -1.3783  0.5089
12664TIP3   OH259482   5.965   0.849   0.704  0.3790 -0.2649 -0.1579
12664TIP3    H159483   5.894   0.794   0.670 -2.1232  2.0245  1.0180
12664TIP3    H259484   5.976   0.819   0.794 -0.2952  0.4535  0.1744
12665TIP3   OH259485   3.783   4.143   3.380  0.5736  0.0577  0.1852
12665TIP3    H159486   3.688   4.152   3.370  0.7075  1.2532 -0.1521
12665TIP3    H259487   3.801   4.177   3.468  0.8235  1.0244 -0.2275
12666TIP3   OH259488   1.815   5.355   1.905 -0.4353 -0.5833 -0.0814
12666TIP3    H159489   1.720   5.345   1.913 -0.4628  0.2023  0.6456
12666TIP3    H259490   1.827   5.397   1.820 -0.8150  0.2254  0.2479
12667TIP3   OH259491   6.204   2.735   5.690 -0.0237  0.2272  0.1213
12667TIP3    H159492   6.262   2.659   5.692  1.0566  1.0360  1.3714
12667TIP3    H259493   6.117   2.700   5.713  0.0623 -0.8974 -1.1766
12668TIP3   OH259494   4.598   3.995  10.795 -0.0525 -0.1558 -0.6239
12668TIP3    H159495   4.555   3.954  10.720 -0.1761 -0.2281 -0.5155
12668TIP3    H259496   4.560   4.083  10.800  0.4007  0.0665 -1.0119
12669TIP3   OH259497   2.256   6.756  17.088  0.2267  0.3398 -0.5272
12669TIP3    H159498   2.160   6.758  17.089  0.0874 -1.2935 -2.6167
12669TIP3    H259499   2.281   6.740  17.179 -1.5674 -0.6326 -0.1506
12670TIP3   OH259500   2.808   3.522  13.239  0.1662 -0.3565 -0.2859
12670TIP3    H159501   2.871   3.559  13.302 -1.1430  0.1659  0.7611
12670TIP3    H259502   2.786   3.595  13.182  0.1248 -0.4013 -0.3270
12671TIP3   OH259503   2.352   4.929   4.307  0.8633  0.2683  0.2002
12671TIP3    H159504   2.349   4.837   4.282 -0.0541  0.3432  0.0020
12671TIP3    H259505   2.396   4.929   4.392  1.4518 -0.2833 -0.1018
12672TIP3   OH259506   4.362   6.018  13.935 -0.7469  0.6684 -0.1417
12672TIP3    H159507   4.409   6.000  14.016  0.8397 -0.2197 -1.2093
12672TIP3    H259508   4.390   6.106  13.910  0.2229  0.2224 -0.6663
12673TIP3   OH259509   6.302   4.618   5.569  0.2203  0.2331  0.2216
12673TIP3    H159510   6.264   4.653   5.649 -0.1982 -0.6066  0.3955
12673TIP3    H259511   6.286   4.685   5.503 -1.0092  0.1609  0.4334
12674TIP3   OH259512   1.255   0.716   4.462 -0.2093  0.4406  0.0339
12674TIP3    H159513   1.348   0.700   4.474 -0.3202  0.4165  0.9335
12674TIP3    H259514   1.228   0.764   4.540 -1.1429 -0.3742  0.2454
12675TIP3   OH259515   4.048   5.482   5.147 -0.4836 -0.1478  0.1119
12675TIP3    H159516   4.135   5.468   5.108 -1.7469 -0.6364 -2.7974
12675TIP3    H259517   4.063   5.549   5.214  2.2345 -0.7277  0.2226
12676TIP3   OH259518   0.182   3.293   1.114  0.1680 -0.0547  0.3296
12676TIP3    H159519   0.114   3.270   1.177 -0.8277 -0.0439 -0.7205
12676TIP3    H259520   0.135   3.329   1.039  1.2851 -0.5879 -0.6617
12677TIP3   OH259521   1.393   1.131  13.245 -0.1400 -0.3997  0.4031
12677TIP3    H159522   1.487   1.116  13.238  0.3662  1.7142  1.8314
12677TIP3    H259523   1.372   1.189  13.172 -0.4801 -1.2589 -0.2090
12678TIP3   OH259524   5.361   5.934  14.800 -0.2571 -0.4070 -0.3161
12678TIP3    H159525   5.447   5.892  14.792 -0.7744 -1.6440  0.2587
12678TIP3    H259526   5.300   5.860  14.806 -1.3800  0.4556 -0.9237
12679TIP3   OH259527   6.343   0.454   0.528  0.7548 -0.7927 -0.3417
12679TIP3    H159528   6.331   0.444   0.623 -0.7868 -1.6714 -0.6010
12679TIP3    H259529   6.437   0.439   0.515  1.0502 -0.3209  1.0760
12680TIP3   OH259530   2.978   0.152  10.582  0.2331  0.0147 -0.0406
12680TIP3    H159531   2.979   0.229  10.639  2.1226 -1.6445  2.3829
12680TIP3    H259532   2.889   0.149  10.546 -0.2522  2.5691  0.7969
12681TIP3   OH259533   2.453   2.650  12.187  0.2835 -0.1117 -0.4547
12681TIP3    H159534   2.413   2.689  12.110  0.7326  0.8193 -0.2349
12681TIP3    H259535   2.538   2.693  12.195  0.4078 -0.4753  0.3328
12682TIP3   OH259536   1.326   5.112   5.865 -0.2550  0.0387  0.3882
12682TIP3    H159537   1.347   5.198   5.829 -0.1335 -0.5420 -0.9888
12682TIP3    H259538   1.403   5.089   5.918  0.2863  0.2348 -0.2948
12683TIP3   OH259539   4.450   5.378   5.523  0.3356 -0.9472  0.1214
12683TIP3    H159540   4.480   5.439   5.455 -0.7029 -0.6769 -0.1124
12683TIP3    H259541   4.527   5.365   5.579  0.6186  0.4983  0.1169
12684TIP3   OH259542   6.712   4.661  12.222  0.2149 -0.6344 -0.5900
12684TIP3    H159543   6.784   4.699  12.173  1.6025 -1.9775  0.3077
12684TIP3    H259544   6.634   4.682  12.171  1.2143  0.9058 -1.5629
12685TIP3   OH259545   5.697   1.780   0.031  0.2111  0.4622  0.3036
12685TIP3    H159546   5.711   1.820   0.116  2.0088 -0.0087  0.2722
12685TIP3    H259547   5.709   1.852  -0.032  0.3387  0.5073  0.3799
12686TIP3   OH259548   0.134   5.012   4.999  0.0244  0.4602 -0.3489
12686TIP3    H159549   0.164   4.978   4.915  2.4913  0.3772  0.4903
12686TIP3    H259550   0.214   5.031   5.048 -1.3232  0.9933  1.8102
12687TIP3   OH259551   5.927   1.380   2.106  0.1719  0.1649  0.0918
12687TIP3    H159552   5.978   1.410   2.181  0.0707  2.2038 -0.5867
12687TIP3    H259553   5.843   1.353   2.143  0.6247 -0.2154  0.8562
12688TIP3   OH259554   4.079   3.254  14.070 -0.6035 -0.4050  0.0754
12688TIP3    H159555   4.038   3.172  14.098  1.5405 -1.6609 -0.2017
12688TIP3    H259556   4.006   3.310  14.043 -2.1818 -1.9676  0.8841
12689TIP3   OH259557   3.937   3.466  16.035  0.0907 -0.4276  0.9732
12689TIP3    H159558   3.855   3.443  15.993  1.7652 -2.2396 -1.5670
12689TIP3    H259559   3.912   3.492  16.124 -3.1793 -0.8143  0.2753
12690TIP3   OH259560   1.770   5.242  11.944  0.0896  0.4780 -0.1417
12690TIP3    H159561   1.838   5.175  11.945 -2.2098 -2.0532  0.3928
12690TIP3    H259562   1.787   5.294  12.022  1.3270 -0.1848  0.0593
12691TIP3   OH259563   5.878   3.445  14.121  0.2210  0.5390  0.6435
12691TIP3    H159564   5.906   3.396  14.198  0.4570 -0.0180  0.2126
12691TIP3    H259565   5.848   3.529  14.155 -0.1656  0.1064  1.4016
12692TIP3   OH259566   5.286   3.391  13.375 -0.2133 -0.3600 -0.2575
12692TIP3    H159567   5.205   3.436  13.400 -0.3512  0.0686 -1.4251
12692TIP3    H259568   5.351   3.422  13.438 -1.3559 -2.2490  1.9827
12693TIP3   OH259569   1.027   2.978   4.802  0.4488 -0.0078  0.0848
12693TIP3    H159570   1.036   3.007   4.892  1.0347 -0.3570  0.1427
12693TIP3    H259571   0.989   2.890   4.808  0.0820  0.1392 -0.0302
12694TIP3   OH259572   5.414   4.513   3.494  0.4166  0.2376  0.5686
12694TIP3    H159573   5.376   4.425   3.486  1.4736 -0.4749  2.6089
12694TIP3    H259574   5.496   4.507   3.444 -0.1537  0.5138 -0.4274
12695TIP3   OH259575   4.676   5.162   0.339 -0.1254  0.3136 -0.0638
12695TIP3    H159576   4.623   5.184   0.416 -0.2955  1.8460 -0.5886
12695TIP3    H259577   4.617   5.178   0.265  0.1519 -0.8013 -0.5365
12696TIP3   OH259578   4.962   4.400  12.782  0.3466  0.4737 -0.2986
12696TIP3    H159579   5.005   4.457  12.847  0.6658 -0.4053  0.2806
12696TIP3    H259580   4.981   4.311  12.812 -1.3793  0.0441 -0.3542
12697TIP3   OH259581   6.436   5.758  14.107 -0.3464  0.5509 -0.2021
12697TIP3    H159582   6.432   5.755  14.011  1.5096  0.1368 -0.3029
12697TIP3    H259583   6.362   5.705  14.135 -0.3312 -0.1805 -1.4389
12698TIP3   OH259584   4.224   5.820   2.741  0.1428 -0.3517  0.1578
12698TIP3    H159585   4.219   5.905   2.697 -1.7744  0.2616  1.4234
12698TIP3    H259586   4.132   5.792   2.748  0.7694 -3.2239 -1.4575
12699TIP3   OH259587   3.286   4.004  14.411  0.2001 -0.0400 -0.3961
12699TIP3    H159588   3.292   3.910  14.394  0.8338  0.2145 -1.6582
12699TIP3    H259589   3.366   4.041  14.373  0.3700  0.9182  0.8191
12700TIP3   OH259590   2.789   4.512  17.117  0.1522  0.6331  0.1254
12700TIP3    H159591   2.829   4.439  17.163 -1.0383 -0.8511 -1.1102
12700TIP3    H259592   2.788   4.485  17.025 -1.4047  1.6705 -0.2002
12701TIP3   OH259593   2.639   4.513  11.577  0.2428  0.3602  0.0405
12701TIP3    H159594   2.630   4.536  11.670  1.4464  0.3281  0.1886
12701TIP3    H259595   2.567   4.452  11.560  1.1565 -1.2368  1.5041
12702TIP3   OH259596   5.896   0.960  13.644  0.2586 -0.1474  0.2165
12702TIP3    H159597   5.806   0.930  13.632  0.0886 -0.7609  2.5765
12702TIP3    H259598   5.890   1.056  13.643 -0.1319 -0.1633 -1.2526
12703TIP3   OH259599   3.206   6.327  11.458 -0.2726  0.4663  0.0442
12703TIP3    H159600   3.294   6.356  11.482  0.5526 -1.7980 -0.0313
12703TIP3    H259601   3.162   6.313  11.542 -0.2115  0.5660  0.0943
12704TIP3   OH259602   1.096   0.717   3.924 -0.2782 -0.2085  0.2258
12704TIP3    H159603   1.124   0.632   3.891 -0.5164 -1.8204  3.7153
12704TIP3    H259604   1.004   0.705   3.946 -0.3568  0.9950  0.6064
12705TIP3   OH259605   0.236   3.698   3.783 -0.3234  0.0364  0.2707
12705TIP3    H159606   0.317   3.670   3.741 -1.2225 -0.7814 -0.9750
12705TIP3    H259607   0.239   3.794   3.779  0.9044  0.0441  0.9051
12706TIP3   OH259608   4.544   0.279   5.669  0.2119 -0.1819  0.5330
12706TIP3    H159609   4.513   0.224   5.598 -1.2895  0.2567  0.8213
12706TIP3    H259610   4.504   0.242   5.748 -0.5932  1.1178  0.7677
12707TIP3   OH259611   4.983   6.787   0.820  0.2508  0.1523 -0.1788
12707TIP3    H159612   4.893   6.816   0.800 -0.1204  0.7143  2.0057
12707TIP3    H259613   5.031   6.801   0.739 -1.5654  0.0930 -1.3405
12708TIP3   OH259614   5.470   3.668   6.428  0.1365 -0.2762  0.1117
12708TIP3    H159615   5.470   3.728   6.503 -0.8412  1.4506 -1.2056
12708TIP3    H259616   5.540   3.701   6.371  0.1548 -0.9202 -0.2458
12709TIP3   OH259617   0.631   1.349  13.977 -0.0855 -0.1667 -0.4070
12709TIP3    H159618   0.547   1.380  14.011  0.0203 -1.3288  1.0232
12709TIP3    H259619   0.681   1.326  14.055  1.7561  0.9096 -1.2047
12710TIP3   OH259620   0.709   5.994   0.922  0.1837  0.4426  0.0038
12710TIP3    H159621   0.706   5.913   0.871 -0.6151  0.2540  0.3475
12710TIP3    H259622   0.709   6.063   0.855  2.6686  0.1864 -0.3742
12711TIP3   OH259623   2.349   3.371   6.858 -0.6325 -0.0569  0.2206
12711TIP3    H159624   2.317   3.451   6.816 -0.8844  0.2362  0.9745
12711TIP3    H259625   2.275   3.311   6.855 -0.7250  0.0459  0.4636
12712TIP3   OH259626   1.158   4.277  13.567 -0.3988  0.0461 -0.4848
12712TIP3    H159627   1.093   4.230  13.515 -1.3130 -0.2733  0.8839
12712TIP3    H259628   1.106   4.330  13.628  0.6331  1.1030 -0.4908
12713TIP3   OH259629   2.657   0.376  11.984  0.0813  0.7169 -0.1077
12713TIP3    H159630   2.738   0.396  11.937  0.0663  1.2326  0.0752
12713TIP3    H259631   2.592   0.435  11.946  0.1773  1.4641  0.8632
12714TIP3   OH259632   1.295   4.290  16.089  0.3568 -0.3424  0.4615
12714TIP3    H159633   1.230   4.295  16.159  1.0761  1.1030  1.0571
12714TIP3    H259634   1.311   4.196  16.078 -1.3537 -0.6883  0.7306
12715TIP3   OH259635   2.697   2.341  12.234  0.3083 -0.0290 -0.3774
12715TIP3    H159636   2.713   2.424  12.190  0.8598 -1.5838 -3.3693
12715TIP3    H259637   2.603   2.337  12.246  0.3287  1.2297  0.3022
12716TIP3   OH259638   6.393   6.554   5.293 -0.2738  0.3317  0.4357
12716TIP3    H159639   6.383   6.609   5.371  0.2661  0.2334  0.5783
12716TIP3    H259640   6.350   6.603   5.223 -1.2814  0.1599  0.9067
12717TIP3   OH259641   6.277   4.866  16.777 -0.2937  0.3618  0.3124
12717TIP3    H159642   6.301   4.932  16.713 -1.0180  0.0333 -0.3104
12717TIP3    H259643   6.329   4.888  16.855 -1.6080  2.5645  0.6487
12718TIP3   OH259644   1.788   1.776  16.192  0.3143 -0.4913  0.3397
12718TIP3    H159645   1.755   1.691  16.165 -1.2414  0.6840 -1.8237
12718TIP3    H259646   1.860   1.795  16.131 -0.1154  0.2042  0.0268
12719TIP3   OH259647   2.625   5.990  16.700 -0.3131  0.5411  0.1445
12719TIP3    H159648   2.605   5.898  16.679  0.8005  0.1235  0.8575
12719TIP3    H259649   2.580   6.040  16.631 -1.1753 -0.5145 -0.0914
12720TIP3   OH259650   5.491   2.820  13.426  0.0297  0.9051  0.0502
12720TIP3    H159651   5.573   2.797  13.471 -0.2284 -0.3712 -0.0945
12720TIP3    H259652   5.485   2.758  13.354 -0.7242  1.4510 -0.3690
12721TIP3   OH259653   2.251   0.976  15.231  0.0965 -0.1684  0.3555
12721TIP3    H159654   2.224   0.993  15.321  2.0987  1.3190  0.7664
12721TIP3    H259655   2.280   0.885  15.231 -2.6745 -1.1374  0.3956
12722TIP3   OH259656   4.815   1.469  16.900 -0.2149  0.6094  0.0185
12722TIP3    H159657   4.884   1.513  16.851  1.1235  0.6909  1.8659
12722TIP3    H259658   4.842   1.377  16.901 -0.5067  0.5259  0.1571
12723TIP3   OH259659   0.452   5.372   1.747 -0.8093 -0.3246 -0.0935
12723TIP3    H159660   0.407   5.451   1.778 -1.0064  0.0264 -1.2222
12723TIP3    H259661   0.407   5.350   1.665  0.7572 -0.2590 -0.9974
12724TIP3   OH259662   5.870   1.785   6.461 -0.8483  0.3755  0.6745
12724TIP3    H159663   5.781   1.756   6.481 -0.7861  0.8369  1.7048
12724TIP3    H259664   5.926   1.718   6.500 -0.7400  0.1486  0.1319
12725TIP3   OH259665   0.028   3.500   5.892  0.6989 -0.2878  0.2264
12725TIP3    H159666   0.104   3.446   5.870 -1.3493 -3.5491  0.5196
12725TIP3    H259667  -0.023   3.447   5.952 -0.6986  2.7992  2.0327
12726TIP3   OH259668   6.155   0.886  11.313  0.6110 -0.4745  0.2192
12726TIP3    H159669   6.164   0.968  11.263  1.1311 -0.8577 -0.3318
12726TIP3    H259670   6.062   0.883  11.336  0.2420 -0.5216 -1.1580
12727TIP3   OH259671   1.359   1.314  12.622  0.0585 -0.1461 -0.1066
12727TIP3    H159672   1.442   1.330  12.667 -0.0679 -1.3522  0.6029
12727TIP3    H259673   1.293   1.355  12.678 -0.1568 -2.0995  1.1675
12728TIP3   OH259674   4.908   4.156   4.705  0.1072  0.0438  0.0070
12728TIP3    H159675   4.995   4.173   4.668  0.6292  1.2195  1.6437
12728TIP3    H259676   4.909   4.063   4.729  1.0854  0.1413  0.3787
12729TIP3   OH259677   4.592   6.634  16.506 -0.4780  0.0904  0.1512
12729TIP3    H159678   4.573   6.610  16.415  1.3402 -0.9302 -0.0105
12729TIP3    H259679   4.541   6.714  16.521 -0.3094  0.6662 -1.9854
12730TIP3   OH259680   1.381   6.194   3.879 -0.0551 -1.0060 -0.5172
12730TIP3    H159681   1.408   6.134   3.810  1.3778 -1.1961  0.1583
12730TIP3    H259682   1.297   6.160   3.910  0.4344 -2.3273 -0.5662
12731TIP3   OH259683   6.300   4.598  16.497 -0.2657  0.2014  0.3123
12731TIP3    H159684   6.224   4.650  16.522 -1.8360 -1.0662 -1.4814
12731TIP3    H259685   6.264   4.529  16.441  2.5255  1.3143 -3.2203
12732TIP3   OH259686   3.727   4.369  12.867  0.0198  0.0734 -0.2628
12732TIP3    H159687   3.674   4.343  12.792 -0.1026  0.8468 -0.4545
12732TIP3    H259688   3.735   4.464  12.859  0.4673  0.1000  0.4016
12733TIP3   OH259689   5.741   5.321  13.173  1.2029  0.1144  0.0344
12733TIP3    H159690   5.704   5.285  13.253  1.3202  1.5206  0.7625
12733TIP3    H259691   5.667   5.366  13.131  1.2917 -0.0463 -0.2942
12734TIP3   OH259692   5.285   1.848   5.017 -0.2719 -0.3169 -0.0547
12734TIP3    H159693   5.192   1.870   5.007 -0.2802 -0.8133 -1.1943
12734TIP3    H259694   5.292   1.758   4.986  0.5407 -0.3884  0.3178
12735TIP3   OH259695   2.755   0.578   2.473 -0.2597 -0.2309  0.0513
12735TIP3    H159696   2.770   0.627   2.392 -1.4914  0.1515  0.0213
12735TIP3    H259697   2.665   0.602   2.498 -0.5146 -1.6682  0.5951
12736TIP3   OH259698   6.137   1.277   2.337  0.4507  0.2143  0.3219
12736TIP3    H159699   6.144   1.279   2.432  1.8563  1.0086  0.2242
12736TIP3    H259700   6.108   1.188   2.317  0.5195 -0.0749  1.4703
12737TIP3   OH259701   2.137   4.812  16.718 -0.2740  0.3694  0.3895
12737TIP3    H159702   2.176   4.899  16.706  0.5074 -0.1882 -1.3808
12737TIP3    H259703   2.208   4.760  16.756  0.4941 -0.3906 -1.9207
12738TIP3   OH259704   5.942   6.038   4.307  0.0892  0.1153 -0.6645
12738TIP3    H159705   5.851   6.041   4.277  0.5196  1.3406 -1.9695
12738TIP3    H259706   5.961   5.945   4.318 -1.0138 -0.2100 -1.3731
12739TIP3   OH259707   5.808   1.916  12.639 -0.1136  0.6780 -0.2746
12739TIP3    H159708   5.882   1.955  12.591  0.9006 -0.9154 -0.0979
12739TIP3    H259709   5.847   1.844  12.688 -1.9020 -0.6520 -0.7110
12740TIP3   OH259710   0.863   3.771   5.099 -0.3327  0.2060  0.3893
12740TIP3    H159711   0.821   3.699   5.146 -1.6751 -0.2993 -1.4838
12740TIP3    H259712   0.848   3.848   5.154 -2.0868 -0.3180  0.7022
12741TIP3   OH259713   5.960   2.897  15.099  0.2665 -0.0068 -0.4986
12741TIP3    H159714   5.960   2.933  15.187  1.1532 -1.9612  0.3705
12741TIP3    H259715   5.881   2.843  15.095 -0.3429  0.9166 -1.3056
12742TIP3   OH259716   5.747   5.834   2.274  0.0719 -0.0220  0.6749
12742TIP3    H159717   5.808   5.761   2.265 -1.4732 -1.1804 -1.4600
12742TIP3    H259718   5.662   5.793   2.290 -0.6484  1.3836  0.6409
12743TIP3   OH259719   2.643   6.263  12.277  0.0240 -0.5228  0.5736
12743TIP3    H159720   2.693   6.333  12.235 -0.9292 -0.6739 -0.8906
12743TIP3    H259721   2.653   6.188  12.218 -2.0593 -0.4966  0.1226
12744TIP3   OH259722   3.953   5.347  12.707  0.8303 -0.2433 -0.1714
12744TIP3    H159723   3.968   5.375  12.797 -0.2032  0.1507 -0.1008
12744TIP3    H259724   4.038   5.316  12.677  1.0625 -0.9299  1.1220
12745TIP3   OH259725   6.596   1.206  13.793 -0.2016 -0.3072 -0.1311
12745TIP3    H159726   6.658   1.262  13.746  0.2083 -1.0890 -0.5548
12745TIP3    H259727   6.547   1.162  13.723  1.4982 -2.7032  0.0622
12746TIP3   OH259728   2.411   5.640   2.344  0.1850  0.1754 -0.1103
12746TIP3    H159729   2.429   5.559   2.392  1.2890 -0.7839 -1.9871
12746TIP3    H259730   2.329   5.621   2.298  0.0336  0.4232  0.0594
12747TIP3   OH259731   1.800   6.500  14.070 -0.0487 -0.4965  0.7164
12747TIP3    H159732   1.813   6.562  13.998 -3.9026  1.5220  1.5059
12747TIP3    H259733   1.874   6.439  14.063  1.7022  1.7202 -2.6637
12748TIP3   OH259734   6.272   5.463   4.427  0.4392 -0.1403 -0.1290
12748TIP3    H159735   6.306   5.550   4.449  1.5374 -0.7279  0.6066
12748TIP3    H259736   6.349   5.414   4.398 -0.2513 -0.7328 -1.0180
12749TIP3   OH259737   0.227   6.368  13.465  0.3606 -0.1439  0.0837
12749TIP3    H159738   0.308   6.418  13.454 -0.3214  0.9475 -0.1708
12749TIP3    H259739   0.241   6.316  13.543  0.4576  1.8272  1.4717
12750TIP3   OH259740   2.571   5.160  14.131  0.2299 -0.0235  0.0776
12750TIP3    H159741   2.621   5.090  14.089 -1.1017 -0.9413 -0.0367
12750TIP3    H259742   2.631   5.235  14.133  0.8056 -0.3386 -2.2427
12751TIP3   OH259743   5.346   4.589   0.923  0.1180  0.9082 -0.8766
12751TIP3    H159744   5.433   4.550   0.921 -0.2412  0.0408 -0.3363
12751TIP3    H259745   5.357   4.676   0.885  1.2262  0.8279 -0.7570
12752TIP3   OH259746   6.806   2.953   0.634 -0.5213  0.4929  0.5007
12752TIP3    H159747   6.889   2.999   0.640 -0.4256  0.5141 -0.7445
12752TIP3    H259748   6.786   2.950   0.540 -0.7103 -1.6586  0.5587
12753TIP3   OH259749   2.644   1.517  14.810  0.0866 -0.5523  0.0217
12753TIP3    H159750   2.576   1.539  14.747  1.2960 -0.1879 -1.2155
12753TIP3    H259751   2.667   1.426  14.789  0.0272 -0.6529  0.3880
12754TIP3   OH259752   6.722   3.905   5.702 -0.1322 -0.2844 -0.4538
12754TIP3    H159753   6.660   3.978   5.693 -0.8299 -0.8434 -0.2712
12754TIP3    H259754   6.796   3.941   5.751 -0.5686  0.2431 -0.1817
12755TIP3   OH259755   4.658   0.068  15.514  0.0160 -0.0221  0.4917
12755TIP3    H159756   4.710   0.142  15.484  0.4714 -0.4545  0.1784
12755TIP3    H259757   4.572   0.079  15.473  0.4447 -0.2889 -0.5241
12756TIP3   OH259758   4.956   5.368  13.430 -0.1542 -0.2987 -0.4251
12756TIP3    H159759   4.945   5.347  13.337  1.8625 -0.6098 -0.6412
12756TIP3    H259760   5.010   5.297  13.464  0.2788  0.5179  0.6570
12757TIP3   OH259761   5.246   5.433  16.856 -0.6203  0.2847 -0.6513
12757TIP3    H159762   5.194   5.361  16.892  0.8000 -0.7789 -0.6649
12757TIP3    H259763   5.184   5.505  16.848 -1.9129 -0.7080  0.0524
12758TIP3   OH259764   0.847   4.902  13.321 -0.0700  0.6866  0.0720
12758TIP3    H159765   0.829   4.921  13.229 -2.1509 -1.5816 -0.1161
12758TIP3    H259766   0.938   4.874  13.324  0.6334  2.7363 -0.8919
12759TIP3   OH259767   6.469   0.852  16.994 -0.3300 -0.0149  0.1037
12759TIP3    H159768   6.468   0.761  17.024  1.3553  0.2638  1.1429
12759TIP3    H259769   6.378   0.881  17.002 -0.6675 -1.2416  0.9285
12760TIP3   OH259770   4.634   6.257  16.757 -0.3105  0.3741 -0.4696
12760TIP3    H159771   4.723   6.245  16.789  0.2885  2.1432 -1.3566
12760TIP3    H259772   4.632   6.214  16.672 -0.5699 -0.4123 -0.0714
12761TIP3   OH259773   1.329   4.429  12.173  0.2287 -0.2325 -0.6474
12761TIP3    H159774   1.324   4.422  12.077 -1.4008  0.6852 -0.6743
12761TIP3    H259775   1.414   4.391  12.195 -0.4947 -3.1234 -2.1982
12762TIP3   OH259776   1.275   5.928   2.722 -0.3986 -0.2676  0.2216
12762TIP3    H159777   1.238   5.929   2.633 -1.3903 -0.9256  0.6102
12762TIP3    H259778   1.368   5.945   2.709 -0.5867 -0.0087 -0.9181
12763TIP3   OH259779   5.143   3.018   4.341  0.0656  0.7212 -0.4914
12763TIP3    H159780   5.180   3.018   4.430  0.8277  1.0892 -0.8036
12763TIP3    H259781   5.050   3.035   4.355 -0.2792 -1.5937  0.3987
12764TIP3   OH259782   0.246   4.990   1.063  0.4327 -0.5281  0.3116
12764TIP3    H159783   0.191   5.067   1.076  1.4423  0.4802 -1.1009
12764TIP3    H259784   0.281   5.000   0.974 -0.4621 -3.3060 -0.4485
12765TIP3   OH259785   3.509   0.338  13.519 -0.0796 -0.2906 -0.1177
12765TIP3    H159786   3.544   0.251  13.540  0.9168 -0.0214 -0.5687
12765TIP3    H259787   3.521   0.389  13.598  0.9241 -0.0978 -0.3831
12766TIP3   OH259788   5.357   6.208   1.193  0.1037 -0.0733 -0.0775
12766TIP3    H159789   5.436   6.213   1.138  0.6882 -0.9193  0.6439
12766TIP3    H259790   5.284   6.210   1.131  0.7495 -1.2098 -0.9076
12767TIP3   OH259791   3.654   6.295  14.610  0.5411 -0.3550 -0.0952
12767TIP3    H159792   3.630   6.270  14.699  0.3105 -1.1510 -0.3789
12767TIP3    H259793   3.700   6.219  14.575 -1.5040 -1.0160 -1.4880
12768TIP3   OH259794   2.300   5.628  14.635 -0.0319  0.5411 -1.1240
12768TIP3    H159795   2.364   5.650  14.567  0.3012  0.2737 -0.9036
12768TIP3    H259796   2.270   5.713  14.668 -1.0735  0.6877 -2.3991
12769TIP3   OH259797   3.136   0.849  12.541  0.1811  0.0813  0.1255
12769TIP3    H159798   3.111   0.761  12.570  1.3121 -0.1594  0.4420
12769TIP3    H259799   3.076   0.907  12.587 -0.4738 -0.5149  0.0418
12770TIP3   OH259800   3.638   2.022  15.463  0.2378  0.0688  0.2385
12770TIP3    H159801   3.717   2.054  15.419  0.9760 -1.4269  0.4138
12770TIP3    H259802   3.645   1.927  15.458 -1.6136 -0.0963  0.1896
12771TIP3   OH259803   0.177   6.185   3.898 -0.0942  0.3534 -0.1515
12771TIP3    H159804   0.185   6.200   3.992 -0.7028 -2.6912  0.4737
12771TIP3    H259805   0.094   6.137   3.888  0.6191 -0.5729 -2.0597
12772TIP3   OH259806   3.920   5.337  13.247 -0.0705  0.4708 -0.0733
12772TIP3    H159807   3.996   5.280  13.258 -1.0816 -0.8867  0.1833
12772TIP3    H259808   3.935   5.409  13.308  1.5471  0.8523 -0.8680
12773TIP3   OH259809   0.004   0.377  16.010 -0.3536 -0.6444  0.2208
12773TIP3    H159810  -0.019   0.464  15.977  0.7366 -0.8417 -1.1407
12773TIP3    H259811   0.035   0.393  16.099  0.8920  0.5249 -0.3858
12774TIP3   OH259812   3.777   3.622   2.193  0.2991  0.8567  0.0851
12774TIP3    H159813   3.828   3.549   2.158 -0.5050  0.2466  0.1508
12774TIP3    H259814   3.762   3.599   2.284 -3.6269 -1.0997 -0.8710
12775TIP3   OH259815   4.220   1.271   2.129  0.3152 -0.5959  0.2567
12775TIP3    H159816   4.162   1.312   2.064  0.0112 -0.8408  0.3668
12775TIP3    H259817   4.305   1.266   2.086  0.5834  0.9241  0.5507
12776TIP3   OH259818   0.867   4.187   2.497 -0.5909  0.4140 -0.1802
12776TIP3    H159819   0.845   4.179   2.590 -0.1880  0.0996 -0.1074
12776TIP3    H259820   0.821   4.114   2.455 -0.9814  0.7067 -0.2702
12777TIP3   OH259821   3.057   2.309   4.409 -0.0657 -0.1959 -0.3685
12777TIP3    H159822   3.141   2.264   4.405 -0.6215 -1.1857 -1.3157
12777TIP3    H259823   3.079   2.402   4.398  0.8272 -0.5182 -1.5252
12778TIP3   OH259824   3.252   3.567   4.527  0.3620  0.0187 -0.3167
12778TIP3    H159825   3.177   3.620   4.555 -0.7111 -1.2089 -0.7550
12778TIP3    H259826   3.296   3.543   4.608  0.9831  1.6934 -0.1174
12779TIP3   OH259827   3.869   5.580  15.810  0.2542  0.0782  0.2674
12779TIP3    H159828   3.917   5.628  15.743  0.4120  0.2007  0.4649
12779TIP3    H259829   3.935   5.523  15.850 -0.2337 -1.4658 -0.9993
12780TIP3   OH259830   0.262   0.344   2.029 -0.1153  0.4529 -0.5604
12780TIP3    H159831   0.304   0.375   2.110  1.3138 -1.1082 -0.6355
12780TIP3    H259832   0.193   0.285   2.059 -1.3310  1.8640 -0.4691
12781TIP3   OH259833   1.878   0.355  14.560  0.0268  0.5973 -0.1026
12781TIP3    H159834   1.812   0.303  14.515  1.6718 -0.7417 -1.0963
12781TIP3    H259835   1.921   0.404  14.490  1.2397  0.0839  0.2639
12782TIP3   OH259836   1.191   5.672   1.633 -0.1216  0.2978 -0.2789
12782TIP3    H159837   1.198   5.645   1.542 -0.1842  1.6843 -0.7153
12782TIP3    H259838   1.114   5.729   1.636 -1.1096 -1.0159  0.9884
12783TIP3   OH259839   4.302   0.814   1.076 -0.0438  0.4753  0.1950
12783TIP3    H159840   4.264   0.880   1.018  1.9010  0.8007 -0.8019
12783TIP3    H259841   4.326   0.863   1.155  1.4498  1.0429 -0.5647
12784TIP3   OH259842   0.464   3.137   0.905  0.0136  0.8422 -0.1156
12784TIP3    H159843   0.545   3.148   0.955 -0.2946  0.2056  0.5318
12784TIP3    H259844   0.446   3.224   0.869  1.0948  0.9451 -0.4386
12785TIP3   OH259845   0.487   1.594   5.832  0.1607  0.1584  0.3422
12785TIP3    H159846   0.566   1.644   5.811 -0.4105  0.8364 -0.2544
12785TIP3    H259847   0.465   1.548   5.752  0.8561 -1.3394  0.9767
12786TIP3   OH259848   3.215   6.288   3.698 -0.8064 -0.8923  0.3960
12786TIP3    H159849   3.234   6.258   3.609  0.6719  2.0518 -0.4064
12786TIP3    H259850   3.122   6.271   3.710 -1.6327  0.8229 -2.7004
12787TIP3   OH259851   1.961   2.176   2.336  0.6675  0.7159 -0.4787
12787TIP3    H159852   2.009   2.236   2.393 -0.0410  0.3544  0.5307
12787TIP3    H259853   1.983   2.089   2.369 -2.4499  0.5780  1.5659
12788TIP3   OH259854   6.256   0.805   3.345 -0.0523 -0.1085  0.6846
12788TIP3    H159855   6.204   0.885   3.337  0.4454  0.3430  1.7597
12788TIP3    H259856   6.344   0.831   3.318 -0.2036 -0.6894 -0.4319
12789TIP3   OH259857   6.088   5.592  14.576  0.0794 -0.4314  0.0141
12789TIP3    H159858   6.112   5.546  14.657  0.5504  0.2249  0.2558
12789TIP3    H259859   6.162   5.577  14.517  0.2016 -0.0480  0.0691
12790TIP3   OH259860   3.648   6.299  13.821  0.0423 -0.0747 -0.0924
12790TIP3    H159861   3.686   6.217  13.790 -0.4713 -0.3050 -0.1247
12790TIP3    H259862   3.566   6.273  13.863 -1.2848  0.6056 -2.1080
12791TIP3   OH259863   1.657   0.696  10.659 -0.5321 -0.3546  0.1726
12791TIP3    H159864   1.734   0.643  10.636 -0.5426  0.1387 -1.1060
12791TIP3    H259865   1.601   0.690  10.582 -1.2902  0.1638  0.6792
12792TIP3   OH259866   3.449   0.573   0.220  0.3069  0.2592  0.4384
12792TIP3    H159867   3.392   0.524   0.281  1.6801  0.2014  1.7256
12792TIP3    H259868   3.481   0.647   0.271  0.0192  1.2902 -0.8201
12793TIP3   OH259869   3.607   3.364  14.045 -0.2107 -0.0984 -0.2253
12793TIP3    H159870   3.618   3.436  14.107 -4.0194  0.6575 -0.1894
12793TIP3    H259871   3.625   3.285  14.096  0.7374  0.6655  0.6551
12794TIP3   OH259872   0.339   5.867  15.813  0.5651  0.4639 -0.1444
12794TIP3    H159873   0.414   5.846  15.868 -0.6925 -1.1241  1.0664
12794TIP3    H259874   0.298   5.943  15.855  0.0226 -0.2972  0.7199
12795TIP3   OH259875   4.139   0.719  13.023 -0.5674 -0.5706 -0.1862
12795TIP3    H159876   4.138   0.711  12.928  2.7835  1.0820 -0.5014
12795TIP3    H259877   4.171   0.634  13.054 -0.8099 -0.8097 -0.5768
12796TIP3   OH259878   3.895   0.606  13.109 -0.5967  0.0541  0.8468
12796TIP3    H159879   3.972   0.659  13.091 -0.7789 -0.0683 -0.4333
12796TIP3    H259880   3.837   0.664  13.158  0.9804 -0.4110  3.4335
12797TIP3   OH259881   0.665   6.189   1.709  0.0564 -0.1519 -0.3794
12797TIP3    H159882   0.757   6.214   1.699 -0.6484  2.7043 -0.4752
12797TIP3    H259883   0.625   6.212   1.626 -1.0183 -0.0551  0.1505
12798TIP3   OH259884   4.398   6.197  14.797  0.1272 -0.4299 -0.5496
12798TIP3    H159885   4.450   6.221  14.873  0.8576  2.1324 -1.7588
12798TIP3    H259886   4.313   6.238  14.812  0.3286  0.2298 -1.1751
12799TIP3   OH259887   2.717   0.094  13.285 -0.5502  0.2809  0.5217
12799TIP3    H159888   2.747   0.007  13.309 -0.3790  0.2315  0.1355
12799TIP3    H259889   2.784   0.127  13.225 -1.2655  0.1656 -0.3625
12800TIP3   OH259890   5.380   0.238  12.919  0.0774 -0.0593  0.2473
12800TIP3    H159891   5.325   0.307  12.884  0.7241  0.1988 -0.2843
12800TIP3    H259892   5.440   0.216  12.847 -0.0685 -1.1197  0.4244
12801TIP3   OH259893   5.224   3.660   3.122  0.1840  0.2619 -0.1867
12801TIP3    H159894   5.211   3.589   3.059 -2.4177  0.9317 -0.5029
12801TIP3    H259895   5.228   3.739   3.068 -0.5635  0.6894  0.3734
12802TIP3   OH259896   1.923   2.623   5.169 -0.4009  0.1130 -0.0717
12802TIP3    H159897   1.983   2.685   5.211 -0.3787  0.2072 -0.2436
12802TIP3    H259898   1.874   2.584   5.242 -0.0703 -0.0283  0.0769
12803TIP3   OH259899   0.133   0.739  13.753 -0.3594 -0.2111  1.1846
12803TIP3    H159900   0.212   0.688  13.733 -0.9475 -0.3098 -1.2111
12803TIP3    H259901   0.065   0.698  13.699 -1.0623  2.5022 -0.1419
12804TIP3   OH259902   6.647   1.152  14.662 -0.1046  0.4160 -0.3525
12804TIP3    H159903   6.659   1.172  14.569  1.4573 -1.4103 -0.5987
12804TIP3    H259904   6.716   1.202  14.706 -0.3669  0.6875 -0.2455
12805TIP3   OH259905   6.649   5.745   0.248  0.8857  0.1682  0.0325
12805TIP3    H159906   6.716   5.689   0.289  1.2393  0.8981  0.4808
12805TIP3    H259907   6.569   5.726   0.297  0.9862 -0.0081  0.1309
12806TIP3   OH259908   2.671   1.269   1.186  0.2689 -0.3111 -0.4979
12806TIP3    H159909   2.727   1.192   1.181 -2.5026 -2.5848  0.8022
12806TIP3    H259910   2.629   1.264   1.272 -1.3187  1.7107 -1.0591
12807TIP3   OH259911   4.369   0.390   0.953 -0.0437 -0.0692 -0.0441
12807TIP3    H159912   4.401   0.358   1.037 -0.1134  1.0143  0.4076
12807TIP3    H259913   4.274   0.396   0.963 -0.0876 -0.2562 -0.3185
12808TIP3   OH259914   6.552   3.398   4.027 -0.4148 -0.2130 -0.2726
12808TIP3    H159915   6.553   3.401   4.123 -0.0292 -0.4625 -0.2666
12808TIP3    H259916   6.599   3.478   4.001 -1.4386  0.4075 -0.2729
12809TIP3   OH259917   0.060   1.016   3.909 -0.3350  0.4531  0.5588
12809TIP3    H159918   0.154   1.025   3.897 -0.3740 -0.1929 -0.3001
12809TIP3    H259919   0.022   1.064   3.836 -0.6520 -0.1310  0.3340
12810TIP3   OH259920   2.896   2.650  13.160 -0.3545  0.2168 -0.2720
12810TIP3    H159921   2.855   2.571  13.194 -0.9612  0.5927 -0.1009
12810TIP3    H259922   2.941   2.622  13.081 -0.9415 -0.2141 -0.4616
12811TIP3   OH259923   5.015   5.975   1.338  0.4556  0.2440  0.2769
12811TIP3    H159924   5.091   5.919   1.349 -0.2446 -0.8022 -0.0374
12811TIP3    H259925   4.965   5.935   1.266 -1.0004  0.1874  1.2697
12812TIP3   OH259926   6.381   4.016   3.283  0.0176 -0.0174  0.3219
12812TIP3    H159927   6.331   3.936   3.274 -1.7419  1.1271 -0.5950
12812TIP3    H259928   6.380   4.056   3.196  0.5201  1.1989  0.8396
12813TIP3   OH259929   5.233   3.251  12.257  0.2424 -0.7469 -0.4461
12813TIP3    H159930   5.251   3.338  12.221 -0.5338 -0.9089 -1.2656
12813TIP3    H259931   5.216   3.266  12.350  1.4344 -0.2035 -0.3058
12814TIP3   OH259932   4.521   6.322  14.575 -0.8173 -0.0948  0.0675
12814TIP3    H159933   4.552   6.251  14.520 -2.0103 -0.7830  0.2529
12814TIP3    H259934   4.503   6.281  14.660  1.0980  0.9579  1.0612
12815TIP3   OH259935   4.103   3.024  12.816  0.0350 -0.2757  0.2379
12815TIP3    H159936   4.080   2.999  12.906  1.8359 -2.4455  0.2019
12815TIP3    H259937   4.194   3.054  12.823  0.0098  0.0419 -0.7751
12816TIP3   OH259938   2.495   3.894  16.093  0.0437 -0.0550 -0.1368
12816TIP3    H159939   2.475   3.882  16.000  0.8049  1.4335 -0.5192
12816TIP3    H259940   2.499   3.805  16.128 -0.5441 -0.6302 -1.4534
12817TIP3   OH259941   2.475   0.259  15.242  0.1724  0.4261  0.0452
12817TIP3    H159942   2.482   0.313  15.163  0.4607 -0.4576 -0.5461
12817TIP3    H259943   2.403   0.198  15.223 -0.8555  1.2434  1.1125
12818TIP3   OH259944   1.568   1.844  12.226  0.1570  0.0693  0.1988
12818TIP3    H159945   1.526   1.781  12.285  0.8291  0.3194  0.9625
12818TIP3    H259946   1.652   1.803  12.204  0.3700  0.4560  0.2795
12819TIP3   OH259947   0.154   2.539   5.073 -0.2163  0.1792 -0.2866
12819TIP3    H159948   0.170   2.447   5.050 -1.1376 -0.2835  0.7904
12819TIP3    H259949   0.228   2.586   5.035  1.0088 -1.1868  0.2618
12820TIP3   OH259950   5.253   0.442  12.806  0.2556  0.4732 -0.4523
12820TIP3    H159951   5.269   0.452  12.712 -1.3787  1.3872 -0.6791
12820TIP3    H259952   5.158   0.452  12.814 -0.0095 -2.1984  0.9805
12821TIP3   OH259953   2.062   5.649   1.717 -0.3306  0.5844 -0.4089
12821TIP3    H159954   2.143   5.601   1.695 -0.6654  0.1901 -0.8069
12821TIP3    H259955   1.993   5.582   1.711 -0.4612  0.4440  1.8315
12822TIP3   OH259956   6.422   5.189  13.933  0.2302  0.1241 -0.5619
12822TIP3    H159957   6.332   5.197  13.903 -0.2486  0.9636  0.9649
12822TIP3    H259958   6.469   5.259  13.888 -0.4327  1.2469  0.4346
12823TIP3   OH259959   3.472   0.760   2.427  0.0566  0.8271  0.0489
12823TIP3    H159960   3.417   0.716   2.492  0.5428 -0.2990 -0.2704
12823TIP3    H259961   3.480   0.850   2.459 -0.0309  0.3983  1.3364
12824TIP3   OH259962   1.452   1.124   0.596 -0.0526 -0.2439 -0.8029
12824TIP3    H159963   1.453   1.099   0.504 -1.3092 -2.6742 -0.2471
12824TIP3    H259964   1.373   1.083   0.631  0.6760  0.1526  1.4769
12825TIP3   OH259965   1.287   2.340   4.629  0.4303 -0.3330 -0.6237
12825TIP3    H159966   1.244   2.420   4.597  1.3018  1.0182  1.4023
12825TIP3    H259967   1.375   2.367   4.652  0.9341 -2.0349 -0.4102
12826TIP3   OH259968   6.603   0.173  14.015  0.1200 -0.7002 -0.0900
12826TIP3    H159969   6.552   0.215  13.945 -1.3622  0.1875  1.4563
12826TIP3    H259970   6.569   0.084  14.020 -0.9723 -0.2599  0.5948
12827TIP3   OH259971   1.431   1.784   4.494  0.3218  0.7457 -0.3923
12827TIP3    H159972   1.372   1.852   4.462 -0.9439  0.2049  0.7160
12827TIP3    H259973   1.396   1.702   4.458  1.4676  0.5824 -1.2015
12828TIP3   OH259974   2.815   1.615  13.405  0.2274 -0.3810  0.0907
12828TIP3    H159975   2.877   1.543  13.416  0.4374 -0.1898  0.1735
12828TIP3    H259976   2.783   1.632  13.494 -1.8693 -2.1555 -0.2439
12829TIP3   OH259977   3.670   1.318  13.135 -0.4468 -0.5926  0.8725
12829TIP3    H159978   3.658   1.248  13.071  1.4568  0.5209 -0.8355
12829TIP3    H259979   3.617   1.292  13.210 -2.6808 -2.0464 -1.0816
12830TIP3   OH259980   2.770   1.484  10.418  0.2499  0.0138 -0.6827
12830TIP3    H159981   2.843   1.454  10.472  0.1791 -1.2354 -1.2520
12830TIP3    H259982   2.802   1.565  10.378  0.7719  0.2671  0.2156
12831TIP3   OH259983   5.336   6.484   4.946 -0.3801  0.8079 -0.6589
12831TIP3    H159984   5.253   6.440   4.928  0.8004 -0.5690 -3.2081
12831TIP3    H259985   5.331   6.566   4.896 -0.6075  1.2639  0.0913
12832TIP3   OH259986   6.757   2.387   2.143 -0.5065  0.4054 -0.2485
12832TIP3    H159987   6.726   2.386   2.052 -2.0734 -0.8004  0.2584
12832TIP3    H259988   6.771   2.295   2.164  0.8344  0.7421  0.4434
12833TIP3   OH259989   6.172   2.188  13.841 -0.1958  0.5528 -0.3456
12833TIP3    H159990   6.086   2.207  13.804 -0.1872  1.7906  0.2516
12833TIP3    H259991   6.166   2.215  13.932  0.2598 -1.0936  0.2076
12834TIP3   OH259992   1.957   3.155  16.485 -0.0933  0.5430 -0.0050
12834TIP3    H159993   1.889   3.218  16.459  0.7280  1.0832 -0.9155
12834TIP3    H259994   1.950   3.084  16.420 -1.1128 -0.4073  1.1043
12835TIP3   OH259995   2.841   4.262  14.343 -0.0075  0.1379  0.1886
12835TIP3    H159996   2.918   4.276  14.398 -0.3308  0.5922  0.5248
12835TIP3    H259997   2.873   4.273  14.254  0.3844  0.0077  0.3124
12836TIP3   OH259998   6.579   4.793  14.244  0.5140 -0.2648  0.1883
12836TIP3    H159999   6.673   4.794  14.229  0.7974 -0.5523  1.7244
12836TIP3    H260000   6.544   4.860  14.186  1.7163  0.1253 -0.1082
12837TIP3   OH260001   6.649   4.387  14.643 -0.1179 -0.3831  0.5229
12837TIP3    H160002   6.642   4.305  14.692 -0.6985 -0.0271  1.0667
12837TIP3    H260003   6.597   4.450  14.695  0.6352  0.4169  0.3262
12838TIP3   OH260004   5.576   2.669   4.370 -0.3590 -0.0164 -0.4946
12838TIP3    H160005   5.523   2.744   4.397  0.5410  0.4904 -0.1312
12838TIP3    H260006   5.628   2.702   4.297 -1.3814 -0.8490 -1.6541
12839TIP3   OH260007   2.733   6.824   1.639 -0.4213  0.3731 -0.5052
12839TIP3    H160008   2.645   6.853   1.663 -0.1540 -1.2589  3.2492
12839TIP3    H260009   2.791   6.877   1.693  0.6018 -1.1076 -0.0868
12840TIP3   OH260010   3.797   3.774   0.014 -0.1362  0.0420 -0.2428
12840TIP3    H160011   3.887   3.790  -0.015  0.4072 -0.0989  1.2904
12840TIP3    H260012   3.779   3.683  -0.013 -0.1028  0.3035 -1.1964
12841TIP3   OH260013   1.935   6.572  14.564  0.1712 -0.6574 -0.1920
12841TIP3    H160014   1.898   6.590  14.478  0.7400 -1.0536 -0.5276
12841TIP3    H260015   1.966   6.482  14.559 -0.3652 -0.9034  0.6409
12842TIP3   OH260016   1.700   4.252   0.087 -0.5949  0.4268  0.1266
12842TIP3    H160017   1.762   4.221   0.153  0.6566  1.0477 -0.7220
12842TIP3    H260018   1.684   4.175   0.032 -1.9181 -0.1930  1.3032
12843TIP3   OH260019   5.735   4.791   1.133 -0.0001 -0.0871 -0.3916
12843TIP3    H160020   5.734   4.695   1.127 -0.1470 -0.1762  0.6939
12843TIP3    H260021   5.696   4.809   1.219 -1.9782  1.0489 -1.4770
12844TIP3   OH260022   1.103   6.688  14.950 -0.4039 -0.3787 -0.1200
12844TIP3    H160023   1.047   6.764  14.964 -1.2387 -0.8250 -0.9250
12844TIP3    H260024   1.071   6.649  14.869  1.2832 -0.4736 -0.7700
12845TIP3   OH260025   1.481   1.581  12.378  0.0167 -0.0836  0.5013
12845TIP3    H160026   1.476   1.501  12.325  1.1500  2.1381 -3.3066
12845TIP3    H260027   1.562   1.572  12.427 -0.3604 -1.6419  0.9067
12846TIP3   OH260028   6.752   5.309   1.260 -0.5351 -0.0105 -0.2645
12846TIP3    H160029   6.811   5.384   1.269  0.4194 -0.3577 -2.6603
12846TIP3    H260030   6.665   5.343   1.280 -0.1255  1.7944 -1.3371
12847TIP3   OH260031   3.352   4.962   2.204  0.5462  0.0903  0.4612
12847TIP3    H160032   3.289   4.890   2.213  0.6788 -0.3937 -1.7726
12847TIP3    H260033   3.309   5.037   2.244 -0.5745 -0.7088  0.7989
12848TIP3   OH260034   3.242   1.900   5.313 -0.0605  0.1272  0.3444
12848TIP3    H160035   3.302   1.826   5.315 -0.5152 -0.2665 -0.3980
12848TIP3    H260036   3.194   1.894   5.396 -1.4239 -1.5390 -0.5208
12849TIP3   OH260037   5.783   4.624  14.795  0.1482  0.0607 -0.5375
12849TIP3    H160038   5.874   4.601  14.780 -0.1708 -0.7879 -1.2550
12849TIP3    H260039   5.737   4.590  14.718 -0.7408  0.6626 -0.2847
12850TIP3   OH260040   4.074   6.594  11.947 -0.2909  0.7350 -0.3292
12850TIP3    H160041   4.009   6.654  11.982 -1.1679  0.3110 -1.1707
12850TIP3    H260042   4.121   6.645  11.881 -0.0358  0.9221 -0.0052
12851TIP3   OH260043   3.204   3.720   0.161  0.1184  0.2768  0.8045
12851TIP3    H160044   3.216   3.626   0.175  0.0241  0.2032  0.3957
12851TIP3    H260045   3.199   3.730   0.066  0.8588  0.7891  0.8115
12852TIP3   OH260046   2.074   6.312   3.585 -0.6181 -0.0771 -0.1118
12852TIP3    H160047   2.161   6.320   3.548 -1.0601 -1.6506 -1.6085
12852TIP3    H260048   2.089   6.289   3.677  0.4945  1.5287  0.1589
12853TIP3   OH260049   6.139   3.769  12.964 -0.2730 -0.5103  0.1309
12853TIP3    H160050   6.183   3.707  13.022 -0.2003 -0.0853  0.5375
12853TIP3    H260051   6.157   3.736  12.876  0.7555 -0.4154  0.2943
12854TIP3   OH260052   0.758   5.164  14.432  0.1848  0.1920  0.0450
12854TIP3    H160053   0.732   5.087  14.483  0.3208 -0.8326 -1.3545
12854TIP3    H260054   0.853   5.159  14.428  0.4767  2.1596  2.4654
12855TIP3   OH260055   1.124   1.836  13.692 -0.2517 -0.1780 -0.4786
12855TIP3    H160056   1.184   1.812  13.621  1.4336 -1.2995  1.2177
12855TIP3    H260057   1.109   1.930  13.680 -0.2177 -0.3837 -2.4197
12856TIP3   OH260058   5.387   4.991   0.988  0.4956 -0.4017 -0.3980
12856TIP3    H160059   5.301   5.021   0.958  1.2744  1.9918 -0.3710
12856TIP3    H260060   5.417   4.932   0.919 -0.3352  0.2779 -1.3656
12857TIP3   OH260061   2.994   0.346  16.992 -0.5571  0.1658 -0.3235
12857TIP3    H160062   3.005   0.389  17.077 -0.5223  0.3880 -0.4393
12857TIP3    H260063   2.988   0.418  16.930  1.1821 -0.0077 -0.7378
12858TIP3   OH260064   3.514   3.279   0.695  0.2357 -0.7690 -0.0115
12858TIP3    H160065   3.432   3.328   0.704  1.2767  0.7723  1.6837
12858TIP3    H260066   3.537   3.288   0.602 -0.7875 -0.0104 -0.2076
12859TIP3   OH260067   3.455   5.534   3.412 -0.0930 -0.3756 -0.6136
12859TIP3    H160068   3.461   5.470   3.482 -3.2387 -1.2922 -1.0417
12859TIP3    H260069   3.408   5.608   3.451 -0.0685 -0.0213 -1.2371
12860TIP3   OH260070   0.337   1.773  12.774  1.0947 -0.2202 -0.5870
12860TIP3    H160071   0.426   1.775  12.811  1.1485 -1.6164 -0.5647
12860TIP3    H260072   0.342   1.707  12.704 -0.2709 -1.4629  0.4180
12861TIP3   OH260073   3.246   5.355  11.554  0.1772  0.2676 -0.4827
12861TIP3    H160074   3.288   5.304  11.623 -0.6277 -0.5693 -0.5951
12861TIP3    H260075   3.230   5.293  11.483 -0.3461  0.7808 -0.8278
12862TIP3   OH260076   0.626   6.465   3.510  0.2143 -0.3191  0.0629
12862TIP3    H160077   0.710   6.426   3.533 -0.5241 -1.0140  1.7758
12862TIP3    H260078   0.606   6.524   3.583 -0.2176  0.7962 -0.9283
12863TIP3   OH260079   2.564   4.255  14.837 -0.1044  0.7567  0.4795
12863TIP3    H160080   2.527   4.341  14.857 -0.2246  0.4595  1.6049
12863TIP3    H260081   2.579   4.214  14.923  0.8083  0.0121 -0.0102
12864TIP3   OH260082   1.867   2.968  15.866  0.2226  0.4211  0.0445
12864TIP3    H160083   1.947   3.013  15.838 -1.5908  2.1908 -2.7464
12864TIP3    H260084   1.897   2.906  15.932  3.2407  4.2559  2.7287
12865TIP3   OH260085   4.618   2.656  14.999  0.1377 -0.2124 -0.2679
12865TIP3    H160086   4.712   2.650  15.017 -0.1033 -0.7460  0.8340
12865TIP3    H260087   4.606   2.603  14.920  0.5379 -1.3610  0.4242
12866TIP3   OH260088   2.371   2.397   0.284 -0.7310  0.2953  0.2796
12866TIP3    H160089   2.399   2.486   0.305  0.2528 -0.1925  1.1107
12866TIP3    H260090   2.435   2.366   0.220 -1.9193  0.6709 -1.1647
12867TIP3   OH260091   4.592   2.630  14.294  0.9526  0.4389  0.8336
12867TIP3    H160092   4.542   2.665  14.221 -0.0042 -0.8213  0.8542
12867TIP3    H260093   4.546   2.660  14.372  1.4912  1.0829  0.9121
12868TIP3   OH260094   4.264   1.553  15.999 -0.1252 -0.5106 -0.3966
12868TIP3    H160095   4.174   1.543  15.969 -0.7534 -1.4127  1.6469
12868TIP3    H260096   4.316   1.505  15.934 -1.2396 -0.9445 -0.9908
12869TIP3   OH260097   1.459   5.067  17.061 -0.4841 -0.3889  0.6070
12869TIP3    H160098   1.460   5.157  17.029 -0.0201 -0.8486 -0.7114
12869TIP3    H260099   1.539   5.059  17.113 -0.1495 -0.2486  0.1193
12870TIP3   OH260100   1.756   5.206  14.257 -0.3470 -0.0870  0.2923
12870TIP3    H160101   1.723   5.184  14.170  1.9826 -0.1868 -0.6314
12870TIP3    H260102   1.700   5.157  14.318 -0.6748 -1.7203 -1.2542
12871TIP3   OH260103   3.066   5.038  17.134  0.7073 -0.5019 -0.2114
12871TIP3    H160104   3.021   5.034  17.218  1.3945 -1.3646  0.1339
12871TIP3    H260105   3.159   5.043  17.156  0.8275  0.6445 -0.9193
12872TIP3   OH260106   0.555   5.130   5.060 -0.3077  1.1698 -0.0222
12872TIP3    H160107   0.635   5.138   5.112  0.1233  3.2129 -0.8832
12872TIP3    H260108   0.578   5.167   4.975 -2.2457  2.0953 -0.2029
12873TIP3   OH260109   3.476   2.276  11.902  0.3544 -0.2730  0.0886
12873TIP3    H160110   3.419   2.270  11.825  0.4546  1.1581 -0.1336
12873TIP3    H260111   3.447   2.356  11.947  1.9761  0.3336  0.1275
12874TIP3   OH260112   3.533   0.211   4.282 -1.0984 -0.5041 -0.5015
12874TIP3    H160113   3.626   0.202   4.302 -0.9922 -0.1612 -0.8395
12874TIP3    H260114   3.528   0.201   4.187 -1.2386  0.8053 -0.6437
12875TIP3   OH260115   5.728   5.265  13.528  0.2382  0.2881 -0.5282
12875TIP3    H160116   5.738   5.170  13.540  0.6714  0.3656 -0.2754
12875TIP3    H260117   5.656   5.273  13.466 -0.3511 -0.1844  0.0826
12876TIP3   OH260118   2.009   4.699   3.807 -0.3898  0.6225  0.1709
12876TIP3    H160119   1.980   4.789   3.794  1.6969  1.2848 -0.2330
12876TIP3    H260120   2.034   4.669   3.719  1.8422  0.7514  0.7219
12877TIP3   OH260121   4.551   0.810   2.473 -0.7838  0.0372  0.3324
12877TIP3    H160122   4.490   0.781   2.405 -0.1150 -2.1491  0.5941
12877TIP3    H260123   4.499   0.807   2.553 -0.9338  0.3762  0.2521
12878TIP3   OH260124   0.817   3.685  14.059  0.7902  0.2916  0.5423
12878TIP3    H160125   0.735   3.669  14.106 -0.2860 -2.0627 -1.8358
12878TIP3    H260126   0.811   3.775  14.030 -0.9798  0.1801  0.4330
12879TIP3   OH260127   6.462   5.073   4.582  0.5367 -0.3643 -0.0190
12879TIP3    H160128   6.501   5.043   4.501  2.3389  1.6191  0.0085
12879TIP3    H260129   6.537   5.099   4.636 -0.6307 -1.1412  2.0906
12880TIP3   OH260130   2.256   6.165   2.634 -0.0056 -0.0080 -0.1618
12880TIP3    H160131   2.171   6.167   2.678 -0.1040 -0.4628 -0.3274
12880TIP3    H260132   2.320   6.180   2.704 -0.2226  0.4012 -0.0494
12881TIP3   OH260133   2.979   6.210   3.184  0.4981 -0.3190 -0.2708
12881TIP3    H160134   2.975   6.162   3.267  2.7370 -1.3928 -0.7107
12881TIP3    H260135   2.898   6.186   3.139 -0.4760 -0.1758  1.3421
12882TIP3   OH260136   2.466   5.899  13.682 -0.3532 -0.6181 -0.5098
12882TIP3    H160137   2.554   5.908  13.646  1.1173 -1.8057  2.4323
12882TIP3    H260138   2.413   5.960  13.631  2.3829  0.9856 -1.6710
12883TIP3   OH260139   3.386   2.904   6.246 -0.4441 -0.4549  0.2302
12883TIP3    H160140   3.476   2.914   6.276 -0.9255  0.0729  1.5916
12883TIP3    H260141   3.339   2.870   6.322 -1.5358  0.0272 -0.2070
12884TIP3   OH260142   3.897   5.403  15.571 -0.0675 -1.0130  0.1635
12884TIP3    H160143   3.810   5.364  15.574  0.2313 -1.7007 -0.0125
12884TIP3    H260144   3.956   5.333  15.601  0.4019 -0.4884  0.4923
12885TIP3   OH260145   2.825   6.387  15.054  0.7457 -0.6511 -0.2293
12885TIP3    H160146   2.883   6.433  15.115 -0.3862  0.9504 -0.2896
12885TIP3    H260147   2.768   6.335  15.111  0.5947 -0.2473 -0.0103
12886TIP3   OH260148   5.141   1.413  15.239  0.1268  0.3006  0.5811
12886TIP3    H160149   5.146   1.369  15.323  0.0972 -0.6951  0.0806
12886TIP3    H260150   5.129   1.342  15.175 -0.2881  1.0624 -0.2160
12887TIP3   OH260151   5.306   5.417   4.147  0.0431  0.1687 -0.2991
12887TIP3    H160152   5.319   5.438   4.055  0.6254  0.7464 -0.0906
12887TIP3    H260153   5.211   5.407   4.156 -0.0694  0.7246 -0.8287
12888TIP3   OH260154   6.666   6.569  16.027  0.2077  0.1106 -0.0327
12888TIP3    H160155   6.644   6.654  16.066  0.0294  0.1440 -0.2027
12888TIP3    H260156   6.677   6.510  16.101 -1.3840 -0.1370  0.0231
12889TIP3   OH260157   4.162   6.700  16.063  0.0401 -0.6498  0.0175
12889TIP3    H160158   4.115   6.659  16.136  1.2250  1.2442  1.9675
12889TIP3    H260159   4.123   6.788  16.057  1.1529 -0.1724 -0.4354
12890TIP3   OH260160   2.671   6.328  14.335  0.0998 -0.4659 -0.7632
12890TIP3    H160161   2.605   6.263  14.357 -1.7228  1.6650  0.5183
12890TIP3    H260162   2.639   6.369  14.255 -0.9711  1.5005  0.5882
12891TIP3   OH260163   1.571   3.777  12.575 -0.1024 -0.1582 -0.5702
12891TIP3    H160164   1.535   3.838  12.510  2.7816  0.3055 -1.8805
12891TIP3    H260165   1.641   3.827  12.618  1.0104 -1.8839 -0.2808
12892TIP3   OH260166   5.895   1.612   2.649  0.2901 -0.0928  0.1784
12892TIP3    H160167   5.884   1.699   2.610  0.0054 -0.7629 -1.3094
12892TIP3    H260168   5.906   1.553   2.574  0.3619 -1.3668  1.1500
12893TIP3   OH260169   4.726   2.497  16.157 -0.0473  0.0268 -0.7237
12893TIP3    H160170   4.731   2.402  16.149  0.9861  0.1485 -1.7740
12893TIP3    H260171   4.785   2.518  16.230  0.8652 -0.0466 -1.4128
12894TIP3   OH260172   1.981   6.457   4.861  0.1481 -0.6094  0.4396
12894TIP3    H160173   1.910   6.513   4.832  0.6109  0.7843  1.8197
12894TIP3    H260174   1.949   6.368   4.847 -1.3882 -0.0142 -0.0318
12895TIP3   OH260175   3.570   1.928  15.763  0.2943  0.0585  0.0703
12895TIP3    H160176   3.524   2.003  15.726 -1.4184 -0.9247  0.1459
12895TIP3    H260177   3.562   1.940  15.858  0.4848  0.0542  0.0873
12896TIP3   OH260178   2.835   1.336   3.159 -0.6056 -0.2470  0.0656
12896TIP3    H160179   2.921   1.376   3.167 -0.5296 -0.5525  0.9302
12896TIP3    H260180   2.847   1.265   3.095  0.0629 -0.9985  0.9974
12897TIP3   OH260181   2.726   6.823  13.992  0.4193  0.6029  0.0395
12897TIP3    H160182   2.790   6.790  14.055  0.2812 -1.2258 -0.7127
12897TIP3    H260183   2.756   6.789  13.907 -1.6726 -0.6130 -0.2949
12898TIP3   OH260184   4.453   5.929   3.451 -0.2015  0.3449 -0.1373
12898TIP3    H160185   4.504   5.903   3.375 -0.0806  0.1754 -0.0006
12898TIP3    H260186   4.377   5.976   3.415 -0.8443 -0.8730 -0.4420
12899TIP3   OH260187   0.170   6.183  13.254  0.2637  0.0398  0.0787
12899TIP3    H160188   0.175   6.149  13.165  0.7274  0.3453 -0.0146
12899TIP3    H260189   0.243   6.140  13.300 -1.0030 -1.4482  0.7797
12900TIP3   OH260190   5.102   0.207   3.977 -0.1392  0.0331 -0.1505
12900TIP3    H160191   5.039   0.279   3.976  0.1521  0.2987  0.2440
12900TIP3    H260192   5.181   0.244   4.018 -0.2846 -0.7458  0.8941
12901TIP3   OH260193   1.858   3.402  12.379 -0.0051  0.2328 -0.1361
12901TIP3    H160194   1.815   3.461  12.318  0.5424  0.8801  0.0902
12901TIP3    H260195   1.788   3.346  12.412 -0.3208 -0.0908 -1.3046
12902TIP3   OH260196   4.208   5.119   2.759  0.2886 -0.5961  0.1509
12902TIP3    H160197   4.248   5.113   2.673 -0.8232 -0.5995 -0.3781
12902TIP3    H260198   4.254   5.191   2.802  1.0497 -0.7902 -0.3290
12903TIP3   OH260199   6.300   1.780  14.532 -0.5339  0.0206  0.1659
12903TIP3    H160200   6.368   1.816  14.474 -0.5645  0.0447  0.1454
12903TIP3    H260201   6.341   1.701  14.569 -0.3730  0.2173  0.4119
12904TIP3   OH260202   0.019   2.614  16.556 -0.1819  0.8733  0.4442
12904TIP3    H160203  -0.002   2.682  16.620  1.8493  1.3506  0.6871
12904TIP3    H260204   0.080   2.657  16.495 -1.5663  0.2531 -1.4814
12905TIP3   OH260205   2.944   0.186   1.494 -0.2913  0.3662 -0.4464
12905TIP3    H160206   2.991   0.268   1.513 -1.1939  1.0884 -1.2187
12905TIP3    H260207   2.851   0.210   1.500 -0.5828 -0.2043 -2.1865
12906TIP3   OH260208   2.570   0.036   0.942 -0.4280  0.5629  0.5630
12906TIP3    H160209   2.540   0.042   1.033 -0.1118 -3.0280  1.0423
12906TIP3    H260210   2.648  -0.020   0.946 -1.5757 -1.4483 -2.0584
12907TIP3   OH260211   1.585   2.607  11.240  0.4081 -0.1238 -0.0752
12907TIP3    H160212   1.643   2.672  11.280 -0.0755 -0.3765  1.0886
12907TIP3    H260213   1.601   2.614  11.146  0.9699  1.0852  0.0998
12908TIP3   OH260214   3.459   1.863   6.313 -0.5431  0.1551  0.3808
12908TIP3    H160215   3.507   1.789   6.351  0.7090  0.6980 -0.0697
12908TIP3    H260216   3.503   1.941   6.348 -1.8991  0.7015  0.9184
12909TIP3   OH260217   2.395   5.840   1.706 -0.3659  0.3665 -0.1134
12909TIP3    H160218   2.373   5.928   1.675  0.2015  0.5225 -0.0758
12909TIP3    H260219   2.351   5.781   1.645 -1.8711  0.6617  0.6287
12910TIP3   OH260220   2.104   2.232  14.864  0.1702 -0.8903  0.3254
12910TIP3    H160221   2.052   2.259  14.788 -0.3305 -1.9318  0.2759
12910TIP3    H260222   2.116   2.313  14.915 -2.9382 -0.8369  1.1960
12911TIP3   OH260223   1.305   2.173   5.735 -0.5025  0.5205  0.0660
12911TIP3    H160224   1.300   2.164   5.639 -3.1952 -0.6462  0.2310
12911TIP3    H260225   1.329   2.265   5.749 -0.5299  0.8462 -1.7141
12912TIP3   OH260226   2.440   4.716  12.962  0.3034 -0.5245 -0.0585
12912TIP3    H160227   2.493   4.735  12.885  0.2026  0.1246  0.0235
12912TIP3    H260228   2.432   4.801  13.006 -1.6184 -0.3915 -0.5854
12913TIP3   OH260229   3.775   5.100   1.051  0.1562  0.4462 -0.3450
12913TIP3    H160230   3.710   5.086   0.982 -0.9747 -0.8949  0.8987
12913TIP3    H260231   3.723   5.112   1.130  1.4093 -0.1214  0.6095
12914TIP3   OH260232   3.318   4.187   5.181  0.5342  0.2547 -0.3258
12914TIP3    H160233   3.310   4.262   5.241 -2.0536 -0.1180 -0.0890
12914TIP3    H260234   3.343   4.114   5.237 -1.2224  0.0577  0.2831
12915TIP3   OH260235   0.993   4.731  11.802  0.0589 -0.4371 -0.0685
12915TIP3    H160236   0.974   4.689  11.718 -1.4440  0.4162 -0.1878
12915TIP3    H260237   1.073   4.689  11.832  2.0699  0.8956 -3.0746
12916TIP3   OH260238   4.225   5.833  13.099  0.2882 -0.0597  0.7837
12916TIP3    H160239   4.271   5.775  13.038 -1.3864  0.3456 -0.9641
12916TIP3    H260240   4.132   5.818  13.081 -0.2241  1.9133  1.4966
12917TIP3   OH260241   6.448   0.792   2.417 -0.3386  0.3113  0.0859
12917TIP3    H160242   6.382   0.724   2.434 -0.3053  0.6837  1.9022
12917TIP3    H260243   6.449   0.800   2.322 -1.6617 -0.9332 -0.0831
12918TIP3   OH260244   3.050   4.858   5.168  0.1225  0.0045 -0.2096
12918TIP3    H160245   3.083   4.906   5.244 -2.0460  0.5200  0.4842
12918TIP3    H260246   3.052   4.922   5.097  1.0748 -0.1347 -0.3218
12919TIP3   OH260247   5.900   5.606   4.886  0.0037  0.5550  0.4708
12919TIP3    H160248   5.986   5.570   4.909  0.1712  1.6222  1.6326
12919TIP3    H260249   5.861   5.540   4.829  1.6061  0.0661 -0.1306
12920TIP3   OH260250   4.548   1.455   3.754 -0.0589  0.3222 -0.0686
12920TIP3    H160251   4.532   1.413   3.838 -2.8950  0.2107 -0.5685
12920TIP3    H260252   4.512   1.543   3.763 -1.2560  0.0191 -1.3749
12921TIP3   OH260253   0.894   6.306   0.865 -0.0361 -0.0972  0.4145
12921TIP3    H160254   0.949   6.343   0.796  0.1568  0.2067  0.7244
12921TIP3    H260255   0.812   6.282   0.821  1.6161 -4.0707 -0.8589
12922TIP3   OH260256   6.618   2.952   3.641 -0.1801  0.2035 -0.0828
12922TIP3    H160257   6.537   2.902   3.642 -0.9311  1.3807  0.4062
12922TIP3    H260258   6.603   3.023   3.703  0.7550  1.1663 -0.9098
12923TIP3   OH260259   2.038   2.564  16.934  0.3242 -0.3061 -0.0920
12923TIP3    H160260   2.091   2.538  17.010  0.5209  0.0067 -0.1248
12923TIP3    H260261   2.102   2.591  16.869  0.1717 -0.8954 -0.4924
12924TIP3   OH260262   4.160   6.804  14.399 -0.4695 -0.3985 -0.5211
12924TIP3    H160263   4.152   6.742  14.326 -1.1368  1.1210 -1.8001
12924TIP3    H260264   4.110   6.881  14.371 -0.1974  0.4897  1.2794
12925TIP3   OH260265   3.230   0.832   0.284  0.3683 -0.1681  0.4613
12925TIP3    H160266   3.243   0.833   0.378 -0.0229  0.2620  0.5122
12925TIP3    H260267   3.153   0.778   0.271  1.5163 -1.8335  0.2357
12926TIP3   OH260268   4.804   6.228  15.525 -0.0554 -0.1296 -0.0837
12926TIP3    H160269   4.864   6.156  15.506 -1.5535 -1.3989 -0.2902
12926TIP3    H260270   4.784   6.220  15.618 -1.4174 -1.0116 -0.4118
12927TIP3   OH260271   4.235   3.047  11.749 -0.2132  0.3611  0.6455
12927TIP3    H160272   4.172   3.010  11.687 -0.8841 -0.4899  1.7965
12927TIP3    H260273   4.235   2.985  11.823  0.5391  1.3570  1.5060
12928TIP3   OH260274   2.774   6.734  16.049 -0.1052 -0.5176  0.3150
12928TIP3    H160275   2.693   6.769  16.084 -0.0755 -1.3997  1.3243
12928TIP3    H260276   2.824   6.707  16.126  1.8320  1.4101 -0.1717
12929TIP3   OH260277   0.643   0.969  15.121  0.4815  0.1638 -0.1077
12929TIP3    H160278   0.681   0.908  15.185 -2.2916 -1.6180 -0.0083
12929TIP3    H260279   0.605   0.912  15.053 -0.0449  1.8920 -1.3346
12930TIP3   OH260280   0.705   5.141  13.154  0.3389  0.0631 -0.6322
12930TIP3    H160281   0.635   5.129  13.090  0.6222  1.0917 -1.1595
12930TIP3    H260282   0.783   5.106  13.110  0.0684 -1.6541  0.1928
12931TIP3   OH260283   0.275   2.278   5.976 -0.1400  0.0339 -0.2655
12931TIP3    H160284   0.341   2.347   5.967  0.5460 -0.7333 -1.4639
12931TIP3    H260285   0.285   2.247   6.066 -2.2462  3.1962  1.2230
12932TIP3   OH260286   1.334   4.464  15.662  0.1128  0.6300  0.0112
12932TIP3    H160287   1.244   4.432  15.660 -0.1217  1.2824 -1.3835
12932TIP3    H260288   1.385   4.392  15.698 -0.7627 -0.3155 -0.5956
12933TIP3   OH260289   1.807   0.638  13.922 -0.0374  0.0330 -0.3124
12933TIP3    H160290   1.868   0.570  13.892  0.2305  0.1986 -0.1480
12933TIP3    H260291   1.787   0.613  14.012 -1.9505 -1.2612 -1.0375
12934TIP3   OH260292   2.351   3.601  16.749  0.0177  0.4030 -0.0154
12934TIP3    H160293   2.257   3.611  16.762  0.0493 -0.3577  0.9073
12934TIP3    H260294   2.390   3.632  16.831  0.4499 -1.0636  0.3580
12935TIP3   OH260295   0.534   4.312   1.978 -0.3892  0.1227  0.2955
12935TIP3    H160296   0.524   4.339   2.070 -0.8978  0.5313  0.1294
12935TIP3    H260297   0.575   4.388   1.936  1.3511 -0.6746  0.5016
12936TIP3   OH260298   2.079   1.379  15.931  0.1740  0.5849 -0.6111
12936TIP3    H160299   2.020   1.429  15.875  0.1813  2.6171  1.0709
12936TIP3    H260300   2.161   1.374  15.881 -0.4765  0.3940 -1.6832
12937TIP3   OH260301   5.075   6.307   4.325 -0.8079 -0.4028  0.1435
12937TIP3    H160302   5.047   6.217   4.308 -2.5713  0.0413  0.5068
12937TIP3    H260303   5.120   6.302   4.410 -2.1983 -0.7314  0.8970
12938TIP3   OH260304   2.043   6.064  14.193 -0.2144 -0.6536  0.4216
12938TIP3    H160305   1.961   6.045  14.239 -0.4172 -2.7099 -0.6911
12938TIP3    H260306   2.110   6.018  14.244 -0.1334 -1.1408 -0.1186
12939TIP3   OH260307   5.835   2.545  12.934  0.1260 -0.0942 -0.1962
12939TIP3    H160308   5.800   2.543  12.845 -0.1136  1.9214 -0.1982
12939TIP3    H260309   5.873   2.632  12.943  1.7831 -0.8854  1.0982
12940TIP3   OH260310   1.744   5.155   1.638  0.6924 -0.9292  0.2644
12940TIP3    H160311   1.797   5.200   1.573 -0.2982 -2.1550 -1.4793
12940TIP3    H260312   1.686   5.222   1.673  0.7276 -0.3987 -0.6751
12941TIP3   OH260313   6.749   2.969   2.170  0.0921 -0.3241 -0.0333
12941TIP3    H160314   6.703   3.030   2.113  1.2309 -0.4955 -1.1657
12941TIP3    H260315   6.721   2.993   2.259  0.9348  2.1967 -0.3953
12942TIP3   OH260316   4.242   0.822   4.926  0.1413  0.8640  0.3182
12942TIP3    H160317   4.187   0.840   5.003  1.5772 -1.1770  1.9565
12942TIP3    H260318   4.205   0.742   4.888  0.2405  1.1194 -0.3209
12943TIP3   OH260319   6.544   6.003   3.985  0.1516 -0.1147  0.1861
12943TIP3    H160320   6.489   5.995   3.907 -0.2206 -0.7187  0.5028
12943TIP3    H260321   6.633   6.001   3.952  0.0144 -1.4251 -0.1342
12944TIP3   OH260322   3.477   3.979   4.326 -0.3343 -0.5326  0.0067
12944TIP3    H160323   3.523   3.956   4.407  0.4419  0.4483 -0.1257
12944TIP3    H260324   3.532   3.942   4.256  0.0799  0.3151 -0.1363
12945TIP3   OH260325   0.327   5.368  13.854 -0.6207 -0.2302  0.1267
12945TIP3    H160326   0.348   5.370  13.760 -1.0234 -1.4527 -0.0121
12945TIP3    H260327   0.254   5.430  13.863  1.2026  2.0509  0.1709
12946TIP3   OH260328   6.577   0.989   5.337  0.3099  0.3646  0.1802
12946TIP3    H160329   6.561   0.963   5.428  0.8546  0.7719  0.3993
12946TIP3    H260330   6.672   1.004   5.333  0.3983 -0.3066 -0.6289
12947TIP3   OH260331   0.883   5.827   1.083 -0.2318 -0.3628 -0.7464
12947TIP3    H160332   0.882   5.739   1.045  0.6709 -0.0265 -1.6051
12947TIP3    H260333   0.802   5.868   1.053 -1.1530 -1.2053  0.4756
12948TIP3   OH260334   2.023   2.435  11.320  0.4982 -0.3101  0.5006
12948TIP3    H160335   2.037   2.504  11.255  1.2421 -0.7295  0.2050
12948TIP3    H260336   2.079   2.363  11.291  0.7253 -0.5616  1.5273
12949TIP3   OH260337   3.918   4.841  12.839  0.7445  0.2717 -0.9414
12949TIP3    H160338   3.894   4.913  12.781  0.9874  1.5121  0.4265
12949TIP3    H260339   3.848   4.777  12.828 -1.6978  2.4534  0.6734
12950TIP3   OH260340   1.611   0.422  12.823 -0.2360 -0.3241 -0.5930
12950TIP3    H160341   1.575   0.340  12.790  2.1526 -1.4919 -0.5292
12950TIP3    H260342   1.706   0.412  12.814  0.1686  2.1845  0.0351
12951TIP3   OH260343   6.148   1.562  14.720 -0.0104 -0.2073  0.1053
12951TIP3    H160344   6.129   1.491  14.781 -0.6190 -0.2142 -0.0810
12951TIP3    H260345   6.243   1.559  14.707  0.5462  1.3076  2.9397
12952TIP3   OH260346   1.777   1.714   3.890  0.7195 -1.0360  0.1021
12952TIP3    H160347   1.810   1.628   3.917 -0.8794 -0.8475  3.0948
12952TIP3    H260348   1.698   1.727   3.943  1.8666  3.0285  1.1258
12953TIP3   OH260349   1.425   0.455  11.738 -0.0827  0.0035 -0.2383
12953TIP3    H160350   1.338   0.496  11.737 -0.9642 -1.5743  1.9295
12953TIP3    H260351   1.409   0.365  11.713  0.5116 -0.8299  2.0907
12954TIP3   OH260352   1.200   6.530  12.854 -0.4728  0.5252  0.6039
12954TIP3    H160353   1.215   6.601  12.791 -0.7703  1.4810  1.5886
12954TIP3    H260354   1.117   6.491  12.827 -1.1581  1.6459  1.0350
12955TIP3   OH260355   3.910   1.515  10.888  0.8794  0.2133  0.2715
12955TIP3    H160356   3.842   1.555  10.834 -1.3759 -0.0973  2.6567
12955TIP3    H260357   3.900   1.421  10.873  2.3981  0.2332 -1.0892
12956TIP3   OH260358   3.618   0.219   5.944  0.0727  0.1940  0.3414
12956TIP3    H160359   3.538   0.166   5.940  0.5426 -0.9914  3.4511
12956TIP3    H260360   3.589   0.307   5.921 -2.3948 -0.0465  2.0406
12957TIP3   OH260361   1.787   3.939  12.679  0.6412  0.9966  0.4003
12957TIP3    H160362   1.712   3.990  12.711 -1.2484 -0.5821 -1.2152
12957TIP3    H260363   1.836   3.916  12.759 -1.5916  0.6116  1.7591
12958TIP3   OH260364   2.551   0.679  13.603 -0.4681 -0.0217 -0.3627
12958TIP3    H160365   2.464   0.718  13.602  0.1788  2.0059  3.5065
12958TIP3    H260366   2.611   0.752  13.588  0.6860 -1.2176 -2.0123
12959TIP3   OH260367   2.727   5.852  16.930 -0.7779 -0.0743  0.3541
12959TIP3    H160368   2.810   5.829  16.889 -1.7277 -0.9571 -1.1885
12959TIP3    H260369   2.688   5.917  16.870 -1.7887 -0.6955  0.3051
12960TIP3   OH260370   3.048   3.068  13.870  0.5910  0.0682 -0.3253
12960TIP3    H160371   3.044   3.106  13.957 -0.0202  0.2098 -0.4085
12960TIP3    H260372   2.956   3.055  13.845  0.6377  1.9709 -1.7825
12961TIP3   OH260373   5.163   2.596  16.713  0.4741  0.1060 -0.4110
12961TIP3    H160374   5.163   2.540  16.635  2.1514  0.7900 -0.9345
12961TIP3    H260375   5.254   2.625  16.722 -0.4298  3.4797 -0.7082
12962TIP3   OH260376   3.370   1.971   4.757  0.0611 -0.0055  0.0350
12962TIP3    H160377   3.367   2.021   4.838  0.9348 -1.5148  1.0633
12962TIP3    H260378   3.446   2.005   4.710  1.2794 -0.9989  1.2072
12963TIP3   OH260379   4.722   5.579   3.983  0.5330  0.1626 -0.3530
12963TIP3    H160380   4.733   5.591   4.077  2.7789  1.2678 -0.7068
12963TIP3    H260381   4.644   5.631   3.961  1.0164  1.3446  0.6266
12964TIP3   OH260382   4.179   1.475   3.626 -0.0385  0.1695 -0.0279
12964TIP3    H160383   4.152   1.460   3.717 -2.4146  0.7658 -0.5539
12964TIP3    H260384   4.205   1.567   3.624  0.6786 -0.0267  0.1873
12965TIP3   OH260385   1.926   3.129  12.204 -0.0594  0.5504  0.2559
12965TIP3    H160386   1.979   3.141  12.283  0.0057 -2.1972  0.7288
12965TIP3    H260387   1.836   3.119  12.237  0.1559 -2.1092  0.2215
12966TIP3   OH260388   5.176   1.910   3.828 -0.4129 -0.1359 -0.2097
12966TIP3    H160389   5.090   1.869   3.816 -0.4356 -0.4285  0.8196
12966TIP3    H260390   5.237   1.849   3.787 -0.1911 -2.4493  3.1195
12967TIP3   OH260391   1.279   6.105  15.098  0.1188  0.0323 -0.0525
12967TIP3    H160392   1.226   6.183  15.119 -1.8129 -0.9988 -0.7955
12967TIP3    H260393   1.326   6.129  15.019 -0.2226  0.5584 -0.1047
12968TIP3   OH260394   4.089   0.686   2.776 -0.0797 -0.1087  0.1841
12968TIP3    H160395   4.057   0.738   2.703 -1.7961 -1.1781  0.1342
12968TIP3    H260396   4.094   0.748   2.849  0.3527  0.6637 -0.4829
12969TIP3   OH260397   0.470   3.814   2.194  0.4590  0.2246  0.2861
12969TIP3    H160398   0.440   3.902   2.169 -2.8366 -1.2323 -1.5036
12969TIP3    H260399   0.562   3.812   2.168  0.2560  2.6887 -0.9258
12970TIP3   OH260400   1.573   3.687   4.325  0.2873  0.6803  0.0340
12970TIP3    H160401   1.621   3.714   4.404  2.9293 -0.4682 -1.0450
12970TIP3    H260402   1.581   3.762   4.265 -2.0210  1.6931  0.8829
12971TIP3   OH260403   6.426   1.103   4.946 -0.6902 -0.4132  0.0250
12971TIP3    H160404   6.417   1.077   5.038  0.5354 -2.4013 -0.3513
12971TIP3    H260405   6.518   1.125   4.936 -0.6432 -0.9865 -0.9010
12972TIP3   OH260406   5.924   4.949  15.143  0.0999  0.2514 -0.8869
12972TIP3    H160407   5.888   4.920  15.226 -1.2050 -0.0074 -1.5254
12972TIP3    H260408   5.927   5.045  15.151  0.5440  0.2019 -0.3379
12973TIP3   OH260409   5.713   0.612  12.065  0.8673  0.8980  0.0459
12973TIP3    H160410   5.634   0.566  12.038  0.7359  0.8070  0.5645
12973TIP3    H260411   5.734   0.671  11.993 -0.4413  1.9193  0.4738
12974TIP3   OH260412   2.704   1.444   0.965  0.6617 -0.2831  0.5185
12974TIP3    H160413   2.697   1.378   1.034  2.7949 -0.4700  0.6102
12974TIP3    H260414   2.710   1.393   0.884 -1.8314 -0.0640  0.1206
12975TIP3   OH260415   4.076   0.747  14.709 -0.0594 -0.4360 -0.1564
12975TIP3    H160416   4.054   0.834  14.742 -0.6711  0.3692 -2.4971
12975TIP3    H260417   4.171   0.747  14.703 -0.1128  0.6379 -1.4596
12976TIP3   OH260418   0.926   1.869  12.764  0.1190 -0.1295  0.2885
12976TIP3    H160419   0.907   1.943  12.706  2.6097  0.5604  0.2700
12976TIP3    H260420   0.924   1.906  12.852  0.4220 -0.2592  0.3492
12977TIP3   OH260421   2.423   6.419   4.787 -0.3131 -0.2063  0.3430
12977TIP3    H160422   2.401   6.360   4.859 -1.7982 -0.1322 -0.0075
12977TIP3    H260423   2.519   6.424   4.788 -0.2879 -0.5585  2.0029
12978TIP3   OH260424   2.007   5.697  13.396 -0.2511 -0.1642  0.5692
12978TIP3    H160425   2.034   5.661  13.480  2.0108 -0.3243 -0.1636
12978TIP3    H260426   2.068   5.769  13.380  0.1505 -0.8881 -1.4514
12979TIP3   OH260427   3.896   6.318   5.654  0.1905  0.3135 -0.1092
12979TIP3    H160428   3.877   6.224   5.650  1.1855  0.1443 -1.0930
12979TIP3    H260429   3.970   6.325   5.715  0.3304  0.4216 -0.2899
12980TIP3   OH260430   2.899   5.787   4.776 -0.0293  0.5421  0.1883
12980TIP3    H160431   2.833   5.852   4.750  0.5364  1.2275  0.4509
12980TIP3    H260432   2.969   5.796   4.712 -0.2337 -0.2700 -0.1585
12981TIP3   OH260433   4.265   4.366   2.199 -0.3814  0.0113 -0.4399
12981TIP3    H160434   4.296   4.434   2.139  1.1587  0.5115  0.8541
12981TIP3    H260435   4.262   4.409   2.284 -0.6706 -1.1828  0.1719
12982TIP3   OH260436   4.156   5.206  13.199 -0.5317  0.0107  0.0105
12982TIP3    H160437   4.127   5.118  13.178 -0.2745  0.0825 -0.6431
12982TIP3    H260438   4.241   5.195  13.241 -0.4505 -0.0472 -0.1690
12983TIP3   OH260439   1.210   0.442   1.857  0.3607 -0.3511  0.0959
12983TIP3    H160440   1.128   0.486   1.881 -0.0186 -0.8403 -0.2759
12983TIP3    H260441   1.197   0.351   1.885  0.5602 -0.5534 -0.4613
12984TIP3   OH260442   6.466   1.556   4.115  0.1391 -0.1679  0.3780
12984TIP3    H160443   6.437   1.646   4.128  0.5680 -0.2196  1.9602
12984TIP3    H260444   6.561   1.560   4.123  0.1231 -0.8272  1.0631
12985TIP3   OH260445   6.016   2.268   3.333 -0.1330  0.5798 -0.1883
12985TIP3    H160446   5.989   2.263   3.241 -0.6121 -1.2550  0.0038
12985TIP3    H260447   6.110   2.282   3.330  0.7208 -3.8527 -1.1616
12986TIP3   OH260448   5.281   6.055   0.839  0.8962  0.6325  0.5725
12986TIP3    H160449   5.326   6.131   0.803 -0.9891  0.8244 -1.5926
12986TIP3    H260450   5.232   6.090   0.914 -1.5909  2.1430 -1.5976
12987TIP3   OH260451   2.887   5.778  12.267  0.0290 -0.0482 -0.0848
12987TIP3    H160452   2.795   5.759  12.251  0.2163 -0.6773 -0.4652
12987TIP3    H260453   2.927   5.693  12.281  0.2480  0.3267  1.8744
12988TIP3   OH260454   3.190   4.138   2.594  0.4875 -0.4173  0.0352
12988TIP3    H160455   3.119   4.111   2.536  0.1799  0.9811 -0.2716
12988TIP3    H260456   3.157   4.121   2.682 -0.6825  1.2066 -0.0602
12989TIP3   OH260457   0.859   3.007  12.645 -0.2916 -0.7398 -0.3398
12989TIP3    H160458   0.923   2.936  12.639 -0.3747 -0.7872 -0.6771
12989TIP3    H260459   0.851   3.024  12.739  3.0568  1.8664 -0.3724
12990TIP3   OH260460   0.212   0.197   5.022 -0.2719  0.5012  0.2832
12990TIP3    H160461   0.293   0.152   5.044  0.0860  1.5426  1.1710
12990TIP3    H260462   0.150   0.126   5.001  0.4055 -0.3743  1.1385
12991TIP3   OH260463   6.030   2.968   2.010 -0.2342 -0.0341  0.1835
12991TIP3    H160464   6.069   3.010   1.933  2.0154 -0.2568  1.1150
12991TIP3    H260465   5.936   2.971   1.994 -0.0453  3.0274 -0.9598
12992TIP3   OH260466   6.255   6.518  12.607  0.2174 -0.2379  0.0772
12992TIP3    H160467   6.238   6.611  12.588 -1.1610 -0.5918 -0.5407
12992TIP3    H260468   6.192   6.495  12.675  0.3240 -0.8084 -0.0120
12993TIP3   OH260469   3.490   4.477  16.106  0.1538  0.3390 -0.2303
12993TIP3    H160470   3.586   4.480  16.100  0.3871 -2.4736  0.8184
12993TIP3    H260471   3.464   4.569  16.111  2.8224  1.1770 -0.1379
12994TIP3   OH260472   4.981   0.511  12.781 -0.1080 -0.3707 -0.4749
12994TIP3    H160473   4.938   0.501  12.696 -2.4770 -0.0868  0.5991
12994TIP3    H260474   4.931   0.580  12.825  1.4983 -0.0262  0.9059
12995TIP3   OH260475   2.645   2.049  17.029  0.0238 -0.3744  0.7118
12995TIP3    H160476   2.652   2.141  17.003  1.3308 -1.2686 -2.5828
12995TIP3    H260477   2.729   2.030  17.070  1.6228 -1.0479 -2.5502
12996TIP3   OH260478   6.152   6.715   4.349 -0.0484 -0.1566  0.2072
12996TIP3    H160479   6.098   6.769   4.292 -0.2459  0.4408  0.9390
12996TIP3    H260480   6.090   6.654   4.391  0.1512 -0.8583 -0.4974
12997TIP3   OH260481   5.158   0.019  13.046  0.5919 -0.1174  0.1521
12997TIP3    H160482   5.180   0.104  13.009  2.6717 -0.9067 -0.5666
12997TIP3    H260483   5.132  -0.034  12.971  0.0011 -0.3253  0.5000
12998TIP3   OH260484   3.110   1.440  10.359 -0.3790 -0.5260  0.3276
12998TIP3    H160485   3.061   1.520  10.345 -1.8805 -1.4074  0.3740
12998TIP3    H260486   3.108   1.426  10.454  3.0156  1.2419  0.8256
12999TIP3   OH260487   6.610   2.362  14.776  0.2217 -0.0132 -0.2053
12999TIP3    H160488   6.675   2.394  14.713  2.8747  2.3421  3.2842
12999TIP3    H260489   6.662   2.315  14.841 -2.3008 -1.9776  0.5664
13000TIP3   OH260490   2.436   3.875   4.282  0.3220  0.2117  0.2631
13000TIP3    H160491   2.507   3.829   4.237  0.2333 -0.4817  0.8141
13000TIP3    H260492   2.366   3.810   4.289 -0.1910  0.7388  0.1581
13001TIP3   OH260493   4.083   4.061  12.061  0.2716 -0.1925 -0.5892
13001TIP3    H160494   4.045   4.010  11.989 -1.7387  0.7838 -0.3161
13001TIP3    H260495   4.177   4.059  12.046 -0.0924  0.4220 -3.5798
13002TIP3   OH260496   6.383   3.870  12.450 -0.3377 -0.2520 -0.8822
13002TIP3    H160497   6.322   3.921  12.504 -0.4079 -0.5039 -0.7223
13002TIP3    H260498   6.469   3.902  12.475 -0.2155 -1.8515  0.9812
13003TIP3   OH260499   0.055   1.873  10.932 -0.6984  0.3341  0.6483
13003TIP3    H160500   0.099   1.845  11.013 -0.1423 -0.7348  0.0083
13003TIP3    H260501   0.026   1.791  10.892 -0.4813  0.8097 -0.5012
13004TIP3   OH260502   0.661   5.343  15.456  0.1318 -0.1788  0.7043
13004TIP3    H160503   0.566   5.349  15.458  0.0332 -1.5240  2.5221
13004TIP3    H260504   0.690   5.430  15.428 -1.6293 -0.3361 -1.9013
13005TIP3   OH260505   5.761   0.713   4.317  0.1890  0.5682 -0.1369
13005TIP3    H160506   5.745   0.784   4.380  0.3867  0.6554 -0.1840
13005TIP3    H260507   5.708   0.640   4.349  1.2799  0.1818  0.8782
13006TIP3   OH260508   3.181   1.220  12.402  0.0468 -0.2790  0.3660
13006TIP3    H160509   3.165   1.220  12.496  2.8919  0.2954  0.9704
13006TIP3    H260510   3.244   1.149  12.388  1.1909  0.8679 -0.7083
13007TIP3   OH260511   3.341   5.687   3.865 -0.0893  0.1896  0.0070
13007TIP3    H160512   3.311   5.765   3.819 -2.5075 -0.7460 -0.1304
13007TIP3    H260513   3.363   5.718   3.953 -2.2175  0.8898  0.3468
13008TIP3   OH260514   0.953   5.825   1.708  0.2529 -0.2181 -1.2978
13008TIP3    H160515   0.925   5.874   1.631  0.4594 -0.2602 -1.4015
13008TIP3    H260516   0.882   5.762   1.723  0.8545 -1.2099 -2.3419
13009TIP3   OH260517   1.083   1.777   4.603  0.2131  0.3423 -0.6607
13009TIP3    H160518   0.996   1.806   4.632  0.7163  1.0419  0.2135
13009TIP3    H260519   1.133   1.858   4.594  0.3783  0.0607 -2.5804
13010TIP3   OH260520   2.367   5.947   3.944  0.0865 -0.0987 -0.5567
13010TIP3    H160521   2.440   5.940   3.883  1.0954 -1.8965  0.7786
13010TIP3    H260522   2.382   6.030   3.990 -0.3172  0.9415 -2.1934
13011TIP3   OH260523   3.376   3.533   6.543 -0.7492 -0.3188 -0.3824
13011TIP3    H160524   3.340   3.469   6.604 -2.9021  2.4294  1.4960
13011TIP3    H260525   3.330   3.516   6.461 -1.2710 -1.1726  0.0697
13012TIP3   OH260526   2.099   1.523   2.155  0.5711 -0.0451  0.3196
13012TIP3    H160527   2.014   1.523   2.199  1.3883  0.0050  1.9544
13012TIP3    H260528   2.163   1.533   2.225  1.9894 -1.0755 -0.7642
13013TIP3   OH260529   5.874   4.967   0.016  0.0270 -0.4171 -0.3191
13013TIP3    H160530   5.808   4.899   0.007 -0.7681  0.2128  0.5441
13013TIP3    H260531   5.874   4.989   0.110 -0.0624  1.0540 -0.6292
13014TIP3   OH260532   4.162   2.171   2.834 -0.4626  0.5091 -0.3323
13014TIP3    H160533   4.228   2.103   2.843  0.2214  1.2287  0.3076
13014TIP3    H260534   4.207   2.243   2.790 -0.8086  1.0180  0.1231
13015TIP3   OH260535   3.830   4.051  14.848  0.4014 -0.4097 -0.3419
13015TIP3    H160536   3.817   3.982  14.784  2.6816  0.4219 -1.8118
13015TIP3    H260537   3.799   4.131  14.805 -0.9367 -0.2409  0.8265
13016TIP3   OH260538   2.675   0.206   1.329 -0.6616 -0.3711 -0.3291
13016TIP3    H160539   2.581   0.222   1.340 -0.6632 -1.4844  2.0404
13016TIP3    H260540   2.717   0.275   1.380 -0.2500 -0.6380 -0.3006
13017TIP3   OH260541   2.359   3.050  14.399  0.0728  0.3109 -0.2012
13017TIP3    H160542   2.363   3.142  14.373 -1.0509  0.2604 -0.6232
13017TIP3    H260543   2.281   3.044  14.455  2.0807  0.3008  2.8352
13018TIP3   OH260544   4.280   2.928  16.526  0.0497 -0.2144  0.1929
13018TIP3    H160545   4.242   2.922  16.614 -1.8975  2.0722 -0.3732
13018TIP3    H260546   4.360   2.978  16.539 -0.7489  1.0157  0.6006
13019TIP3   OH260547   6.556   5.309   1.029  0.1496 -0.0426 -0.0693
13019TIP3    H160548   6.461   5.316   1.035  0.2423  0.7947  0.6991
13019TIP3    H260549   6.586   5.310   1.120  0.9522  0.8267 -0.3209
13020TIP3   OH260550   1.453   0.835   1.132 -0.4227 -0.0470 -0.0440
13020TIP3    H160551   1.470   0.799   1.219 -2.2202 -1.7931 -0.3354
13020TIP3    H260552   1.490   0.770   1.072 -0.0668  0.6559 -0.5969
13021TIP3   OH260553   0.981   0.400  11.671 -0.3188 -0.5114  0.6506
13021TIP3    H160554   0.905   0.446  11.707  1.6239  1.4588  2.6395
13021TIP3    H260555   0.982   0.316  11.715 -1.0496 -0.3244  1.0334
13022TIP3   OH260556   6.122   4.314   4.147  0.4717 -0.8423 -0.2008
13022TIP3    H160557   6.153   4.402   4.125 -0.4798 -0.9856 -2.3200
13022TIP3    H260558   6.193   4.256   4.120  0.7578 -0.8101  0.4462
13023TIP3   OH260559   3.206   6.285   4.944  0.0430  0.3401 -0.8143
13023TIP3    H160560   3.162   6.223   4.885  0.0363  0.0692 -0.5239
13023TIP3    H260561   3.298   6.280   4.919  0.1812 -0.4569 -0.1984
13024TIP3   OH260562   1.785   2.305  13.651  0.0614  0.6581  0.2638
13024TIP3    H160563   1.731   2.282  13.727  1.3343  1.1573  1.3486
13024TIP3    H260564   1.758   2.394  13.629 -0.9155  0.2125 -0.4455
13025TIP3   OH260565   3.556   3.000   3.312  0.4160  0.3557 -0.0401
13025TIP3    H160566   3.471   2.958   3.319  0.4329 -0.3450 -2.8525
13025TIP3    H260567   3.572   3.008   3.218  2.0245  3.4740  0.3513
13026TIP3   OH260568   5.151   0.309   0.992 -0.2470  0.0271  0.1709
13026TIP3    H160569   5.179   0.366   0.920  2.0751  0.8952  1.6163
13026TIP3    H260570   5.201   0.228   0.979 -1.6363 -0.7589 -0.4718
13027TIP3   OH260571   0.620   6.560  11.549  0.5731  0.3848 -0.1153
13027TIP3    H160572   0.550   6.592  11.491 -0.6290  0.2688  1.2140
13027TIP3    H260573   0.657   6.640  11.587  2.3033  0.5653 -1.9908
13028TIP3   OH260574   1.228   0.675   0.477  0.0358  0.4936  0.5876
13028TIP3    H160575   1.220   0.605   0.541  1.7227 -1.1758 -0.9319
13028TIP3    H260576   1.184   0.642   0.399  0.9721  1.0626 -0.2022
13029TIP3   OH260577   5.961   6.629  14.160  0.0358 -0.2231 -0.1458
13029TIP3    H160578   5.947   6.673  14.244  2.1227  3.6885 -1.5905
13029TIP3    H260579   5.885   6.654  14.107  0.4407  0.3530 -0.4700
13030TIP3   OH260580   4.992   2.488   1.200  0.1175  0.1274 -0.1778
13030TIP3    H160581   4.999   2.547   1.125  2.4849  1.5676  1.0473
13030TIP3    H260582   5.079   2.447   1.205 -0.0580 -0.0928  1.6350
13031TIP3   OH260583   2.656   0.033   6.688  0.6032 -0.2332 -0.1546
13031TIP3    H160584   2.608   0.115   6.675 -0.1167 -0.7791 -1.0433
13031TIP3    H260585   2.734   0.042   6.633  1.9594  0.9371  1.8058
13032TIP3   OH260586   6.773   4.947   2.160  0.4077  0.9873  0.7896
13032TIP3    H160587   6.819   4.871   2.197  1.5655  1.8434  1.1707
13032TIP3    H260588   6.750   5.000   2.237 -1.3823  0.5160  0.6173
13033TIP3   OH260589   3.168   2.290   3.637 -0.3960 -0.4063 -0.0179
13033TIP3    H160590   3.140   2.254   3.553  1.7796 -0.9527 -0.5618
13033TIP3    H260591   3.090   2.335   3.671 -1.6383 -1.1091 -1.7861
13034TIP3   OH260592   5.463   3.048  16.110  0.0058 -0.2049 -0.5688
13034TIP3    H160593   5.392   3.061  16.172  0.5768  0.9594 -0.1387
13034TIP3    H260594   5.433   2.976  16.054 -1.8865  0.8401 -0.9651
13035TIP3   OH260595   1.830   0.761  13.171  0.1324 -0.1084  0.2694
13035TIP3    H160596   1.840   0.671  13.200 -2.9566 -0.4445  0.5943
13035TIP3    H260597   1.799   0.755  13.081 -1.3411  0.5412  0.7003
13036TIP3   OH260598   5.352   4.640  12.713  0.1990  0.8074 -0.0927
13036TIP3    H160599   5.393   4.640  12.799 -1.7679 -0.7755  0.9034
13036TIP3    H260600   5.426   4.636  12.652  1.5771 -0.6866  1.5705
13037TIP3   OH260601   1.127   2.591  12.708 -0.0918  0.2873  0.0274
13037TIP3    H160602   1.040   2.551  12.705 -0.1099  0.2971  0.3861
13037TIP3    H260603   1.166   2.558  12.789 -0.3751  1.5429  0.7052
13038TIP3   OH260604   4.070   6.478  16.243 -0.1962  0.0889  0.1538
13038TIP3    H160605   4.146   6.445  16.194 -0.0607  0.7589 -0.1035
13038TIP3    H260606   4.106   6.507  16.326 -0.4091 -0.9402  0.6262
13039TIP3   OH260607   2.675   1.584  16.231 -0.2337 -0.0884  0.2755
13039TIP3    H160608   2.688   1.490  16.240 -0.5340 -0.3097 -1.3245
13039TIP3    H260609   2.754   1.616  16.188  1.6839  1.1149  4.1791
13040TIP3   OH260610   5.158   6.300  12.731 -0.5558 -0.0890  0.5160
13040TIP3    H160611   5.120   6.387  12.742 -1.3373 -0.3458 -0.0658
13040TIP3    H260612   5.217   6.290  12.806 -0.6564  0.8307  0.7296
13041TIP3   OH260613   0.980   4.486  12.630 -0.9247  0.8483  0.0652
13041TIP3    H160614   0.901   4.434  12.639 -1.4582  1.3096 -1.5550
13041TIP3    H260615   1.034   4.438  12.567  0.7269 -0.1397  2.1072
13042TIP3   OH260616   1.391   1.835  14.629  0.2129  1.2992  0.0685
13042TIP3    H160617   1.456   1.800  14.690  0.2571  1.6725  0.2392
13042TIP3    H260618   1.441   1.886  14.566  0.2360  0.4027 -0.6676
13043TIP3   OH260619   3.860   0.047  13.218  0.6411 -0.2363  0.0053
13043TIP3    H160620   3.930   0.086  13.167  0.8612 -1.1598 -0.4140
13043TIP3    H260621   3.783   0.052  13.161  0.4337  0.4725  0.3361
13044TIP3   OH260622   1.584   3.818  12.932 -0.4243 -0.1982  0.3566
13044TIP3    H160623   1.597   3.726  12.909 -1.8695 -0.3921  0.2193
13044TIP3    H260624   1.553   3.817  13.022  2.7930  0.4124  1.6004
13045TIP3   OH260625   6.765   5.992   4.981  0.6256 -0.4140 -0.3763
13045TIP3    H160626   6.806   5.912   4.949  1.6993 -0.7175  1.6298
13045TIP3    H260627   6.671   5.971   4.985  0.8631 -1.4598 -0.1581
13046TIP3   OH260628   2.077   4.832   2.867 -0.3062  0.1526  0.5638
13046TIP3    H160629   2.086   4.738   2.884 -1.1004  0.2116  1.3432
13046TIP3    H260630   2.005   4.860   2.923 -0.8928  0.9908 -0.5762
13047TIP3   OH260631   2.307   1.775  16.565  0.0484 -0.4169  0.3543
13047TIP3    H160632   2.216   1.786  16.594  0.1363 -1.0616  0.9003
13047TIP3    H260633   2.321   1.680  16.568  1.5805 -0.1810  2.9059
13048TIP3   OH260634   1.022   6.415   2.925 -0.4877 -0.3834 -0.0163
13048TIP3    H160635   0.932   6.444   2.910  0.5458  1.7345 -2.6852
13048TIP3    H260636   1.071   6.495   2.945  1.3314 -1.0228 -1.5915
13049TIP3   OH260637   5.019   2.307  13.131  0.2997  0.1610 -0.1023
13049TIP3    H160638   5.000   2.389  13.085 -0.2515  0.5285  0.7575
13049TIP3    H260639   4.985   2.238  13.073 -3.3193  0.7519  1.0846
13050TIP3   OH260640   0.536   0.358   0.195 -0.5403 -0.6543 -0.2849
13050TIP3    H160641   0.446   0.381   0.173 -0.6569  0.0645  0.8422
13050TIP3    H260642   0.582   0.442   0.200  0.3741 -1.0490 -1.5064
13051TIP3   OH260643   1.624   2.965   2.184  0.4664  0.0590  0.0616
13051TIP3    H160644   1.624   2.936   2.275  0.4038 -0.1605 -0.0067
13051TIP3    H260645   1.668   3.050   2.185 -3.5471  2.3757  1.0275
13052TIP3   OH260646   0.546   4.387  15.541  0.0467  0.1380 -0.0026
13052TIP3    H160647   0.470   4.413  15.489  0.2692 -0.3768 -0.6094
13052TIP3    H260648   0.614   4.368  15.476  0.7865  0.8526  0.5363
13053TIP3   OH260649   3.645   3.365   1.188  0.5056 -0.1394  0.3733
13053TIP3    H160650   3.593   3.383   1.109 -0.1428  0.2398  0.8719
13053TIP3    H260651   3.709   3.301   1.160  1.0795  0.8905 -0.7691
13054TIP3   OH260652   5.995   4.857  10.864  0.1873 -0.9660 -0.0414
13054TIP3    H160653   5.914   4.855  10.915 -0.1310  1.8041 -0.2754
13054TIP3    H260654   5.974   4.810  10.783 -1.2229 -0.2357 -0.1220
13055TIP3   OH260655   3.285   1.330   4.519 -0.2013 -0.4300 -0.3813
13055TIP3    H160656   3.228   1.368   4.586  2.0064 -1.2446  2.1569
13055TIP3    H260657   3.278   1.235   4.532 -0.3711 -0.6707 -1.9617
13056TIP3   OH260658   1.738   5.624  16.533 -0.6095  0.2644 -0.8308
13056TIP3    H160659   1.715   5.542  16.576  2.4965 -0.0416  0.5414
13056TIP3    H260660   1.721   5.692  16.599  0.2761  0.2679 -0.5941
13057TIP3   OH260661   3.815   1.581  16.511 -0.0489 -0.0069 -0.3545
13057TIP3    H160662   3.881   1.563  16.578 -0.5297 -0.4700 -0.0017
13057TIP3    H260663   3.839   1.525  16.437  1.0498  1.2141 -0.9589
13058TIP3   OH260664   6.011   3.235  13.422 -0.9138  0.0483 -0.3522
13058TIP3    H160665   6.029   3.327  13.445  0.8003 -0.8897  2.5887
13058TIP3    H260666   5.997   3.192  13.507 -1.4909 -2.4701 -1.6364
13059TIP3   OH260667   0.691   4.379   5.078  0.9727  0.0787 -0.0721
13059TIP3    H160668   0.676   4.291   5.113  2.1867  0.1918  0.7964
13059TIP3    H260669   0.647   4.379   4.993 -1.2623 -0.5242  0.9870
13060TIP3   OH260670   0.880   4.216  14.394  0.6780  0.3901  0.2277
13060TIP3    H160671   0.961   4.212  14.343 -0.2330  2.1511 -1.5064
13060TIP3    H260672   0.811   4.208  14.329 -0.5660  3.4711  1.0213
13061TIP3   OH260673   1.899   0.168   1.801 -0.2285  0.0533  0.1617
13061TIP3    H160674   1.943   0.103   1.745 -1.6638 -0.6318 -0.2248
13061TIP3    H260675   1.809   0.172   1.767 -1.3276 -0.7888  2.7263
13062TIP3   OH260676   1.863   5.294  16.469 -0.3898  0.5655 -0.4525
13062TIP3    H160677   1.834   5.354  16.537  3.0490 -0.5546  2.2882
13062TIP3    H260678   1.841   5.207  16.503  1.6613 -0.0359 -0.5501
13063TIP3   OH260679   3.252   6.657  11.347 -0.2584 -0.6251  0.4372
13063TIP3    H160680   3.308   6.585  11.375 -0.9908 -1.2952  0.2148
13063TIP3    H260681   3.195   6.619  11.280 -0.3087  0.2901 -0.0635
13064TIP3   OH260682   0.742   1.419   5.803  0.0463  0.7667 -0.4852
13064TIP3    H160683   0.798   1.363   5.750  1.9230  1.1616  0.9943
13064TIP3    H260684   0.682   1.358   5.847  0.9247  0.0745 -0.2211
13065TIP3   OH260685   5.091   1.326   2.344 -0.2291  0.1602  0.2428
13065TIP3    H160686   5.042   1.405   2.321 -1.2872 -0.8586 -1.1519
13065TIP3    H260687   5.130   1.297   2.262  2.0330  0.4117  1.1390
13066TIP3   OH260688   1.190   3.131  11.795 -0.2218  0.1443 -0.0539
13066TIP3    H160689   1.116   3.181  11.829 -0.7796 -1.4898  1.2939
13066TIP3    H260690   1.160   3.098  11.711 -1.6607 -1.7214  1.1227
13067TIP3   OH260691   5.364   6.715  15.317  0.1137 -0.7150 -0.4356
13067TIP3    H160692   5.280   6.748  15.284 -1.0423 -2.4460  0.5880
13067TIP3    H260693   5.416   6.700  15.238 -0.5671  0.3233 -1.0974
13068TIP3   OH260694   4.391   1.060  13.065  0.2995  0.1548 -0.0048
13068TIP3    H160695   4.462   1.003  13.038 -0.3109 -1.3589  1.4454
13068TIP3    H260696   4.405   1.074  13.159 -2.1952 -1.6392  0.7525
13069TIP3   OH260697   3.508   4.004  16.766  0.2942 -0.0048  0.1779
13069TIP3    H160698   3.600   3.995  16.741  0.1996 -1.0246  0.1494
13069TIP3    H260699   3.463   3.938  16.714 -0.6419  1.2676 -0.7069
13070TIP3   OH260700   0.085   0.560   1.222 -0.2421  0.2746  0.1806
13070TIP3    H160701   0.029   0.487   1.194  0.9203 -0.5553 -0.0596
13070TIP3    H260702   0.158   0.559   1.160  0.6583  0.5484  1.2139
13071TIP3   OH260703   3.774   6.740  15.174  0.4596 -0.0537 -0.4644
13071TIP3    H160704   3.707   6.671  15.180  0.2190  0.2837  2.0142
13071TIP3    H260705   3.743   6.797  15.104 -2.3286  0.4823  1.0496
13072TIP3   OH260706   6.158   3.833   3.645  0.5304 -0.1964 -0.1884
13072TIP3    H160707   6.165   3.743   3.614  0.0699  0.1187 -1.2690
13072TIP3    H260708   6.248   3.859   3.667  0.9899 -0.2522 -1.8655
13073TIP3   OH260709   0.443   6.154   5.200 -0.3683 -0.1601 -0.8696
13073TIP3    H160710   0.447   6.062   5.175 -0.1925 -0.7280  1.0718
13073TIP3    H260711   0.357   6.165   5.241 -1.0543  0.9696 -2.5047
13074TIP3   OH260712   1.659   1.716   2.740 -0.1475  0.1232  0.1606
13074TIP3    H160713   1.689   1.762   2.818 -0.6964  0.0449  0.4189
13074TIP3    H260714   1.580   1.669   2.767  0.2337 -0.7458 -0.1715
13075TIP3   OH260715   2.218   1.961  11.399  0.2414  0.6571 -0.5181
13075TIP3    H160716   2.263   1.983  11.317 -0.1838  1.7153 -0.4920
13075TIP3    H260717   2.285   1.920  11.453  0.9497  1.3723 -0.8224
13076TIP3   OH260718   4.058   1.270  11.499  0.6535 -0.0303  0.6320
13076TIP3    H160719   4.135   1.281  11.443 -0.6743  1.8093 -0.9623
13076TIP3    H260720   4.012   1.353  11.493 -1.4445 -1.0437  1.6097
13077TIP3   OH260721   4.467   3.824   5.732  0.2273 -0.2433  0.1506
13077TIP3    H160722   4.465   3.728   5.740  1.3249 -0.2345  0.8663
13077TIP3    H260723   4.535   3.840   5.666 -0.5389  0.0329 -0.5861
13078TIP3   OH260724   2.903   1.612  16.050 -0.3910 -0.3806  0.4789
13078TIP3    H160725   2.965   1.539  16.038  0.9430  0.8456 -0.4225
13078TIP3    H260726   2.947   1.670  16.112 -2.1664 -1.0652  2.4886
13079TIP3   OH260727   3.591   2.635   1.038 -0.1862 -0.3716  0.1852
13079TIP3    H160728   3.592   2.546   1.002 -2.9012 -0.3823 -0.0568
13079TIP3    H260729   3.511   2.674   1.003  0.6740  2.0176  0.7110
13080TIP3   OH260730   4.628   5.042  16.571  0.2557  0.2320  0.4194
13080TIP3    H160731   4.548   4.990  16.562  1.0884 -1.6800  2.8588
13080TIP3    H260732   4.608   5.106  16.640  0.6108  0.1735  0.5823
13081TIP3   OH260733   2.659   5.199   1.370 -0.9043 -0.0060  0.4920
13081TIP3    H160734   2.598   5.151   1.314 -1.6529  0.1033  1.1951
13081TIP3    H260735   2.618   5.199   1.456 -0.6723  1.4686  0.6241
13082TIP3   OH260736   0.987   1.982   2.063 -0.0707  0.4460  0.0225
13082TIP3    H160737   1.025   1.971   2.150 -0.6873 -2.8517  0.0012
13082TIP3    H260738   1.061   1.971   2.003 -0.2686 -1.3882  0.0809
13083TIP3   OH260739   4.577   2.677  16.583 -0.3041 -0.2255  0.4034
13083TIP3    H160740   4.553   2.727  16.506  0.2933 -0.1849  0.2425
13083TIP3    H260741   4.545   2.589  16.566 -3.3011  0.5124  1.5859
13084TIP3   OH260742   0.635   2.627   5.797  0.5825  0.7296 -0.1386
13084TIP3    H160743   0.703   2.586   5.849  0.4138 -0.5882 -0.9035
13084TIP3    H260744   0.631   2.575   5.717 -0.1727  1.8039 -0.8374
13085TIP3   OH260745   4.576   0.958   1.532 -0.6192 -0.0984 -0.0882
13085TIP3    H160746   4.609   0.914   1.453 -0.4300  0.4210 -0.3034
13085TIP3    H260747   4.592   0.896   1.602 -0.7944 -0.5736 -0.4628
13086TIP3   OH260748   5.330   0.452  12.520 -0.3221  0.3127 -0.0501
13086TIP3    H160749   5.326   0.529  12.463  1.0479 -0.4728 -1.2894
13086TIP3    H260750   5.299   0.380  12.465  1.5331 -0.5657 -0.0429
13087TIP3   OH260751   1.979   0.799  15.721 -0.1783 -0.2393  0.0171
13087TIP3    H160752   1.903   0.857  15.730 -1.2310 -1.6224  0.5328
13087TIP3    H260753   2.032   0.817  15.798 -1.2903 -1.0064  1.0160
13088TIP3   OH260754   6.157   1.650  13.235  0.1442 -0.1550 -0.1097
13088TIP3    H160755   6.076   1.642  13.184  1.2588 -1.6295 -1.7691
13088TIP3    H260756   6.146   1.586  13.306 -0.4697  0.2574  0.1798
13089TIP3   OH260757   4.301   1.301  11.974 -0.2151 -0.5313  0.6149
13089TIP3    H160758   4.372   1.340  12.024 -2.0150  0.0899  2.8542
13089TIP3    H260759   4.245   1.374  11.949  0.3619 -0.8789 -2.0315
13090TIP3   OH260760   5.379   6.612   0.499  0.4506  0.0937  0.4584
13090TIP3    H160761   5.441   6.570   0.558 -0.6851 -1.6301  0.4754
13090TIP3    H260762   5.428   6.622   0.417  0.6072 -1.7870  0.2818
13091TIP3   OH260763   1.246   2.717  10.768  0.3951 -0.2282 -0.3288
13091TIP3    H160764   1.193   2.794  10.790  1.6081  0.5075  0.0918
13091TIP3    H260765   1.266   2.678  10.852 -0.6095 -1.3044 -0.5657
13092TIP3   OH260766   4.439   1.263  14.426  0.1004 -0.0759 -0.3081
13092TIP3    H160767   4.367   1.201  14.417 -0.3584 -0.2125  2.9589
13092TIP3    H260768   4.402   1.336  14.476  2.0812 -0.0303  1.2645
13093TIP3   OH260769   3.932   1.339   5.409 -0.1002  0.1612  0.3563
13093TIP3    H160770   4.025   1.316   5.418 -0.1227 -0.1984 -0.2827
13093TIP3    H260771   3.923   1.364   5.318 -0.5589  0.5618  0.5102
13094TIP3   OH260772   5.662   6.529   3.580  0.1292 -0.1774  0.0694
13094TIP3    H160773   5.636   6.450   3.532 -0.6320  0.1940 -0.1303
13094TIP3    H260774   5.582   6.580   3.589  0.0959 -0.5102  2.2761
13095TIP3   OH260775   5.089   2.007   3.380  0.1546 -0.6020  0.2290
13095TIP3    H160776   5.040   2.081   3.418 -1.6143 -1.0957 -0.9704
13095TIP3    H260777   5.052   1.930   3.423  1.5342 -0.8734  0.9884
13096TIP3   OH260778   4.541   4.511   3.947  0.5216  0.6020 -0.3665
13096TIP3    H160779   4.613   4.544   4.002 -0.1643 -0.8384  1.5296
13096TIP3    H260780   4.545   4.416   3.959 -0.2823  0.3325 -2.0961
13097TIP3   OH260781   2.217   0.928  15.825 -0.6352 -0.2633 -0.7005
13097TIP3    H160782   2.158   1.003  15.823 -0.1254  0.1552 -0.3457
13097TIP3    H260783   2.247   0.923  15.916  0.9005  0.3627 -1.1421
13098TIP3   OH260784   2.828   1.824  13.858  0.4161  0.1589 -0.5813
13098TIP3    H160785   2.904   1.776  13.825  0.1515  0.1476 -1.1984
13098TIP3    H260786   2.825   1.804  13.951 -0.1842 -1.7198 -0.9804
13099TIP3   OH260787   5.859   0.214   2.196 -0.4346  0.4833 -0.0556
13099TIP3    H160788   5.948   0.184   2.211 -0.7525 -1.0951 -0.9896
13099TIP3    H260789   5.868   0.288   2.136  0.3352  1.6841  1.4929
13100TIP3   OH260790   2.771   5.326   1.956 -0.0533 -1.0013  0.3663
13100TIP3    H160791   2.685   5.323   1.915 -2.1403  1.1295  4.0480
13100TIP3    H260792   2.784   5.419   1.979  3.1961 -1.2587  0.1175
13101TIP3   OH260793   4.021   3.408   4.270  0.8137  0.3051  0.1958
13101TIP3    H160794   3.942   3.363   4.301  1.9949 -0.5856  2.0471
13101TIP3    H260795   3.996   3.500   4.266 -0.9084 -0.1532 -1.2531
13102TIP3   OH260796   2.078   6.424   1.958 -0.1170  0.7105  0.1800
13102TIP3    H160797   2.068   6.507   2.005 -1.0524  1.4097 -1.1967
13102TIP3    H260798   2.119   6.448   1.875 -0.9525 -0.1084 -0.4969
13103TIP3   OH260799   3.222   3.109  11.451  0.0009  0.3099 -0.2516
13103TIP3    H160800   3.264   3.194  11.457  0.3026  0.1736 -0.4035
13103TIP3    H260801   3.231   3.071  11.538 -2.9371  1.7187  0.7934
13104TIP3   OH260802   0.873   6.409  16.240 -0.0113  0.0079  0.0285
13104TIP3    H160803   0.904   6.340  16.181  0.2354  0.2755 -0.1576
13104TIP3    H260804   0.946   6.424  16.300  0.3522  0.8419 -0.5924
13105TIP3   OH260805   4.884   5.926   4.352  0.5113  0.2691 -0.2784
13105TIP3    H160806   4.815   5.989   4.331 -0.9172  0.0162  2.9716
13105TIP3    H260807   4.937   5.970   4.418  2.4074 -0.2620 -1.3651
13106TIP3   OH260808   2.224   1.571  14.515 -0.1594 -0.5465 -0.4218
13106TIP3    H160809   2.134   1.601  14.509  0.0018 -0.2025 -1.2914
13106TIP3    H260810   2.252   1.596  14.603  0.7601  4.3482 -1.7764
13107TIP3   OH260811   3.651   6.606  13.281  0.5727 -0.2249  0.0880
13107TIP3    H160812   3.585   6.537  13.293  0.8570 -0.4527  0.3661
13107TIP3    H260813   3.675   6.632  13.370  2.4466 -1.6799  0.0954
13108TIP3   OH260814   3.420   2.623   5.162  0.2667  0.0248 -0.2788
13108TIP3    H160815   3.507   2.646   5.196 -0.0399 -0.6952  1.0949
13108TIP3    H260816   3.383   2.705   5.131  0.4238  0.8480  1.5827
13109TIP3   OH260817   0.074   6.060  11.395  0.1092  0.0596 -0.3587
13109TIP3    H160818   0.104   5.970  11.412 -0.0539  0.1815  0.6622
13109TIP3    H260819   0.005   6.074  11.459 -0.2749  0.7198 -0.9092
13110TIP3   OH260820   0.464   5.327  12.511 -0.6988  0.1665 -0.6729
13110TIP3    H160821   0.502   5.397  12.458 -1.4556  0.2905 -1.0656
13110TIP3    H260822   0.514   5.249  12.486 -1.6692  0.0204 -2.3450
13111TIP3   OH260823   4.754   3.243  13.708 -0.4861  0.1383 -0.6848
13111TIP3    H160824   4.832   3.285  13.745 -0.3841 -0.0146 -0.7258
13111TIP3    H260825   4.681   3.282  13.756 -0.3311 -0.3302 -0.0539
13112TIP3   OH260826   1.025   3.598  14.452  0.1661  0.3167 -0.0917
13112TIP3    H160827   1.019   3.588  14.547 -1.2796  0.8994 -0.1011
13112TIP3    H260828   0.955   3.543  14.417  0.4828  0.3529 -0.8079
13113TIP3   OH260829   3.678   0.392   2.915  0.2122 -0.3055 -0.3049
13113TIP3    H160830   3.772   0.403   2.903  0.1330 -1.2810 -2.2540
13113TIP3    H260831   3.647   0.479   2.939  1.4330  0.3821 -1.0859
13114TIP3   OH260832   2.451   4.043  11.805  0.5244 -0.0964  0.2339
13114TIP3    H160833   2.367   4.010  11.774  0.6806  1.1207 -1.7184
13114TIP3    H260834   2.431   4.092  11.885 -0.4776 -0.5549  0.2725
13115TIP3   OH260835   3.812   5.257  16.954 -0.2401 -0.8861 -0.1305
13115TIP3    H160836   3.825   5.193  17.024  0.9906 -0.5795 -0.0533
13115TIP3    H260837   3.876   5.233  16.887  0.1582  0.1673 -0.1532
13116TIP3   OH260838   0.875   0.758   4.421  0.0854  0.6423 -0.5461
13116TIP3    H160839   0.823   0.715   4.488  0.9798 -0.0924 -0.3050
13116TIP3    H260840   0.893   0.845   4.458 -0.9500  0.9090 -0.6383
13117TIP3   OH260841   2.397   2.641  15.329 -0.3205  0.9445 -0.2356
13117TIP3    H160842   2.379   2.562  15.278 -0.3385 -0.3292  1.6498
13117TIP3    H260843   2.454   2.693  15.273 -0.4020 -0.3385 -1.5814
13118TIP3   OH260844   2.898   0.682   2.231 -0.1080  0.3231  0.7202
13118TIP3    H160845   2.856   0.711   2.150  0.1573 -1.4944 -0.1038
13118TIP3    H260846   2.980   0.641   2.203 -0.4039 -1.0840  1.8255
13119TIP3   OH260847   3.477   5.512  15.375  0.1230 -0.8771  0.1271
13119TIP3    H160848   3.422   5.489  15.451  0.6315  0.6194  0.9956
13119TIP3    H260849   3.417   5.558  15.316  0.2125 -0.0155  0.6819
13120TIP3   OH260850   6.160   0.922  16.829 -0.0566  0.4998 -0.2749
13120TIP3    H160851   6.162   0.827  16.834 -2.2977  0.3685 -0.7578
13120TIP3    H260852   6.088   0.948  16.888  0.2527  1.8538 -0.4521
13121TIP3   OH260853   2.072   3.892  14.869 -0.1438 -0.3898 -0.2345
13121TIP3    H160854   2.111   3.924  14.950 -0.2286 -0.5302 -0.1391
13121TIP3    H260855   2.127   3.818  14.843 -1.6474 -2.0472  1.0920
13122TIP3   OH260856   4.525   2.571   5.391 -0.3307 -0.5229  0.4233
13122TIP3    H160857   4.514   2.498   5.451 -0.0608  0.9965  2.4212
13122TIP3    H260858   4.453   2.631   5.412 -0.9825 -0.4776 -1.6590
13123TIP3   OH260859   1.346   4.761   5.294 -0.1027 -0.1219  0.1525
13123TIP3    H160860   1.381   4.818   5.363 -1.6900  1.4487 -0.2433
13123TIP3    H260861   1.393   4.786   5.215 -0.3637  0.2250  0.1027
13124TIP3   OH260862   0.045   3.082   2.455  0.3965 -0.4122 -0.0036
13124TIP3    H160863  -0.050   3.082   2.453  0.4034 -0.2348 -0.6606
13124TIP3    H260864   0.068   3.027   2.529 -0.2019 -1.3906 -0.5343
13125TIP3   OH260865   1.932   0.451   4.434 -0.5740  0.0896  0.1966
13125TIP3    H160866   1.939   0.425   4.342  1.3926  1.6404 -0.1591
13125TIP3    H260867   1.938   0.546   4.433  2.6168  0.0571  2.0741
13126TIP3   OH260868   1.507   3.750   6.163  0.3818  0.5380 -0.4192
13126TIP3    H160869   1.581   3.731   6.105  1.3454  0.1948  0.8736
13126TIP3    H260870   1.545   3.749   6.251 -1.5162 -1.6704  0.4711
13127TIP3   OH260871   1.272   4.046  11.519  0.5021  0.0811  0.5986
13127TIP3    H160872   1.294   4.116  11.457  1.3216 -0.2217  0.5353
13127TIP3    H260873   1.241   3.974  11.464  1.2831 -0.2080  0.5243
13128TIP3   OH260874   4.691   6.132   4.294 -0.3712  0.0488 -0.1198
13128TIP3    H160875   4.603   6.146   4.258 -0.4238 -0.2321 -0.1053
13128TIP3    H260876   4.750   6.162   4.225 -0.4803  0.2909 -0.1072
13129TIP3   OH260877   5.620   6.050   5.082 -0.1198  0.3074  0.1116
13129TIP3    H160878   5.665   6.125   5.120 -0.4383  0.8633 -0.5775
13129TIP3    H260879   5.687   5.981   5.080  1.0132  1.3650 -1.6702
13130TIP3   OH260880   2.143   2.885   5.679 -0.6764  0.3948  0.5104
13130TIP3    H160881   2.106   2.798   5.693 -1.6195  0.5706 -0.7331
13130TIP3    H260882   2.080   2.945   5.719 -0.3451  0.5469  0.8107
13131TIP3   OH260883   3.560   4.244  12.702 -0.6046  0.3340  0.1296
13131TIP3    H160884   3.497   4.174  12.721 -0.8349  0.3024 -0.6908
13131TIP3    H260885   3.632   4.199  12.657 -0.6063  0.5685 -0.1109
13132TIP3   OH260886   3.019   3.258  11.870 -0.5211  0.0693 -0.1793
13132TIP3    H160887   2.961   3.329  11.844 -0.8162  0.4118  1.3177
13132TIP3    H260888   3.025   3.265  11.965  0.0425 -1.4484 -0.0683
13133TIP3   OH260889   6.176   1.431   0.393  0.0966 -0.2472 -0.2968
13133TIP3    H160890   6.137   1.359   0.443  0.8505 -1.8596 -1.8678
13133TIP3    H260891   6.248   1.389   0.345  0.2490  1.4686 -1.6514
13134TIP3   OH260892   1.357   4.100   2.742 -0.1191  0.2826  0.1501
13134TIP3    H160893   1.292   4.076   2.676 -1.1038  0.8097  0.9020
13134TIP3    H260894   1.372   4.193   2.727  1.0585  0.0027 -0.5112
13135TIP3   OH260895   2.320   2.461  15.138  0.1242  0.3906  0.6196
13135TIP3    H160896   2.253   2.470  15.070  0.3807 -1.6479  0.0525
13135TIP3    H260897   2.401   2.445  15.090  1.1872  3.2138  1.2762
13136TIP3   OH260898   2.991   4.298   2.831 -0.6074  0.1083  0.7677
13136TIP3    H160899   3.086   4.293   2.834 -0.3776  2.1658 -1.1049
13136TIP3    H260900   2.970   4.383   2.870 -1.7344 -0.5358  1.6177
13137TIP3   OH260901   6.591   1.109   4.543 -0.4030  0.4162 -0.7128
13137TIP3    H160902   6.645   1.166   4.487 -0.4723 -1.1344 -2.4651
13137TIP3    H260903   6.535   1.169   4.592  0.7779  1.9193 -1.1215
13138TIP3   OH260904   1.500   4.332   1.123  0.1311  0.3145  0.4235
13138TIP3    H160905   1.510   4.245   1.162 -0.7692 -0.4474 -0.9617
13138TIP3    H260906   1.456   4.383   1.191  0.5536 -0.3411  1.2091
13139TIP3   OH260907   1.912   0.205  13.893 -0.2653 -0.8863 -0.4299
13139TIP3    H160908   1.989   0.199  13.837 -0.1567 -0.3385 -0.3398
13139TIP3    H260909   1.947   0.203  13.982 -0.3280 -0.2876 -0.3901
13140TIP3   OH260910   6.752   1.942   2.459  0.1261 -0.0948 -0.2355
13140TIP3    H160911   6.741   2.021   2.511 -0.8348  0.3786 -1.1277
13140TIP3    H260912   6.715   1.872   2.512  0.6393  0.1056  0.3961
13141TIP3   OH260913   2.560   6.202  11.750 -0.0109 -0.3114 -0.6293
13141TIP3    H160914   2.650   6.173  11.735  0.5460  0.7433  0.5519
13141TIP3    H260915   2.539   6.255  11.674  0.3139 -0.6703 -0.9752
13142TIP3   OH260916   5.407   2.112   2.304 -0.3554 -0.4454 -0.3506
13142TIP3    H160917   5.355   2.036   2.330 -1.2668  0.4118  0.4036
13142TIP3    H260918   5.342   2.176   2.275  0.3604  0.2696 -0.3858
13143TIP3   OH260919   1.833   0.615   3.956  0.3253 -0.1833 -0.1787
13143TIP3    H160920   1.780   0.689   3.989 -0.3219 -1.4816  1.9163
13143TIP3    H260921   1.778   0.538   3.971  0.6030 -1.0764 -3.1607
13144TIP3   OH260922   1.213   3.380   5.085 -0.1065 -0.8078 -0.3595
13144TIP3    H160923   1.264   3.411   5.010 -2.2540  0.3570 -1.4370
13144TIP3    H260924   1.126   3.362   5.049 -1.7383  1.4524  2.0800
13145TIP3   OH260925   0.121   5.213   1.108  0.4352 -0.2290 -0.2690
13145TIP3    H160926   0.112   5.250   1.020 -1.7004  0.0263  0.0173
13145TIP3    H260927   0.046   5.247   1.156  1.6083 -0.2845  1.7158
13146TIP3   OH260928   5.930   6.396   1.335 -0.0717  0.0706 -0.2904
13146TIP3    H160929   6.019   6.408   1.367 -0.7425  1.1468  1.3061
13146TIP3    H260930   5.908   6.305   1.356 -0.0208  0.3695  1.1463
13147TIP3   OH260931   0.819   1.950   2.394 -0.7563 -0.4383 -0.0386
13147TIP3    H160932   0.771   1.917   2.319  1.4930 -2.5432 -0.6621
13147TIP3    H260933   0.911   1.939   2.371  0.0959  2.1676  1.6361
13148TIP3   OH260934   1.624   4.252  15.994 -0.1808 -0.0454 -0.3563
13148TIP3    H160935   1.591   4.193  15.926  0.2467 -1.1717  0.3840
13148TIP3    H260936   1.626   4.338  15.953 -1.2197 -0.4730 -1.3357
13149TIP3   OH260937   5.827   1.123  11.065 -0.1850 -0.0962 -0.0820
13149TIP3    H160938   5.767   1.084  11.002  0.5469  1.0604 -1.5587
13149TIP3    H260939   5.774   1.187  11.112 -0.0279  1.3523 -1.7940
13150TIP3   OH260940   2.099   5.056  13.653  0.2189  0.3161  0.2859
13150TIP3    H160941   2.171   5.076  13.594  1.2502  3.0020  2.2395
13150TIP3    H260942   2.138   5.000  13.720 -0.8685 -2.4703 -1.2671
13151TIP3   OH260943   5.733   2.587   3.972  0.4337 -0.3142 -0.0471
13151TIP3    H160944   5.666   2.638   4.017  0.0471 -0.9091  0.0635
13151TIP3    H260945   5.797   2.652   3.943 -0.2868  0.2883 -0.3250
13152TIP3   OH260946   1.912   1.038   2.307  0.4573 -0.1326  0.4711
13152TIP3    H160947   1.900   0.956   2.259  0.8994 -1.2607  2.1980
13152TIP3    H260948   1.957   1.095   2.246 -0.2497 -1.0137 -0.9273
13153TIP3   OH260949   4.224   0.574  15.607 -0.3708  0.2563 -0.2792
13153TIP3    H160950   4.290   0.630  15.648 -0.0291 -1.1667  1.1905
13153TIP3    H260951   4.254   0.564  15.517 -0.4832  2.4634 -0.6190
13154TIP3   OH260952   1.376   2.281  12.016  0.0379 -0.0229 -0.0554
13154TIP3    H160953   1.281   2.288  12.019 -0.0003  0.1452 -1.2049
13154TIP3    H260954   1.394   2.187  12.015 -0.1458 -0.0568 -0.3516
13155TIP3   OH260955   4.266   1.381   0.029  0.5849 -0.1039 -0.2877
13155TIP3    H160956   4.210   1.454   0.000  0.0618 -0.7729 -1.0185
13155TIP3    H260957   4.331   1.422   0.086  0.0302  0.8674 -0.3238
13156TIP3   OH260958   2.287   0.690   4.660  0.0981 -0.2693  0.5911
13156TIP3    H160959   2.224   0.624   4.691 -1.0904  0.2579 -0.5720
13156TIP3    H260960   2.245   0.774   4.677  1.3939  0.2083  1.6133
13157TIP3   OH260961   5.617   0.996   0.986 -0.5402 -0.6373  0.0721
13157TIP3    H160962   5.613   0.907   1.021 -4.6955 -1.2075 -1.2599
13157TIP3    H260963   5.612   0.984   0.891 -0.6477  1.0350 -0.1628
13158TIP3   OH260964   4.576   1.215  14.181 -0.1337  0.9571  0.1127
13158TIP3    H160965   4.662   1.173  14.175 -1.2715 -1.6835  1.0013
13158TIP3    H260966   4.539   1.183  14.263 -2.2138  1.5044 -0.5535
13159TIP3   OH260967   3.481   2.789   4.530 -0.0612  0.0529  1.1282
13159TIP3    H160968   3.549   2.772   4.595  1.5954  0.2125 -0.4722
13159TIP3    H260969   3.460   2.702   4.494 -0.8319 -0.0140  1.7253
13160TIP3   OH260970   6.293   6.784  13.434 -0.3432  0.3932 -0.0315
13160TIP3    H160971   6.363   6.819  13.489  0.6638  2.3940 -2.3588
13160TIP3    H260972   6.253   6.716  13.486  1.3584  1.2631  2.6155
13161TIP3   OH260973   5.108   5.747   3.375  0.1626 -0.6215 -0.1017
13161TIP3    H160974   5.027   5.706   3.408  1.2370 -1.6258  1.4299
13161TIP3    H260975   5.078   5.812   3.312 -1.8513 -0.8457  0.5547
13162TIP3   OH260976   0.348   4.862   5.732 -0.2870  0.3584  0.6356
13162TIP3    H160977   0.257   4.837   5.721 -0.1982  1.0489 -3.0489
13162TIP3    H260978   0.390   4.785   5.770 -1.9462 -1.0061 -0.1505
13163TIP3   OH260979   4.193   6.823   3.296  0.1948 -0.9662 -0.2130
13163TIP3    H160980   4.139   6.818   3.217 -0.6509 -0.5871  0.3232
13163TIP3    H260981   4.277   6.856   3.266 -0.9493  1.9173 -0.6191
13164TIP3   OH260982   2.247   1.235   5.161 -0.4318  0.2030 -0.2119
13164TIP3    H160983   2.172   1.262   5.215 -0.7950 -0.5264 -0.3438
13164TIP3    H260984   2.290   1.318   5.137  0.5115  0.5198  2.2606
13165TIP3   OH260985   5.297   4.776  15.985 -0.2211  0.5312 -0.1169
13165TIP3    H160986   5.202   4.782  15.994 -0.0298  1.7671  1.8480
13165TIP3    H260987   5.320   4.848  15.927 -0.5053 -0.0194 -0.9237
13166TIP3   OH260988   5.776   5.771  11.406 -0.2151 -0.3613 -0.1894
13166TIP3    H160989   5.854   5.827  11.410 -0.2599 -0.2713 -0.5141
13166TIP3    H260990   5.733   5.784  11.490 -0.6648  0.7388 -0.5731
13167TIP3   OH260991   1.260   3.334   3.838 -0.0337  0.0972 -0.4227
13167TIP3    H160992   1.198   3.264   3.860 -0.4967  0.1033 -1.6428
13167TIP3    H260993   1.289   3.367   3.923 -1.3656 -0.2079  0.1845
13168TIP3   OH260994   3.926   3.478  16.782  0.2686  0.4976  0.1642
13168TIP3    H160995   3.989   3.451  16.849 -0.8610 -2.5648  0.1640
13168TIP3    H260996   3.908   3.398  16.733 -1.8222  1.7981 -1.3538
13169TIP3   OH260997   1.100   0.408  13.863 -0.4690 -0.3047  0.4100
13169TIP3    H160998   1.187   0.371  13.877 -0.0527  0.8258  0.8950
13169TIP3    H260999   1.088   0.404  13.768  0.8083  1.0358  0.1676
13170TIP3   OH261000   1.655   3.498   1.059  0.5393  0.5804  0.1360
13170TIP3    H161001   1.751   3.504   1.059  0.8073 -2.2329 -1.3974
13170TIP3    H261002   1.629   3.522   0.970  0.0327 -0.7212 -0.0830
13171TIP3   OH261003   5.854   5.839  17.135  1.2277 -0.0080  0.0473
13171TIP3    H161004   5.934   5.830  17.187  2.3249  1.6094 -1.2336
13171TIP3    H261005   5.870   5.786  17.057  0.7433 -0.2568  0.1156
13172TIP3   OH261006   3.106   6.621  12.483  0.4914  0.4299  0.0307
13172TIP3    H161007   3.117   6.548  12.422  0.7058  1.3820 -1.1045
13172TIP3    H261008   3.024   6.663  12.456  2.4372  3.1528 -2.1662
13173TIP3   OH261009   6.501   1.640   4.529 -0.4256  0.0998 -0.2658
13173TIP3    H161010   6.447   1.575   4.485 -0.3216 -0.7119  0.7772
13173TIP3    H261011   6.447   1.719   4.530 -1.9007 -0.8597  1.3169
13174TIP3   OH261012   0.452   0.038  11.519  0.3566 -0.0154 -0.0590
13174TIP3    H161013   0.487   0.067  11.435  1.8434 -2.6031 -0.4331
13174TIP3    H261014   0.410  -0.046  11.499 -2.6735  1.0869  1.1434
13175TIP3   OH261015   0.909   6.057  14.844  0.0970 -0.1913 -0.2761
13175TIP3    H161016   0.868   6.138  14.872 -0.2393 -0.6829  0.7287
13175TIP3    H261017   0.892   6.052  14.750  0.1988  0.9324 -0.3594
13176TIP3   OH261018   0.365   4.898  12.974 -0.2889 -0.0352 -0.4159
13176TIP3    H161019   0.410   4.843  13.039  0.9215  0.1338 -1.0711
13176TIP3    H261020   0.273   4.875  12.982 -0.1363 -0.2000  1.1847
13177TIP3   OH261021   3.334   4.709  16.154  0.0137  0.2040  0.2490
13177TIP3    H161022   3.335   4.789  16.102 -1.4899 -0.6985 -1.2823
13177TIP3    H261023   3.250   4.712  16.201 -0.7263 -1.0639 -0.9076
13178TIP3   OH261024   4.749   2.793  12.108  0.0724  0.1552  0.2004
13178TIP3    H161025   4.737   2.710  12.062  1.5677  0.2978 -0.5194
13178TIP3    H261026   4.833   2.826  12.075  0.2875  1.1618  1.6935
13179TIP3   OH261027   1.949   0.017  11.133 -0.4573 -0.2634  0.3977
13179TIP3    H161028   1.911  -0.026  11.056  2.3254  0.6564 -1.6550
13179TIP3    H261029   1.900   0.099  11.141  0.4170  0.5131 -1.6462
13180TIP3   OH261030   3.144   1.193   0.382  0.2236  0.3896 -0.1815
13180TIP3    H161031   3.084   1.127   0.346 -0.3201  0.0722  1.2239
13180TIP3    H261032   3.173   1.155   0.465  1.3275  1.1450 -0.2086
13181TIP3   OH261033   2.017   4.943  10.707  0.0470 -0.4930 -0.3913
13181TIP3    H161034   2.089   4.994  10.743  0.1242 -0.9200  0.0699
13181TIP3    H261035   1.961   5.007  10.663  0.5245 -0.1164 -0.4456
13182TIP3   OH261036   6.239   3.289   2.554  0.2365 -0.5751  0.0807
13182TIP3    H161037   6.294   3.221   2.515  1.2843  1.1647 -1.6675
13182TIP3    H261038   6.166   3.299   2.494  1.2115  1.2543 -0.9136
13183TIP3   OH261039   4.964   3.834  12.775  0.3473 -0.2320 -0.1307
13183TIP3    H161040   4.880   3.817  12.733  0.3018 -0.1419 -0.0772
13183TIP3    H261041   4.975   3.762  12.837  0.6504 -0.6393 -0.6475
13184TIP3   OH261042   4.619   4.781  12.254  0.1333 -0.3213  0.0074
13184TIP3    H161043   4.670   4.703  12.231 -1.2522 -1.8091  1.7460
13184TIP3    H261044   4.677   4.831  12.313  0.6321 -0.5398 -0.2909
13185TIP3   OH261045   3.028   0.857  12.287  0.0733 -0.0883  0.6022
13185TIP3    H161046   3.085   0.912  12.234 -0.1533  0.1002  0.5533
13185TIP3    H261047   3.072   0.851  12.372 -0.1732  0.6211  0.7842
13186TIP3   OH261048   2.689   6.561  17.012  0.8237  0.2760  0.1081
13186TIP3    H161049   2.603   6.570  17.053 -0.3272  1.3284 -2.3241
13186TIP3    H261050   2.713   6.470  17.026 -0.8422 -0.1228  0.5964
13187TIP3   OH261051   3.725   3.711   5.872 -0.1874  0.4556 -0.4624
13187TIP3    H161052   3.801   3.765   5.895  0.3434  0.2985 -1.7566
13187TIP3    H261053   3.727   3.638   5.933  0.1204  0.9691  0.1520
13188TIP3   OH261054   4.058   1.454  13.048 -0.2555 -0.5337 -0.2551
13188TIP3    H161055   4.044   1.378  12.992  0.0973 -0.6418 -0.1931
13188TIP3    H261056   3.970   1.489  13.062 -0.6581 -2.0694  1.3481
13189TIP3   OH261057   4.624   5.350   2.639 -0.6594 -0.2833 -0.7271
13189TIP3    H161058   4.697   5.411   2.627  0.1849 -1.2087 -0.4645
13189TIP3    H261059   4.567   5.367   2.564 -0.2685  0.5841 -0.8443
13190TIP3   OH261060   6.310   3.163  15.239 -0.4929 -0.1768 -1.1083
13190TIP3    H161061   6.323   3.099  15.309 -1.4503  1.5333  0.7352
13190TIP3    H261062   6.396   3.170  15.198  0.0778 -1.3264 -0.1909
13191TIP3   OH261063   3.679   4.152   1.161 -0.0723  0.6291 -0.9573
13191TIP3    H161064   3.742   4.180   1.095 -1.1619  1.7194 -1.5735
13191TIP3    H261065   3.732   4.129   1.237  1.1595 -0.0025 -1.9840
13192TIP3   OH261066   3.144   2.521   5.273 -0.5092 -0.1594  0.0479
13192TIP3    H161067   3.080   2.454   5.297 -0.5494 -0.1197  0.0522
13192TIP3    H261068   3.101   2.571   5.203  0.0285 -0.9536 -0.8903
13193TIP3   OH261069   2.844   3.862   4.769 -0.6915 -0.5726 -0.2315
13193TIP3    H161070   2.888   3.947   4.777 -0.0487 -0.5000 -3.3668
13193TIP3    H261071   2.772   3.878   4.708 -0.5643 -2.2569 -0.8597
13194TIP3   OH261072   3.958   2.680   5.170 -0.2437  0.3409 -0.3564
13194TIP3    H161073   3.926   2.742   5.104 -0.7268  1.2309  0.6817
13194TIP3    H261074   4.038   2.644   5.131  1.1260  3.0034 -0.2627
13195TIP3   OH261075   3.374   5.587  13.997  0.8109 -0.2693 -0.4159
13195TIP3    H161076   3.451   5.628  13.959  2.8255 -2.5523  0.9224
13195TIP3    H261077   3.354   5.513  13.939 -2.1501  1.6909 -2.2324
13196TIP3   OH261078   3.004   1.093   4.555  0.3044  0.6635 -0.3421
13196TIP3    H161079   3.086   1.093   4.604  1.4722  0.0057 -2.1773
13196TIP3    H261080   2.994   1.002   4.526 -1.7664  0.4430  0.8657
13197TIP3   OH261081   1.234   3.331   4.596 -0.2432 -0.1933  0.5279
13197TIP3    H161082   1.306   3.340   4.534 -0.4831  0.6180  0.3476
13197TIP3    H261083   1.238   3.240   4.625  0.6210 -0.2562  0.2428
13198TIP3   OH261084   2.408   2.428   4.666  0.1125  0.0882 -0.3147
13198TIP3    H161085   2.350   2.432   4.590 -1.2886  0.0491  0.7353
13198TIP3    H261086   2.419   2.335   4.683  1.6302  0.0415 -1.3286
13199TIP3   OH261087   0.919   3.422  17.062  0.4121  0.5015 -0.0498
13199TIP3    H161088   0.930   3.507  17.019  0.3530  1.0476  0.9807
13199TIP3    H261089   0.833   3.428  17.105  0.1483 -0.3000 -0.4448
13200TIP3   OH261090   0.877   6.610   3.621 -0.8176 -0.1454  0.6155
13200TIP3    H161091   0.874   6.706   3.625 -3.2699 -0.0970 -0.4726
13200TIP3    H261092   0.930   6.591   3.544 -0.1395  0.3172  0.9576
13201TIP3   OH261093   2.521   5.702   5.314  0.6045 -0.4628  0.1241
13201TIP3    H161094   2.517   5.798   5.308 -0.0963 -0.5348 -0.6323
13201TIP3    H261095   2.542   5.673   5.225  0.3571 -1.0431  0.2527
13202TIP3   OH261096   4.062   6.512   2.491 -0.4267  0.5927 -0.6641
13202TIP3    H161097   3.995   6.466   2.439 -0.6999  1.6444 -1.2641
13202TIP3    H261098   4.118   6.553   2.426  0.2419  0.5280 -0.1386
13203TIP3   OH261099   2.653   2.332   0.164  0.1601 -0.0066  0.0268
13203TIP3    H161100   2.657   2.237   0.153  0.7727 -0.5104  3.5250
13203TIP3    H261101   2.733   2.354   0.211  0.7183  2.5225 -1.9431
13204TIP3   OH261102   0.978   0.863   2.205 -0.2116  0.0100  0.4511
13204TIP3    H161103   0.973   0.791   2.142  0.0923 -0.9096  1.4619
13204TIP3    H261104   1.068   0.895   2.197 -0.8120  1.4575 -1.2349
13205TIP3   OH261105   4.740   4.398   4.078  0.3221 -0.0628  0.0972
13205TIP3    H161106   4.830   4.419   4.104 -0.0810 -0.2983  1.8116
13205TIP3    H261107   4.741   4.303   4.065  0.2515 -0.1182  0.4741
13206TIP3   OH261108   3.458   5.096  12.216 -0.7363  0.0198  0.3863
13206TIP3    H161109   3.532   5.114  12.274 -0.1845 -0.8266 -0.0397
13206TIP3    H261110   3.381   5.120  12.267 -0.2006  0.4061  1.0288
13207TIP3   OH261111   2.757   4.499  13.517  0.3587  0.0030 -0.0244
13207TIP3    H161112   2.700   4.547  13.457  2.3941  1.6375 -0.7982
13207TIP3    H261113   2.704   4.426  13.548 -2.1095  1.4071 -0.6773
13208TIP3   OH261114   2.132   3.516  13.796 -0.5125  0.4385  0.0447
13208TIP3    H161115   2.200   3.513  13.863  0.6895 -0.0649 -1.1609
13208TIP3    H261116   2.083   3.435  13.809 -1.0058  0.8719  1.0112
13209TIP3   OH261117   4.031   6.455   5.430 -0.2848 -0.0663 -0.2068
13209TIP3    H161118   4.003   6.414   5.512 -1.2766  0.4059 -0.2931
13209TIP3    H261119   3.986   6.539   5.428  0.5660  0.3946 -0.7371
13210TIP3   OH261120   0.249   1.567   0.135 -0.4493 -0.0350 -0.3997
13210TIP3    H161121   0.201   1.600   0.211  0.1445 -0.2698  0.0775
13210TIP3    H261122   0.207   1.483   0.116 -0.1666 -0.2885  0.0814
13211TIP3   OH261123   5.527   3.153   5.752  0.1186  0.3047 -0.2531
13211TIP3    H161124   5.557   3.138   5.841 -2.0853  0.4730  0.5686
13211TIP3    H261125   5.442   3.110   5.747 -0.1672  0.9645 -2.0428
13212TIP3   OH261126   1.991   6.025   3.546 -0.3110 -0.1295  0.1611
13212TIP3    H161127   1.954   5.986   3.467  1.3477 -0.4195 -0.5255
13212TIP3    H261128   1.988   6.119   3.529  2.2557 -0.2121 -1.4321
13213TIP3   OH261129   4.661   1.650   2.948  0.1425 -0.3095  0.3140
13213TIP3    H161130   4.623   1.615   2.867 -0.0158  3.0780 -1.2761
13213TIP3    H261131   4.588   1.649   3.011 -0.6932 -0.0611 -0.6199
13214TIP3   OH261132   3.876   6.391  15.467 -0.7680  0.0612  0.0629
13214TIP3    H161133   3.950   6.331  15.457 -0.3843  0.6621 -0.7768
13214TIP3    H261134   3.874   6.410  15.561 -0.6513 -0.9410  0.2836
13215TIP3   OH261135   5.580   4.114   0.535  0.6964  0.4201  0.7017
13215TIP3    H161136   5.635   4.177   0.488  0.4164  0.0375 -0.1585
13215TIP3    H261137   5.585   4.141   0.627  0.6118  1.6687  0.3525
13216TIP3   OH261138   2.943   2.499   5.687 -0.0470  0.0672  0.2935
13216TIP3    H161139   2.864   2.544   5.719  0.8635  1.5178  0.6453
13216TIP3    H261140   3.015   2.547   5.729  1.0059 -1.7418  0.6416
13217TIP3   OH261141   3.515   5.912  10.739  0.1842 -0.5053  0.7232
13217TIP3    H161142   3.475   5.965  10.808 -1.3943  1.3078 -1.4587
13217TIP3    H261143   3.607   5.938  10.740 -0.2069  0.9598  0.8853
13218TIP3   OH261144   3.769   3.077  13.605 -0.3244  0.1309 -0.4937
13218TIP3    H161145   3.808   3.119  13.681 -0.9055 -0.8680  0.3751
13218TIP3    H261146   3.685   3.120  13.594  0.3465  1.2544 -1.4615
13219TIP3   OH261147   5.782   5.389   5.429 -0.4394  0.4385  0.2784
13219TIP3    H161148   5.755   5.334   5.355 -0.8442 -0.2456  0.9113
13219TIP3    H261149   5.734   5.470   5.417 -0.9177  0.1326  0.0697
13220TIP3   OH261150   5.585   4.221  13.644  0.1500 -0.2802  0.3869
13220TIP3    H161151   5.607   4.156  13.711 -1.0810  0.0175  1.0956
13220TIP3    H261152   5.587   4.172  13.562 -0.0033 -1.0323  0.8277
13221TIP3   OH261153   3.333   3.789  16.158  0.0321 -0.0590  0.0246
13221TIP3    H161154   3.371   3.875  16.173  0.7951 -0.6134  1.4469
13221TIP3    H261155   3.358   3.767  16.069 -0.0029  1.0963 -0.2892
13222TIP3   OH261156   5.310   1.726   5.498 -0.7631 -0.0016 -0.4698
13222TIP3    H161157   5.225   1.745   5.458 -0.3378  0.2054 -1.3103
13222TIP3    H261158   5.372   1.734   5.425 -0.2370 -1.9695 -0.2737
13223TIP3   OH261159   6.485   6.572   2.907 -0.3973 -0.0790  0.2733
13223TIP3    H161160   6.470   6.653   2.857  1.7771 -0.1387 -0.5724
13223TIP3    H261161   6.524   6.512   2.844  2.0332 -0.3146  1.8919
13224TIP3   OH261162   6.649   3.466  11.479  0.8741  0.0840 -0.1132
13224TIP3    H161163   6.636   3.373  11.459 -0.1011 -0.2464  1.7285
13224TIP3    H261164   6.706   3.465  11.556  1.7456  1.0743 -0.7344
13225TIP3   OH261165   2.065   3.941   5.883  0.0525 -0.6279  0.3055
13225TIP3    H161166   1.976   3.905   5.882 -0.1808 -0.0580 -0.9556
13225TIP3    H261167   2.068   3.996   5.961 -0.2319 -1.7566  1.1404
13226TIP3   OH261168   6.148   3.469  13.480  0.3175  0.2727 -0.3678
13226TIP3    H161169   6.231   3.497  13.442  0.3657  0.7746  0.0921
13226TIP3    H261170   6.169   3.451  13.572 -0.2694  1.2873 -0.0264
13227TIP3   OH261171   3.405   6.640   1.291 -0.1512 -0.3893  0.8516
13227TIP3    H161172   3.478   6.590   1.255 -1.3152 -1.2191 -0.4350
13227TIP3    H261173   3.382   6.595   1.372 -1.4722 -2.2986 -0.5062
13228TIP3   OH261174   4.510   3.076  16.595  0.0492 -0.4011  0.3609
13228TIP3    H161175   4.574   3.143  16.620 -1.7084  1.7640 -0.6230
13228TIP3    H261176   4.563   2.999  16.574  2.1811  0.6985  1.3788
13229TIP3   OH261177   5.675   1.845   2.348 -0.0172 -0.3986 -0.2379
13229TIP3    H161178   5.643   1.772   2.296  0.4777 -1.6461  1.1561
13229TIP3    H261179   5.702   1.910   2.283 -1.8280 -0.8080 -1.4928
13230TIP3   OH261180   1.107   1.331  14.135  0.7805 -0.5090 -0.3217
13230TIP3    H161181   1.060   1.405  14.097  0.9835 -0.1506  0.1080
13230TIP3    H261182   1.044   1.291  14.195  0.2251 -1.5034 -1.5443
13231TIP3   OH261183   4.313   0.256  11.888 -0.4249  0.1021 -0.2372
13231TIP3    H161184   4.267   0.216  11.962 -1.3725  1.3589 -0.1220
13231TIP3    H261185   4.352   0.336  11.923  1.1555 -0.4842 -0.5495
13232TIP3   OH261186   0.229   2.154  10.972 -0.4393 -0.0536 -0.3410
13232TIP3    H161187   0.195   2.236  10.938 -1.6823 -0.2297  0.4508
13232TIP3    H261188   0.155   2.112  11.015  0.7289 -0.4922  1.3683
13233TIP3   OH261189   2.475   0.959  13.252 -0.1479  0.6093 -0.0807
13233TIP3    H161190   2.472   0.950  13.157  1.5558 -0.0729 -0.1203
13233TIP3    H261191   2.479   0.869  13.284 -1.5909  0.7999  0.7147
13234TIP3   OH261192   0.972   5.424  11.569 -0.0051  0.8140  0.3178
13234TIP3    H161193   1.014   5.404  11.653 -0.2376  0.3450  0.3260
13234TIP3    H261194   0.968   5.340  11.523  1.3564  1.2916 -0.7435
13235TIP3   OH261195   6.666   3.899  15.971  0.3983  0.0874  0.4263
13235TIP3    H161196   6.751   3.860  15.991  0.8955  0.8178 -0.1939
13235TIP3    H261197   6.655   3.968  16.036  1.5726  1.8205 -1.1134
13236TIP3   OH261198   0.462   5.397  11.052 -0.4626  0.1780  0.3251
13236TIP3    H161199   0.446   5.466  10.987 -1.4757 -0.4184 -0.0717
13236TIP3    H261200   0.555   5.377  11.043 -0.5712  0.1706 -0.8722
13237TIP3   OH261201   5.235   5.032  13.849  0.2678  0.1239 -0.3998
13237TIP3    H161202   5.188   5.086  13.785  1.6988  1.0329 -0.7156
13237TIP3    H261203   5.181   5.037  13.928 -0.9399 -0.0881 -1.1883
13238TIP3   OH261204   0.909   5.453  13.400  0.0355  0.1328 -0.6413
13238TIP3    H161205   0.819   5.450  13.368 -0.4636 -0.2747  0.6875
13238TIP3    H261206   0.902   5.427  13.492  1.5511 -0.1742 -0.5807
13239TIP3   OH261207   3.167   4.200  16.607  0.0960  0.2333 -0.0232
13239TIP3    H161208   3.199   4.111  16.622 -1.8407 -0.5515 -0.2208
13239TIP3    H261209   3.083   4.204  16.654 -1.2770  0.9686 -2.3569
13240TIP3   OH261210   5.060   1.253  12.901  0.0605  0.2966 -0.0116
13240TIP3    H161211   5.054   1.174  12.955  1.0500  1.2365  1.5543
13240TIP3    H261212   4.970   1.269  12.872  0.0920 -2.4970 -2.0994
13241TIP3   OH261213   3.461   4.849   0.270 -0.1686 -0.1648 -0.2782
13241TIP3    H161214   3.507   4.925   0.234  1.2251 -1.1665 -0.7131
13241TIP3    H261215   3.368   4.869   0.258  0.0969  2.0185  0.7980
13242TIP3   OH261216   0.669   2.089  11.698 -0.1356 -0.3228  0.4263
13242TIP3    H161217   0.699   2.136  11.621  0.0228 -0.1798  0.5746
13242TIP3    H261218   0.616   2.153  11.747  0.4103 -0.1728  0.8289
13243TIP3   OH261219   3.965   2.905   4.391 -0.0056  0.3667  0.7395
13243TIP3    H161220   4.036   2.871   4.336 -0.4555 -0.4272  0.6334
13243TIP3    H261221   3.885   2.870   4.352 -0.3548  0.0245  1.7210
13244TIP3   OH261222   4.359   3.001   1.001 -0.7469  0.1470  0.6217
13244TIP3    H161223   4.363   3.034   1.090 -2.5401 -1.7232  1.4515
13244TIP3    H261224   4.300   3.061   0.955 -1.1812  0.1320  1.1568
13245TIP3   OH261225   3.664   4.521  14.474 -0.1027  0.2804  0.3073
13245TIP3    H161226   3.609   4.443  14.478 -0.4387  0.4890 -0.1740
13245TIP3    H261227   3.603   4.593  14.460  0.2994  0.4969 -0.3706
13246TIP3   OH261228   5.463   3.998  12.782  0.7185  0.7702  0.2278
13246TIP3    H161229   5.449   4.092  12.766  0.6459  0.4134 -2.1329
13246TIP3    H261230   5.375   3.962  12.787  0.7057  0.5359 -1.1486
13247TIP3   OH261231   3.952   5.308  12.306 -0.5487 -0.0137 -0.0010
13247TIP3    H161232   3.919   5.223  12.277  0.6513 -0.7722  0.7734
13247TIP3    H261233   3.877   5.368  12.296 -1.3069 -1.0786 -0.8681
13248TIP3   OH261234   4.649   4.657   4.927 -0.4932 -0.0549  0.0927
13248TIP3    H161235   4.741   4.682   4.927 -0.5034 -0.0069 -0.2775
13248TIP3    H261236   4.651   4.561   4.922 -0.4608 -0.0918  0.7653
13249TIP3   OH261237   2.499   1.037   5.855 -0.0577 -0.1744 -0.2650
13249TIP3    H161238   2.580   1.049   5.905 -1.4511  0.4422  1.9314
13249TIP3    H261239   2.434   1.090   5.900 -1.3457  0.7162 -2.9835
13250TIP3   OH261240   3.215   3.328  15.283  0.2494  0.6350 -0.2491
13250TIP3    H161241   3.127   3.298  15.260  0.6674 -0.4528 -0.4879
13250TIP3    H261242   3.211   3.342  15.378  0.7271 -2.8216  0.4036
13251TIP3   OH261243   5.375   4.249   5.811 -0.7739 -0.1855 -0.4351
13251TIP3    H161244   5.326   4.246   5.893  0.2013  0.6749  0.2113
13251TIP3    H261245   5.308   4.251   5.743 -1.6163 -0.1724  0.3733
13252TIP3   OH261246   0.629   0.904   5.901 -0.1637 -0.1350  0.6349
13252TIP3    H161247   0.665   0.950   5.977 -0.2284 -1.0366  1.2261
13252TIP3    H261248   0.551   0.860   5.934 -3.0761  3.3150 -1.0383
13253TIP3   OH261249   6.625   2.673   5.738 -0.0936  0.1487 -0.3847
13253TIP3    H161250   6.558   2.725   5.782 -0.4425  0.0466 -0.7884
13253TIP3    H261251   6.678   2.737   5.691  1.0428  0.3856  1.1627
13254TIP3   OH261252   4.815   5.441  16.979  0.1882  0.4479 -0.2706
13254TIP3    H161253   4.841   5.358  17.017 -1.4842  0.2883  0.6193
13254TIP3    H261254   4.788   5.494  17.054 -2.9272  0.2284 -1.0995
13255TIP3   OH261255   3.037   4.920  14.801  0.2136  0.5684  0.3380
13255TIP3    H161256   3.124   4.903  14.764 -0.3093  0.4991 -0.8925
13255TIP3    H261257   3.046   5.006  14.843  0.1823  1.8920 -2.1628
13256TIP3   OH261258   1.626   6.445   1.193  0.0390  0.0581  0.2559
13256TIP3    H161259   1.708   6.463   1.149 -0.7802  1.1730 -0.8742
13256TIP3    H261260   1.577   6.526   1.187 -0.9771 -0.4356  1.3294
13257TIP3   OH261261   6.540   5.670   0.715 -0.8697 -0.1747 -0.0376
13257TIP3    H161262   6.570   5.691   0.804  0.1291 -0.1736 -0.3612
13257TIP3    H261263   6.561   5.749   0.664  0.3201 -0.8830 -0.6730
13258TIP3   OH261264   1.030   2.687  13.124 -0.1746  0.2307 -0.1301
13258TIP3    H161265   1.079   2.744  13.183 -0.1010  0.2137 -0.1743
13258TIP3    H261266   0.975   2.634  13.182  0.6342 -0.4975 -0.0013
13259TIP3   OH261267   2.340   5.286   0.425 -0.2819  0.1330 -0.1299
13259TIP3    H161268   2.281   5.212   0.439 -0.2804 -0.1014 -1.3053
13259TIP3    H261269   2.318   5.319   0.338  1.3156  0.0194 -0.6152
13260TIP3   OH261270   2.245   1.011   4.366 -0.1383  0.2340 -0.0755
13260TIP3    H161271   2.219   1.101   4.345  0.2041  0.5458  0.7965
13260TIP3    H261272   2.212   0.959   4.293  0.0701  1.1298 -0.8287
13261TIP3   OH261273   5.633   6.563  16.199 -0.1707  0.2760 -0.5573
13261TIP3    H161274   5.711   6.607  16.165  0.5445  0.6869  1.4882
13261TIP3    H261275   5.586   6.534  16.120  1.7525  0.4932 -1.8658
13262TIP3   OH261276   0.612   3.360  11.670 -0.5374 -0.2323 -0.0263
13262TIP3    H161277   0.699   3.379  11.633  0.0634 -1.8817  0.4461
13262TIP3    H261278   0.556   3.347  11.594 -0.1958  0.1194 -0.3424
13263TIP3   OH261279   1.238   6.722  10.534 -0.1234  0.1157  0.1007
13263TIP3    H161280   1.146   6.744  10.521 -0.2177  0.7155  1.5341
13263TIP3    H261281   1.285   6.792  10.489 -0.3860  0.3934  0.2526
13264TIP3   OH261282   6.658   4.218  16.932 -0.1874  0.2135 -0.1842
13264TIP3    H161283   6.694   4.139  16.973  1.6245  0.1119 -1.8447
13264TIP3    H261284   6.734   4.274  16.917 -1.2005  1.4702 -0.7864
13265TIP3   OH261285   4.072   1.839  16.756  1.0392  0.3540 -0.2138
13265TIP3    H161286   4.107   1.841  16.846  0.5143 -3.2666  0.2306
13265TIP3    H261287   3.979   1.857  16.766  0.7049 -1.3994  0.2639
13266TIP3   OH261288   4.808   3.905  10.958  0.1125 -0.1865 -0.0955
13266TIP3    H161289   4.727   3.939  10.920  0.9879  0.5633 -1.3832
13266TIP3    H261290   4.875   3.924  10.892  1.1251 -1.9876  0.3301
13267TIP3   OH261291   5.539   6.481  11.439  0.1912 -0.0276  0.5084
13267TIP3    H161292   5.550   6.488  11.533 -0.9196 -2.3411  0.8875
13267TIP3    H261293   5.448   6.508  11.423 -0.0479 -0.9033  0.3158
13268TIP3   OH261294   3.374   2.612   1.955 -0.0005  0.2646  0.7096
13268TIP3    H161295   3.377   2.542   1.890  0.8362  0.4406  0.5558
13268TIP3    H261296   3.411   2.688   1.910  1.7136  0.0831  1.7544
13269TIP3   OH261297   0.697   5.131   0.730 -0.2115  0.3499  0.1289
13269TIP3    H161298   0.628   5.083   0.685  0.4616 -1.1266  0.6247
13269TIP3    H261299   0.777   5.082   0.711  0.6814  1.8572 -0.1941
13270TIP3   OH261300   2.141   0.944   5.477 -0.0884  0.2986 -0.0553
13270TIP3    H161301   2.228   0.936   5.517  0.3575 -0.0998 -1.0888
13270TIP3    H261302   2.090   0.873   5.516  0.5003 -0.4246 -0.5855
13271TIP3   OH261303   5.905   4.132   4.017  0.1662  0.2665  0.2045
13271TIP3    H161304   5.987   4.167   4.051 -0.3593  1.1821  0.5604
13271TIP3    H261305   5.837   4.173   4.070 -0.5147 -0.8657  0.2506
13272TIP3   OH261306   2.089   6.676   2.386 -0.8490  0.6901 -0.0865
13272TIP3    H161307   2.047   6.731   2.452 -0.5120  0.2304  0.5261
13272TIP3    H261308   2.098   6.590   2.429 -1.8495 -0.0081 -1.1927
13273TIP3   OH261309   6.761   4.382   0.948  0.1537  0.2418  0.1530
13273TIP3    H161310   6.761   4.468   0.992  0.0647  0.0723  0.4906
13273TIP3    H261311   6.785   4.401   0.858  2.5604  0.3305  0.7594
13274TIP3   OH261312   5.699   4.336  14.950  0.4864 -0.4871  0.2110
13274TIP3    H161313   5.680   4.388  14.872  0.6138 -0.7409  0.0067
13274TIP3    H261314   5.622   4.281  14.961 -0.0207  0.3483  0.9331
13275TIP3   OH261315   4.261   5.187   1.478 -0.0275  0.1189  0.2655
13275TIP3    H161316   4.251   5.257   1.413  1.8647  0.1333 -0.0661
13275TIP3    H261317   4.229   5.108   1.434  2.8218 -0.2221 -1.4450
13276TIP3   OH261318   2.218   1.499   5.600  0.7072 -0.4189  1.1413
13276TIP3    H161319   2.302   1.544   5.603 -0.2127  1.4093  1.2827
13276TIP3    H261320   2.157   1.560   5.642 -0.5693 -1.9832  1.6459
13277TIP3   OH261321   0.824   2.654   2.226  0.0579 -0.2331 -0.6731
13277TIP3    H161322   0.762   2.727   2.227  0.8883  0.5163  1.5357
13277TIP3    H261323   0.775   2.581   2.263  0.6767  0.6392  2.1251
13278TIP3   OH261324   4.881   6.306  13.867  0.2960 -0.6422  0.4256
13278TIP3    H161325   4.943   6.322  13.796  1.4298 -1.0024  1.2926
13278TIP3    H261326   4.931   6.324  13.947 -1.3979  1.2912  1.1380
13279TIP3   OH261327   5.786   0.118  10.502 -0.1825 -0.2410  0.2686
13279TIP3    H161328   5.760   0.204  10.536  1.9906  0.6070 -0.0087
13279TIP3    H261329   5.859   0.092  10.559  0.3861 -1.0190 -0.7810
13280TIP3   OH261330   4.474   5.149   2.297  0.1653  0.1535  0.1351
13280TIP3    H161331   4.419   5.129   2.373 -1.3258  1.7421 -0.4606
13280TIP3    H261332   4.487   5.244   2.301 -0.4942  0.3871 -1.9138
13281TIP3   OH261333   0.634   3.067  12.233  0.4866 -0.4119  0.1204
13281TIP3    H161334   0.705   3.007  12.256 -0.3601 -1.7311 -0.5902
13281TIP3    H261335   0.651   3.145  12.287  1.1628 -1.5866  1.6956
13282TIP3   OH261336   4.552   5.199  14.051 -0.1032 -0.1278 -0.2050
13282TIP3    H161337   4.460   5.213  14.028 -0.0047 -0.3963 -0.7790
13282TIP3    H261338   4.553   5.200  14.147 -0.5930  0.5616 -0.1962
13283TIP3   OH261339   4.489   5.227   0.552 -0.6903  0.0409  0.0373
13283TIP3    H161340   4.456   5.317   0.547  2.7837  1.4682 -1.0287
13283TIP3    H261341   4.503   5.212   0.646 -2.4678  0.0803  0.3312
13284TIP3   OH261342   4.826   6.361  12.941  0.1222 -0.3002 -0.5315
13284TIP3    H161343   4.831   6.269  12.916 -0.0709 -0.6596  0.6735
13284TIP3    H261344   4.748   6.366  12.996 -0.4610  0.8011 -1.4150
13285TIP3   OH261345   4.117   4.449  16.079 -0.4750 -0.3901  0.0801
13285TIP3    H161346   4.042   4.509  16.076  0.4385  0.8034  0.3286
13285TIP3    H261347   4.088   4.377  16.136 -1.4591 -0.0060  0.0890
13286TIP3   OH261348   3.882   1.870   4.971 -0.3212 -0.4245  0.2125
13286TIP3    H161349   3.914   1.906   5.053  1.4644  1.9420 -1.3693
13286TIP3    H261350   3.816   1.932   4.942  0.0948 -0.4254 -0.7884
13287TIP3   OH261351   5.183   0.051  13.774  0.3985  0.3607  0.6803
13287TIP3    H161352   5.117  -0.003  13.730  1.2047 -0.1401  0.0411
13287TIP3    H261353   5.266   0.025  13.733  1.0268  0.7797  1.6479
13288TIP3   OH261354   4.672   1.649  15.064  0.0225  0.2014  0.6839
13288TIP3    H161355   4.722   1.592  15.121 -0.1947  0.5643  1.2537
13288TIP3    H261356   4.611   1.591  15.018  1.5231 -0.3716 -0.6896
13289TIP3   OH261357   4.557   5.494  12.529  0.4387 -0.0278  0.6019
13289TIP3    H161358   4.580   5.501  12.437  0.7342 -3.1660  0.3458
13289TIP3    H261359   4.461   5.498  12.531  0.4141 -0.3798  0.1101
13290TIP3   OH261360   6.543   4.793   2.076 -0.1695 -0.6851  0.0927
13290TIP3    H161361   6.622   4.846   2.084 -0.2010 -0.4145 -1.0980
13290TIP3    H261362   6.496   4.806   2.158  1.7420 -2.0939  1.5042
13291TIP3   OH261363   5.814   3.221  12.471  0.0547 -0.2767 -0.7154
13291TIP3    H161364   5.760   3.146  12.447 -1.3348  0.7199 -0.7796
13291TIP3    H261365   5.798   3.233  12.565  0.5668 -0.2916 -0.6239
13292TIP3   OH261366   3.888   2.145  13.509  0.0728 -0.3210  0.0803
13292TIP3    H161367   3.859   2.071  13.455 -0.3219 -0.6449  0.7251
13292TIP3    H261368   3.934   2.203  13.448 -0.1079 -0.8257 -0.5427
13293TIP3   OH261369   3.493   2.407  15.773 -0.7932 -0.5049  0.5684
13293TIP3    H161370   3.399   2.398  15.761 -1.1290  3.3429 -1.4193
13293TIP3    H261371   3.503   2.489  15.822  1.4437  0.6902 -1.6509
13294TIP3   OH261372   3.941   1.718  10.461  0.1896 -0.2651 -0.0613
13294TIP3    H161373   3.984   1.662  10.397  0.2056 -0.6293  0.2690
13294TIP3    H261374   4.012   1.771  10.497  0.0070  0.8380 -1.2337
13295TIP3   OH261375   2.996   5.989  15.310  0.3815 -0.5495  0.4758
13295TIP3    H161376   2.938   6.047  15.359  0.7721 -1.6906  2.3695
13295TIP3    H261377   3.071   6.044  15.287  0.1659  0.0221  1.1207
13296TIP3   OH261378   6.490   3.016  10.991  0.1137 -0.1113  0.4334
13296TIP3    H161379   6.398   3.001  11.015 -0.6706  0.4940 -1.9104
13296TIP3    H261380   6.506   2.956  10.918  1.5047 -0.0055  0.6276
13297TIP3   OH261381   5.292   4.646  11.769 -0.3454 -0.2223  0.3364
13297TIP3    H161382   5.199   4.668  11.766 -0.4200 -0.5361  0.3379
13297TIP3    H261383   5.303   4.577  11.704 -0.1922 -0.4725  0.6257
13298TIP3   OH261384   3.585   4.464   0.395 -0.1388  0.1061 -0.0091
13298TIP3    H161385   3.497   4.462   0.358 -0.3671  4.6483 -0.2402
13298TIP3    H261386   3.643   4.483   0.321  1.1712 -2.6183  0.1721
13299TIP3   OH261387   4.016   1.485   2.859  0.6478 -0.4299  0.2219
13299TIP3    H161388   3.945   1.508   2.918  0.1528 -1.5961  0.0965
13299TIP3    H261389   4.043   1.569   2.820  0.7158  0.3011  1.7649
13300TIP3   OH261390   4.113   5.747   3.201 -0.1749 -0.3542 -0.2724
13300TIP3    H161391   4.177   5.776   3.136  0.3136  1.5936  0.9876
13300TIP3    H261392   4.159   5.678   3.250  1.2086  1.2932  0.8742
13301TIP3   OH261393   2.763   0.867  16.192 -0.3797  0.3549  0.0457
13301TIP3    H161394   2.853   0.855  16.222 -0.9108 -2.1835  0.8284
13301TIP3    H261395   2.717   0.904  16.267  0.0692  2.1601 -0.5260
13302TIP3   OH261396   0.546   5.313   0.031 -0.1414 -0.1231  0.4813
13302TIP3    H161397   0.600   5.292   0.107  0.3054  1.8217  0.7387
13302TIP3    H261398   0.478   5.245   0.030  1.4979 -1.8691  0.9132
13303TIP3   OH261399   6.388   1.404  12.907 -0.1256  0.3209 -0.7626
13303TIP3    H161400   6.356   1.460  12.836 -0.6001  1.5670  0.4030
13303TIP3    H261401   6.468   1.364  12.872 -1.0787 -0.1948 -2.4992
13304TIP3   OH261402   4.790   4.562  12.290 -0.5171  0.2992  0.4614
13304TIP3    H161403   4.883   4.549  12.271 -0.3046  2.2993 -0.0985
13304TIP3    H261404   4.769   4.496  12.356  1.1799 -0.4756  0.2650
13305TIP3   OH261405   3.849   5.799  12.567  0.4893 -0.2110 -0.7096
13305TIP3    H161406   3.801   5.831  12.492  1.4246  0.4428 -1.0482
13305TIP3    H261407   3.837   5.704  12.564 -3.5045  0.0577  1.1334
13306TIP3   OH261408   6.154   0.242   4.704 -0.3783  0.1708  0.1920
13306TIP3    H161409   6.144   0.275   4.793 -0.5347  0.4636  0.0678
13306TIP3    H261410   6.074   0.191   4.688 -1.0453  1.3137 -0.2869
13307TIP3   OH261411   6.791   1.546   3.031  0.2855 -0.1368 -0.2031
13307TIP3    H161412   6.864   1.578   2.978 -0.9338  0.7991 -1.4087
13307TIP3    H261413   6.713   1.567   2.979 -0.9117 -0.1566  1.4997
13308TIP3   OH261414   0.124   0.101  15.010 -0.0026 -0.1317  0.2789
13308TIP3    H161415   0.148   0.020  14.965 -1.0863 -0.4423  0.2214
13308TIP3    H261416   0.096   0.160  14.939  0.3167  0.1276  0.3661
13309TIP3   OH261417   2.289   2.982  15.489 -0.1198 -0.0997  0.3311
13309TIP3    H161418   2.208   2.996  15.537 -1.1620  1.7697 -1.8072
13309TIP3    H261419   2.261   2.945  15.405  1.3187 -0.1237 -0.1677
13310TIP3   OH261420   2.759   5.800   1.532  0.0330  0.3482  0.3298
13310TIP3    H161421   2.721   5.713   1.518  0.1581  0.1255  1.2893
13310TIP3    H261422   2.802   5.821   1.449 -1.3042  0.1748 -0.4306
13311TIP3   OH261423   0.154   5.121  15.192 -0.1972 -0.1272 -0.1556
13311TIP3    H161424   0.131   5.158  15.106 -0.6468  0.8870  0.3789
13311TIP3    H261425   0.156   5.197  15.250  1.1681 -0.6564  0.5236
13312TIP3   OH261426   6.658   6.186  13.624 -0.3405  0.2758  0.0054
13312TIP3    H161427   6.689   6.241  13.696 -2.4951  1.0868  0.3891
13312TIP3    H261428   6.649   6.099  13.663 -0.8414  0.5626  0.5448
13313TIP3   OH261429   1.669   3.431   3.207 -0.0519  0.5093 -0.3312
13313TIP3    H161430   1.688   3.366   3.139  0.7767  1.9494 -1.5300
13313TIP3    H261431   1.573   3.436   3.208 -0.0904  1.0435 -2.0278
13314TIP3   OH261432   4.030   4.916   3.702 -0.0395 -0.2872 -0.7226
13314TIP3    H161433   4.070   4.831   3.719  1.2787  0.4733  0.1659
13314TIP3    H261434   3.943   4.895   3.667  0.8214 -1.9789 -1.9678
13315TIP3   OH261435   6.261   5.829  12.371  0.1507 -0.0601  0.1727
13315TIP3    H161436   6.235   5.858  12.283  0.8228 -1.9236 -0.6928
13315TIP3    H261437   6.300   5.743  12.357  2.5331  0.6252  1.9954
13316TIP3   OH261438   5.947   6.689  14.975 -0.1649 -0.3048  0.7085
13316TIP3    H161439   5.963   6.595  14.962 -0.6006 -0.5844  2.0302
13316TIP3    H261440   5.857   6.693  15.006 -0.6101  0.6888 -0.6121
13317TIP3   OH261441   6.659   1.556   5.246  0.1724  0.1560  1.0220
13317TIP3    H161442   6.684   1.465   5.263  1.3400  0.4275  0.8455
13317TIP3    H261443   6.564   1.552   5.229  0.3535 -1.1581  0.1215
13318TIP3   OH261444   2.756   5.149   5.696  0.1068 -0.2018 -0.1034
13318TIP3    H161445   2.681   5.124   5.749 -0.6003 -0.3810 -1.1564
13318TIP3    H261446   2.760   5.244   5.703  2.1675 -0.3781  3.0615
13319TIP3   OH261447   1.004   5.662  15.655  0.4391  0.3276  0.5202
13319TIP3    H161448   1.021   5.628  15.743 -0.4379 -0.0530  0.5508
13319TIP3    H261449   0.920   5.707  15.662  1.1678  1.7967  0.2736
13320TIP3   OH261450   6.385   3.845  11.061  0.6298 -0.6010 -0.3879
13320TIP3    H161451   6.353   3.887  11.142 -2.5009 -0.5334 -1.5285
13320TIP3    H261452   6.394   3.753  11.084 -0.9906 -0.7181 -0.1129
13321TIP3   OH261453   0.249   3.826  11.401  0.3278  0.6086  0.0632
13321TIP3    H161454   0.221   3.863  11.485 -0.2341  0.4549 -0.0525
13321TIP3    H261455   0.267   3.902  11.346 -2.9790  0.8403 -0.9155
13322TIP3   OH261456   2.103   2.311  16.027  0.1414  0.6655 -0.0766
13322TIP3    H161457   2.053   2.229  16.017  0.7113  0.2944  0.1007
13322TIP3    H261458   2.194   2.284  16.028  0.2987  1.1200  1.6669
13323TIP3   OH261459   6.812   5.336   3.877  0.5819 -0.1760 -0.1582
13323TIP3    H161460   6.897   5.303   3.849 -0.3555 -3.2325  0.1898
13323TIP3    H261461   6.755   5.321   3.802 -0.1625 -0.5315  0.4625
13324TIP3   OH261462   6.291   4.328   3.160 -0.6138 -0.4819  0.3185
13324TIP3    H161463   6.355   4.382   3.205 -0.2096 -2.2259  1.9678
13324TIP3    H261464   6.260   4.266   3.226 -0.8131 -2.4584 -1.4907
13325TIP3   OH261465   4.713   5.751   6.534  0.6275  0.2260  0.3142
13325TIP3    H161466   4.640   5.718   6.481  0.0449 -0.5972  1.5588
13325TIP3    H261467   4.732   5.679   6.594  2.4479  0.4605  0.0540
13326TIP3   OH261468   2.470   2.816   1.262  0.2388  0.2754  0.2552
13326TIP3    H161469   2.388   2.800   1.215  1.1986  1.4892 -2.0244
13326TIP3    H261470   2.464   2.762   1.341 -2.3834 -0.2785 -0.2393
13327TIP3   OH261471   6.269   1.939   0.132  0.0690  0.4871  0.4089
13327TIP3    H161472   6.243   2.028   0.106  0.8612  0.6232  0.0557
13327TIP3    H261473   6.187   1.891   0.140 -0.4561  1.5009  1.5322
13328TIP3   OH261474   0.091   3.549  13.284 -0.1277 -0.1213  0.7062
13328TIP3    H161475   0.176   3.583  13.253 -0.3060 -1.1748 -1.0443
13328TIP3    H261476   0.112   3.503  13.364  0.8117  0.4129  0.7848
13329TIP3   OH261477   1.590   2.342   5.277 -0.2660  0.9361 -0.1598
13329TIP3    H161478   1.673   2.375   5.311 -0.3865  1.3161 -0.2352
13329TIP3    H261479   1.611   2.312   5.189 -0.2787  1.3375 -0.3012
13330TIP3   OH261480   1.184   3.964   5.383 -0.2250  0.3408  0.1406
13330TIP3    H161481   1.090   3.977   5.371  0.0212 -0.2745 -3.2603
13330TIP3    H261482   1.224   3.996   5.303  2.2745 -1.4935  0.5278
13331TIP3   OH261483   1.291   6.221   6.410  0.0351 -0.2310  0.2208
13331TIP3    H161484   1.265   6.310   6.386  0.2925  0.0279  0.8816
13331TIP3    H261485   1.335   6.188   6.332 -0.8014 -0.0848 -0.3245
13332TIP3   OH261486   5.804   0.291  13.929 -0.0549  0.6847 -0.4021
13332TIP3    H161487   5.736   0.244  13.881  0.4298  0.7075 -1.1175
13332TIP3    H261488   5.756   0.349  13.988 -0.6863 -0.9879  0.8175
13333TIP3   OH261489   3.905   4.146  13.348 -0.3343 -0.0973 -0.0939
13333TIP3    H161490   3.986   4.095  13.352 -0.6569 -0.6622 -0.6875
13333TIP3    H261491   3.835   4.081  13.347 -0.7201  0.2989 -1.9512
13334TIP3   OH261492   5.460   4.262  15.845 -0.7820  0.0236 -0.7291
13334TIP3    H161493   5.552   4.263  15.871 -0.5077 -0.7643 -1.6311
13334TIP3    H261494   5.426   4.346  15.874  0.6372  1.0256 -1.8363
13335TIP3   OH261495   2.230   0.859  13.870 -0.2048  0.4171  0.0786
13335TIP3    H161496   2.230   0.955  13.871 -1.4127  0.4232  0.9196
13335TIP3    H261497   2.148   0.834  13.912 -0.1482 -0.9962 -0.5872
13336TIP3   OH261498   1.196   3.745   3.529  0.3304  0.1731 -0.4288
13336TIP3    H161499   1.271   3.723   3.584 -0.8263  2.3356  2.2823
13336TIP3    H261500   1.124   3.694   3.567 -0.0323 -0.1681 -1.5525
13337TIP3   OH261501   3.284   4.309   0.669 -0.4898 -0.7030  0.1655
13337TIP3    H161502   3.363   4.352   0.701 -0.1386 -1.8693  0.9177
13337TIP3    H261503   3.310   4.269   0.587 -0.9535  0.8894 -0.8063
13338TIP3   OH261504   6.519   5.751  12.624 -0.0349 -0.3514  0.0077
13338TIP3    H161505   6.510   5.817  12.692  0.8826 -0.9360  0.7256
13338TIP3    H261506   6.444   5.693  12.636 -1.0520  0.7366 -0.8624
13339TIP3   OH261507   6.330   4.281   2.791  0.2591  0.4871  0.0439
13339TIP3    H161508   6.374   4.238   2.718 -1.1837 -1.4812  0.2818
13339TIP3    H261509   6.401   4.300   2.853  1.0953 -0.5720 -0.5536
13340TIP3   OH261510   6.274   4.855   5.460 -0.0589 -0.2573 -0.2102
13340TIP3    H161511   6.336   4.917   5.498 -0.5343  1.1526 -1.6104
13340TIP3    H261512   6.235   4.903   5.386 -0.8100 -2.0630 -1.0410
13341TIP3   OH261513   4.614   4.103   2.173  0.4056  0.3683 -0.3435
13341TIP3    H161514   4.581   4.180   2.127 -2.3077 -0.7650 -0.5039
13341TIP3    H261515   4.652   4.048   2.105  1.1948  0.9824 -0.4102
13342TIP3   OH261516   3.560   3.619  14.104  0.2814  0.3264  0.1095
13342TIP3    H161517   3.520   3.706  14.095  3.6113  1.8192 -2.4855
13342TIP3    H261518   3.595   3.619  14.194 -1.0258  1.0075  0.6521
13343TIP3   OH261519   0.750   0.283  13.536 -0.0194 -0.3859  0.3648
13343TIP3    H161520   0.727   0.360  13.589  0.6816  0.3972 -0.4436
13343TIP3    H261521   0.672   0.228  13.540 -1.4332  1.4063 -0.8680
13344TIP3   OH261522   1.988   6.554  16.514  0.3372  0.0681  0.1234
13344TIP3    H161523   1.897   6.527  16.527 -0.1874  1.4997 -0.3964
13344TIP3    H261524   2.022   6.567  16.602 -0.7548  1.9622  0.3100
13345TIP3   OH261525   3.475   3.424  14.310 -0.0248  0.5315  0.1394
13345TIP3    H161526   3.472   3.331  14.289  0.7730  0.6946 -0.7596
13345TIP3    H261527   3.413   3.464  14.249  0.8327  0.7668 -0.6040
13346TIP3   OH261528   4.006   1.593   1.915 -0.7786  0.1185 -0.0322
13346TIP3    H161529   4.059   1.668   1.941 -0.5346 -0.5013  1.3145
13346TIP3    H261530   3.916   1.624   1.918 -0.7518  0.0811  1.5285
13347TIP3   OH261531   3.431   2.358  12.504 -0.3227 -0.0752  0.4320
13347TIP3    H161532   3.346   2.397  12.523 -1.2061 -2.1699  1.0033
13347TIP3    H261533   3.425   2.269  12.538  1.2943 -1.0251 -1.5989
13348TIP3   OH261534   2.016   1.234  15.352 -0.1879  0.3821  0.4817
13348TIP3    H161535   2.050   1.285  15.278  1.7483  1.5164  2.0540
13348TIP3    H261536   1.922   1.226  15.334  0.3141 -0.0266 -2.4205
13349TIP3   OH261537   1.066   0.428  16.289  0.8369  0.3446  0.1895
13349TIP3    H161538   1.146   0.378  16.274  1.1275  0.8136  0.1428
13349TIP3    H261539   1.048   0.470  16.205  1.8303  2.0613  0.7699
13350TIP3   OH261540   5.053   5.376   4.173  0.2828  0.3620  0.5774
13350TIP3    H161541   4.974   5.401   4.220 -0.3461  0.5918 -0.5795
13350TIP3    H261542   5.027   5.373   4.081  1.8995  1.5878  0.0398
13351TIP3   OH261543   5.148   4.086   2.387 -0.0159 -0.0317  0.5017
13351TIP3    H161544   5.207   4.053   2.455  4.0448  0.6780 -2.3332
13351TIP3    H261545   5.099   4.009   2.358  0.0098 -0.8455  2.4588
13352TIP3   OH261546   5.052   3.397   5.652  0.0177  0.1004  0.7037
13352TIP3    H161547   5.036   3.486   5.684 -0.5442 -0.3452  1.7032
13352TIP3    H261548   4.983   3.344   5.692 -0.1366 -0.6616 -0.5174
13353TIP3   OH261549   1.713   4.945  11.141 -0.3466 -0.3870  0.3686
13353TIP3    H161550   1.767   5.018  11.173  0.8182 -1.6538  1.4436
13353TIP3    H261551   1.772   4.893  11.087 -1.9119  0.9207 -2.8980
13354TIP3   OH261552   2.325   4.380  12.484  0.0507 -0.1838 -0.0332
13354TIP3    H161553   2.354   4.372  12.575 -1.3557 -1.3594  0.3539
13354TIP3    H261554   2.402   4.359  12.432  0.6562 -0.3164  0.8945
13355TIP3   OH261555   4.991   5.763   5.656  0.7339 -0.2001 -0.2315
13355TIP3    H161556   4.927   5.833   5.666 -1.3325 -1.9721 -0.3656
13355TIP3    H261557   5.050   5.773   5.731  1.5529  2.6342 -1.1378
13356TIP3   OH261558   1.727   3.349  16.588 -0.6895  0.3189 -0.7457
13356TIP3    H161559   1.757   3.436  16.614 -0.3260  0.0881 -0.3856
13356TIP3    H261560   1.760   3.290  16.656 -1.7652  0.0263 -0.4418
13357TIP3   OH261561   1.737   5.114   5.400 -0.5490 -0.3096  0.0934
13357TIP3    H161562   1.762   5.155   5.483 -2.4362  0.4441  0.3352
13357TIP3    H261563   1.790   5.159   5.334  0.9515 -0.8939  0.8399
13358TIP3   OH261564   4.110   6.668   0.009 -0.4880 -0.0349  0.7041
13358TIP3    H161565   4.077   6.579   0.018 -2.1399  0.4311 -0.3998
13358TIP3    H261566   4.061   6.719   0.074  0.6854  0.0303  1.5633
13359TIP3   OH261567   5.951   6.216   2.529 -0.3028  0.0227  0.0453
13359TIP3    H161568   5.918   6.167   2.453 -1.7925  0.4919  0.3721
13359TIP3    H261569   5.911   6.302   2.522 -0.5246  0.0532  1.4100
13360TIP3   OH261570   4.381   1.236  16.106 -0.0639  0.1899  0.0650
13360TIP3    H161571   4.429   1.253  16.187  0.0142 -1.7392  0.4750
13360TIP3    H261572   4.442   1.187  16.051 -0.5917  0.2481 -0.5931
13361TIP3   OH261573   2.470   4.413  16.423 -0.7727 -0.3587 -0.5667
13361TIP3    H161574   2.506   4.501  16.412 -1.6913 -0.0159 -0.9493
13361TIP3    H261575   2.424   4.416  16.507 -0.4045 -0.6227 -0.3513
13362TIP3   OH261576   2.492   6.105   4.481  0.1863 -0.2769  0.2922
13362TIP3    H161577   2.556   6.141   4.419  1.2621 -0.5670  1.2026
13362TIP3    H261578   2.415   6.161   4.471  0.7156  0.3227 -0.5603
13363TIP3   OH261579   0.146   3.024  16.962  0.6285 -0.0524  0.3181
13363TIP3    H161580   0.166   3.103  16.912 -1.3032 -1.4166 -2.8704
13363TIP3    H261581   0.053   3.031  16.982  0.5947 -1.1977  0.6128
13364TIP3   OH261582   1.468   1.945  16.942 -0.0243 -0.4356 -0.1553
13364TIP3    H161583   1.512   1.915  16.862 -1.7514 -2.7629 -0.3229
13364TIP3    H261584   1.471   1.869  17.001 -0.5247  0.5983  1.2606
13365TIP3   OH261585   1.972   0.125  13.005  0.3161 -0.2661 -0.4139
13365TIP3    H161586   1.911   0.078  13.062 -0.6608  0.4515 -0.8451
13365TIP3    H261587   1.998   0.059  12.940  1.8240 -1.2374  1.0826
13366TIP3   OH261588   0.300   5.578  15.170 -0.1579 -0.1236  0.1045
13366TIP3    H161589   0.331   5.655  15.123  0.2791 -0.7201 -0.6134
13366TIP3    H261590   0.378   5.546  15.216 -0.5868  0.4718  1.2828
13367TIP3   OH261591   2.950   6.411   5.036 -0.1254 -0.0519 -0.1884
13367TIP3    H161592   2.912   6.344   5.092  0.5029  0.2483  0.6111
13367TIP3    H261593   3.032   6.372   5.005 -0.4026 -0.1626 -0.8000
13368TIP3   OH261594   0.603   4.263  16.153 -0.2230 -0.1382 -0.0324
13368TIP3    H161595   0.641   4.205  16.219 -1.2763  0.5189  1.2079
13368TIP3    H261596   0.634   4.350  16.178 -0.6485  0.1149 -0.3751
13369TIP3   OH261597   4.185   1.553  11.238 -0.5441  0.4453  0.3049
13369TIP3    H161598   4.115   1.601  11.193 -0.8653  0.0911  0.4225
13369TIP3    H261599   4.256   1.550  11.174 -0.4652  1.1956  0.3432
13370TIP3   OH261600   0.167   1.426  14.435  0.4877  0.3469  0.6480
13370TIP3    H161601   0.257   1.414  14.404 -0.3362  0.7842 -2.1666
13370TIP3    H261602   0.142   1.512  14.403 -1.5483 -0.5580 -0.4007
13371TIP3   OH261603   4.028   0.183   3.746 -0.1286  0.7895  0.0180
13371TIP3    H161604   4.029   0.097   3.789  1.4533  1.2602  1.0012
13371TIP3    H261605   4.028   0.163   3.652  2.5870 -0.3505  0.1840
13372TIP3   OH261606   2.572   2.795   5.888 -0.3142  0.2429  0.0483
13372TIP3    H161607   2.554   2.884   5.918  0.7352  0.0642  1.3301
13372TIP3    H261608   2.486   2.754   5.880 -0.7160  0.6809  1.7339
13373TIP3   OH261609   6.682   4.945  13.282 -0.1828  0.1742  0.3841
13373TIP3    H161610   6.658   4.954  13.374 -0.5579  0.4943  0.2540
13373TIP3    H261611   6.600   4.957  13.234  0.1857  1.0335 -0.0486
13374TIP3   OH261612   0.397   2.601  11.954  0.1775  0.1532 -0.5309
13374TIP3    H161613   0.405   2.610  11.859 -1.4626 -1.2209 -0.8500
13374TIP3    H261614   0.315   2.645  11.976  0.4266  0.2662  0.2223
13375TIP3   OH261615   4.961   2.145  15.780  0.9239  0.3254  0.0287
13375TIP3    H161616   4.929   2.207  15.846  1.1538  0.8629 -0.3557
13375TIP3    H261617   4.950   2.191  15.697  1.8580  0.1739 -0.1895
13376TIP3   OH261618   5.000   0.044   3.649 -0.6288 -0.0047 -0.3496
13376TIP3    H161619   4.926  -0.003   3.610 -2.0185  1.4297  0.4059
13376TIP3    H261620   4.992   0.028   3.743  2.0592 -2.5624 -0.4458
13377TIP3   OH261621   5.127   2.508   0.316  0.7403  0.2052  0.2595
13377TIP3    H161622   5.217   2.531   0.292 -0.1728  2.4573 -1.3632
13377TIP3    H261623   5.094   2.585   0.362 -0.7982 -0.0147 -0.4167
13378TIP3   OH261624   4.878   5.810   1.154  0.0236 -0.0976 -0.4986
13378TIP3    H161625   4.787   5.785   1.168  0.3031 -0.3581  1.0221
13378TIP3    H261626   4.930   5.738   1.190  0.8592 -0.1207 -1.6543
13379TIP3   OH261627   4.785   4.955  15.155  0.0057  0.0284 -0.4444
13379TIP3    H161628   4.767   4.868  15.193  0.2760 -0.4847 -1.4534
13379TIP3    H261629   4.704   5.004  15.168  0.4193  0.2516  1.7355
13380TIP3   OH261630   3.705   0.064   4.081 -0.5865 -0.1794 -0.3453
13380TIP3    H161631   3.716   0.029   4.169 -1.0886 -2.4709 -1.1254
13380TIP3    H261632   3.777   0.026   4.030 -0.5980  0.7026 -1.0428
13381TIP3   OH261633   2.993   3.232  10.968  0.2177 -0.0726  0.1350
13381TIP3    H161634   3.041   3.299  11.019  0.9476  0.2163 -0.8887
13381TIP3    H261635   2.910   3.274  10.946  0.5210  0.3808 -0.1836
13382TIP3   OH261636   2.485   3.939   1.396 -0.6246 -0.1659 -0.1464
13382TIP3    H161637   2.489   3.921   1.490 -0.5967 -1.2395 -0.3351
13382TIP3    H261638   2.392   3.938   1.375 -0.6226 -0.0841 -0.1597
13383TIP3   OH261639   6.391   0.007  13.204 -0.2014 -0.0360 -0.6174
13383TIP3    H161640   6.476  -0.036  13.201  0.4995  1.2788 -0.5417
13383TIP3    H261641   6.357  -0.012  13.291  1.3763  1.8338  0.4943
13384TIP3   OH261642   0.429   2.126   1.867 -0.1225 -0.5440 -0.5057
13384TIP3    H161643   0.415   2.045   1.917  2.4704  0.3827  1.9780
13384TIP3    H261644   0.493   2.101   1.800 -1.5182 -1.1514 -1.6608
13385TIP3   OH261645   1.860   0.064   4.046  0.0774  0.2536  0.2101
13385TIP3    H161646   1.887  -0.025   4.024 -1.0984 -0.0488 -0.0438
13385TIP3    H261647   1.880   0.073   4.140 -2.1788 -1.2170  0.9186
13386TIP3   OH261648   5.967   2.304  12.539  0.1601 -0.6308  0.3840
13386TIP3    H161649   5.871   2.302  12.547  0.1673 -0.5601  0.5016
13386TIP3    H261650   5.993   2.384  12.585  0.0880  0.6719 -1.7340
13387TIP3   OH261651   4.377   1.845   5.105  0.1360  0.4295  0.9355
13387TIP3    H161652   4.347   1.923   5.151 -0.5347  0.5103  0.3866
13387TIP3    H261653   4.315   1.776   5.132 -1.4246  0.8883 -1.1980
13388TIP3   OH261654   1.990   4.371   2.727  0.0341 -0.1824  0.5261
13388TIP3    H161655   2.029   4.340   2.645  0.3249  1.2054  0.0982
13388TIP3    H261656   1.905   4.407   2.701 -0.4845 -1.0025  1.0670
13389TIP3   OH261657   1.937   2.039   4.084 -0.1327 -0.3930 -0.0902
13389TIP3    H161658   1.897   1.960   4.119 -0.4358 -0.3170 -0.2639
13389TIP3    H261659   1.977   2.012   4.002 -1.2606 -0.1160 -0.7440
13390TIP3   OH261660   3.065   3.563   0.422 -0.2530 -0.7800 -0.5540
13390TIP3    H161661   3.096   3.472   0.428 -1.7056 -1.2942 -0.4615
13390TIP3    H261662   3.049   3.588   0.513 -2.8957 -1.5713 -0.7208
13391TIP3   OH261663   1.428   2.661   3.011  0.0827  0.2208 -0.0676
13391TIP3    H161664   1.442   2.714   3.090  1.6157 -0.1897 -0.0323
13391TIP3    H261665   1.361   2.708   2.962  1.1798  2.0756  0.0990
13392TIP3   OH261666   4.071   4.507   1.591  0.5350 -0.4704 -0.2366
13392TIP3    H161667   4.104   4.584   1.544 -0.5355  1.2129  1.5880
13392TIP3    H261668   3.989   4.485   1.547 -0.1461  0.7020  0.3978
13393TIP3   OH261669   2.906   2.084  16.279 -0.3231 -0.3004 -0.2303
13393TIP3    H161670   2.873   2.118  16.196  0.3762  0.5532 -0.1802
13393TIP3    H261671   2.843   2.115  16.344  0.5916  1.4624 -0.1162
13394TIP3   OH261672   6.748   6.380  14.894  0.0941 -0.4365 -0.1364
13394TIP3    H161673   6.744   6.382  14.989  0.3345  0.2801 -0.1304
13394TIP3    H261674   6.738   6.288  14.871 -3.3020 -0.3223  0.3948
13395TIP3   OH261675   4.210   4.776  12.108 -0.1844 -0.1287  0.5091
13395TIP3    H161676   4.190   4.683  12.100 -1.7598  0.3413 -1.8113
13395TIP3    H261677   4.283   4.790  12.047 -0.8014  0.3547 -0.1405
13396TIP3   OH261678   2.468   1.063  16.208  0.9333  0.3998  0.3043
13396TIP3    H161679   2.542   1.118  16.184  1.6197 -0.7888 -0.3526
13396TIP3    H261680   2.499   1.014  16.285  0.2181  1.1192  1.0758
13397TIP3   OH261681   1.277   1.950  12.905  0.0346 -0.0027 -0.1977
13397TIP3    H161682   1.210   1.940  12.973  1.4164  0.9281  1.3741
13397TIP3    H261683   1.265   2.039  12.873  0.7432  0.3193  0.3884
13398TIP3   OH261684   5.345   4.772  12.360  0.0521  0.8374  0.3041
13398TIP3    H161685   5.439   4.754  12.359 -0.1346 -0.2710  1.2391
13398TIP3    H261686   5.339   4.866  12.341  1.3287  0.8826  0.0304
13399TIP3   OH261687   0.758   2.244  11.470 -0.5404  0.5000 -0.0869
13399TIP3    H161688   0.689   2.256  11.404  0.1093 -2.0416 -1.3266
13399TIP3    H261689   0.816   2.179  11.433  0.6670  0.0313  2.4254
13400TIP3   OH261690   6.179   1.021   2.099  0.0128 -0.3283 -0.2110
13400TIP3    H161691   6.125   0.944   2.116 -0.8668  0.2528 -0.3142
13400TIP3    H261692   6.269   0.988   2.100 -0.2075 -0.9752  1.8617
13401TIP3   OH261693   0.828   1.797   1.285 -0.2454 -0.8704 -0.3843
13401TIP3    H161694   0.756   1.763   1.233  0.0093 -4.3096  1.2216
13401TIP3    H261695   0.892   1.725   1.287  2.5898  1.4712 -0.5179
13402TIP3   OH261696   0.361   1.698   3.702 -0.3656  0.3956 -0.4428
13402TIP3    H161697   0.436   1.757   3.689 -0.3806  0.2678 -1.1440
13402TIP3    H261698   0.399   1.621   3.745 -0.1036  0.3567 -0.7402
13403TIP3   OH261699   1.818   4.436  13.806 -0.0746 -0.6732 -0.4674
13403TIP3    H161700   1.813   4.531  13.814 -1.3332 -0.8325  1.3391
13403TIP3    H261701   1.764   4.414  13.730  0.6489  0.0629 -1.2109
13404TIP3   OH261702   3.249   3.752  12.062 -0.0977  0.0768  0.9701
13404TIP3    H161703   3.341   3.732  12.081 -0.1506 -1.7257 -0.3896
13404TIP3    H261704   3.200   3.678  12.097 -0.7813 -0.1138 -0.2986
13405TIP3   OH261705   5.527   6.485  16.888  0.1510 -0.2390  0.5242
13405TIP3    H161706   5.535   6.483  16.793  0.7934 -1.1343  0.5876
13405TIP3    H261707   5.609   6.524  16.919  0.5554 -1.2421  0.7625
13406TIP3   OH261708   2.875   4.145  13.548  0.2997 -0.3780  0.4363
13406TIP3    H161709   2.785   4.151  13.515  1.0947  0.7305 -1.7183
13406TIP3    H261710   2.885   4.222  13.604  0.3497  0.3794 -0.5823
13407TIP3   OH261711   5.222   0.758   2.796  0.2411  0.6671  0.0711
13407TIP3    H161712   5.202   0.743   2.889 -0.3751 -0.6057 -0.2425
13407TIP3    H261713   5.197   0.849   2.781 -0.5507  0.6161  0.9359
13408TIP3   OH261714   1.974   4.972   4.767  0.4259 -0.3712 -0.1524
13408TIP3    H161715   2.063   4.999   4.747  0.2320 -0.0536 -0.6071
13408TIP3    H261716   1.937   4.947   4.683 -0.2962  0.6439 -0.1520
13409TIP3   OH261717   2.863   6.168  14.244 -0.4261  0.2815 -0.3746
13409TIP3    H161718   2.792   6.220  14.280 -0.4379 -0.2672  0.4155
13409TIP3    H261719   2.888   6.213  14.163 -1.2687  0.8024 -0.3476
13410TIP3   OH261720   5.974   5.589  11.958  0.5587  0.2617 -0.2120
13410TIP3    H161721   5.893   5.607  12.005  0.1659 -1.4182 -0.1822
13410TIP3    H261722   6.038   5.570  12.026  0.5364 -0.0867 -0.2872
13411TIP3   OH261723   3.112   3.731   2.178 -0.5673 -1.1642  0.1192
13411TIP3    H161724   3.019   3.744   2.163 -0.1056  2.9241 -0.4956
13411TIP3    H261725   3.149   3.714   2.092 -0.4491  0.6641 -0.2430
13412TIP3   OH261726   5.420   6.622   2.589 -0.2181 -0.1614  0.4795
13412TIP3    H161727   5.515   6.619   2.587 -0.2334 -0.2991 -0.3024
13412TIP3    H261728   5.393   6.608   2.498 -0.9207  1.7470  0.3389
13413TIP3   OH261729   6.479   0.461  16.526 -0.0437 -0.0926 -0.3528
13413TIP3    H161730   6.558   0.408  16.519  1.5466  2.2918 -1.9084
13413TIP3    H261731   6.510   0.548  16.554 -2.1609  0.8164 -0.6216
13414TIP3   OH261732   0.357   1.005  13.613  0.0086 -0.3835  0.2167
13414TIP3    H161733   0.412   1.028  13.688  0.9561 -0.1656 -0.5351
13414TIP3    H261734   0.418   0.987  13.542 -0.8133 -2.1143 -0.1090
13415TIP3   OH261735   3.009   3.691   5.645 -0.1054  0.1156  0.5310
13415TIP3    H161736   2.924   3.729   5.665  0.2206  0.0494  2.2327
13415TIP3    H261737   2.997   3.597   5.662 -0.6506 -0.5194 -2.7341
13416TIP3   OH261738   1.729   5.633   5.971 -0.1750  0.0150 -0.1969
13416TIP3    H161739   1.766   5.607   6.056 -1.5391 -1.3211  0.0259
13416TIP3    H261740   1.777   5.713   5.948  0.3097  0.3500  1.7656
13417TIP3   OH261741   1.328   6.757   4.661  0.4977  0.4621  0.0532
13417TIP3    H161742   1.416   6.724   4.680 -0.1499 -1.2704  0.2458
13417TIP3    H261743   1.340   6.851   4.645  2.2418  0.4167  0.9046
13418TIP3   OH261744   6.056   0.591   3.332  0.4906  0.9816 -0.4581
13418TIP3    H161745   6.045   0.669   3.386 -0.9603  0.9018 -0.5878
13418TIP3    H261746   6.147   0.594   3.303  0.4684  2.6215 -0.4481
13419TIP3   OH261747   1.355   5.903  13.584  0.2004 -0.0239 -0.1339
13419TIP3    H161748   1.416   5.831  13.600  0.3098 -0.4476 -2.1923
13419TIP3    H261749   1.408   5.970  13.540 -0.3896  0.4374 -0.1566
13420TIP3   OH261750   0.118   2.122   3.140  0.0382 -0.9719  0.4439
13420TIP3    H161751   0.043   2.062   3.131 -0.2965 -0.9149  2.4581
13420TIP3    H261752   0.093   2.181   3.210  1.0880  0.4771 -0.3575
13421TIP3   OH261753   5.300   4.669   1.982  0.3698  0.0939 -0.1850
13421TIP3    H161754   5.217   4.631   2.009 -1.2910  2.6023 -1.3978
13421TIP3    H261755   5.363   4.637   2.046 -1.4325 -2.1477  0.5918
13422TIP3   OH261756   2.688   4.752  11.471 -0.2491  0.0901  0.1600
13422TIP3    H161757   2.610   4.790  11.512 -0.1418 -1.4637  1.9146
13422TIP3    H261758   2.690   4.662  11.502  1.1857 -0.4796 -1.4374
13423TIP3   OH261759   3.268   2.773   5.449 -0.6459  0.6091 -0.2085
13423TIP3    H161760   3.281   2.762   5.543 -1.3993 -1.5133 -0.3171
13423TIP3    H261761   3.308   2.696   5.410 -1.0737  1.0515 -1.5742
13424TIP3   OH261762   1.096   1.307  13.728 -0.1519 -0.7006 -0.0063
13424TIP3    H161763   1.062   1.395  13.709  0.2507 -0.2609  1.2046
13424TIP3    H261764   1.167   1.295  13.666  0.1396  0.0612  0.1676
13425TIP3   OH261765   0.071   5.235  14.684 -0.0879  0.0195  0.4690
13425TIP3    H161766   0.111   5.220  14.599 -1.1367  0.9520 -0.2166
13425TIP3    H261767   0.003   5.300  14.668 -0.9673 -0.5000  1.8343
13426TIP3   OH261768   6.449   6.519  10.543  0.5119 -0.1812 -0.3461
13426TIP3    H161769   6.542   6.524  10.565  0.8115  1.0123 -1.7448
13426TIP3    H261770   6.405   6.511  10.628  1.6663  2.9291  0.6734
13427TIP3   OH261771   3.072   4.805   2.213 -0.5860  0.0235  0.0856
13427TIP3    H161772   2.980   4.820   2.193 -0.3157  1.9296  0.0663
13427TIP3    H261773   3.095   4.874   2.276  0.9983  0.0698 -0.4862
13428TIP3   OH261774   2.497   1.445   3.428  0.9650 -0.4456 -0.7265
13428TIP3    H161775   2.448   1.469   3.349  0.2829  2.1906  0.3832
13428TIP3    H261776   2.445   1.375   3.468 -0.5104  0.4967 -0.9314
13429TIP3   OH261777   6.661   3.972  16.427 -0.2698 -0.3056 -0.0611
13429TIP3    H161778   6.616   3.888  16.417 -1.5813  0.1627  1.4526
13429TIP3    H261779   6.748   3.950  16.459 -0.5986 -1.0926  0.3041
13430TIP3   OH261780   1.123   1.801   3.951  0.8624  0.5091  0.6289
13430TIP3    H161781   1.044   1.754   3.976  1.9320 -0.0586  3.2247
13430TIP3    H261782   1.111   1.889   3.987  0.8212  0.8594 -0.2215
13431TIP3   OH261783   5.887   2.501   2.804 -0.5173  0.6810  1.0207
13431TIP3    H161784   5.807   2.466   2.843  0.8744 -1.9128  1.7283
13431TIP3    H261785   5.905   2.443   2.730  0.3403  1.7004  0.3911
13432TIP3   OH261786   6.432   1.693  11.769  0.1423  0.4597 -0.7293
13432TIP3    H161787   6.506   1.734  11.814 -0.5489  0.4265  0.4906
13432TIP3    H261788   6.409   1.618  11.824  0.2632 -0.5198 -1.9931
13433TIP3   OH261789   1.747   5.723   0.498  0.6115 -0.5533  0.0132
13433TIP3    H161790   1.692   5.646   0.503 -1.4269  0.7534 -1.0517
13433TIP3    H261791   1.770   5.743   0.589  2.5147 -3.2146  0.2440
13434TIP3   OH261792   2.380   3.970   2.494 -0.3102 -0.2861  0.0798
13434TIP3    H161793   2.335   3.905   2.548 -1.7171  1.5719  1.2776
13434TIP3    H261794   2.468   3.934   2.480 -1.2898 -2.8182 -0.0861
13435TIP3   OH261795   5.786   2.853   2.220 -0.0537  0.4502  0.4966
13435TIP3    H161796   5.836   2.871   2.299  0.0743  0.7789  0.3413
13435TIP3    H261797   5.694   2.857   2.248 -0.0076 -2.1620  1.2335
13436TIP3   OH261798   4.956   5.948   2.214 -0.9350  0.2322 -0.4652
13436TIP3    H161799   5.051   5.961   2.206 -0.8272 -1.2000 -1.9394
13436TIP3    H261800   4.945   5.908   2.300 -0.2172  0.4731 -0.2526
13437TIP3   OH261801   5.905   0.393   3.488  0.7429 -0.1206 -0.1117
13437TIP3    H161802   5.923   0.458   3.420  0.0519 -1.0772 -1.2536
13437TIP3    H261803   5.809   0.394   3.497  0.7454 -0.8116  0.0381
13438TIP3   OH261804   0.104   0.584  12.474 -0.3052  0.7915  0.1250
13438TIP3    H161805   0.128   0.652  12.411 -0.2401  2.0456  1.4519
13438TIP3    H261806   0.044   0.627  12.534 -1.0794 -0.6305  0.4140
13439TIP3   OH261807   3.049   2.466  11.814  0.0830  0.3614 -0.1372
13439TIP3    H161808   3.022   2.397  11.874 -0.2511 -0.8823 -1.6604
13439TIP3    H261809   3.135   2.439  11.783  0.8517  1.6673  0.7244
13440TIP3   OH261810   0.591   2.800   6.049  0.2332  0.0361 -0.5094
13440TIP3    H161811   0.508   2.836   6.079  0.6968  1.2659 -0.6333
13440TIP3    H261812   0.631   2.871   5.998  1.1922 -0.6601 -0.7601
13441TIP3   OH261813   5.265   0.347  13.580  0.1407 -0.2442  0.0462
13441TIP3    H161814   5.271   0.441  13.595  0.3715 -0.1676 -0.4835
13441TIP3    H261815   5.322   0.308  13.647 -0.1939 -0.0290  0.4591
13442TIP3   OH261816   0.428   6.643  14.393  0.8174  0.0965 -0.1028
13442TIP3    H161817   0.381   6.700  14.455  2.4645  0.1064  1.2319
13442TIP3    H261818   0.371   6.567  14.382  0.3020  0.2678  1.1588
13443TIP3   OH261819   4.990   2.862   1.203 -0.3135  0.2208 -0.3168
13443TIP3    H161820   4.894   2.868   1.200 -0.2810  0.5261 -0.7267
13443TIP3    H261821   5.014   2.908   1.284 -0.5119  0.1318 -0.2068
13444TIP3   OH261822   1.271   5.714  11.149  0.7014 -0.0899 -0.3859
13444TIP3    H161823   1.180   5.682  11.154  0.7380 -0.4081 -1.3970
13444TIP3    H261824   1.262   5.804  11.117  0.5825  1.1135  2.7257
13445TIP3   OH261825   1.421   4.014   0.693  0.1311  0.2350 -0.2694
13445TIP3    H161826   1.456   3.927   0.712 -0.2083  0.0205 -0.6070
13445TIP3    H261827   1.339   3.997   0.647  0.9165  0.7314 -1.9135
13446TIP3   OH261828   1.436   1.677   5.886 -0.1466 -0.2293 -0.1758
13446TIP3    H161829   1.519   1.642   5.919 -0.6831 -1.8817 -0.4653
13446TIP3    H261830   1.397   1.720   5.962 -0.0660 -1.5154  0.6399
13447TIP3   OH261831   3.750   3.639  16.936 -0.0882  0.5406 -0.0506
13447TIP3    H161832   3.813   3.577  16.899  0.6456  1.2994 -0.0921
13447TIP3    H261833   3.758   3.717  16.882  0.9116  1.6281  1.5559
13448TIP3   OH261834   5.963   6.234  10.738 -0.3748  0.1592  0.2508
13448TIP3    H161835   5.920   6.152  10.714 -0.5976  0.6884 -1.2569
13448TIP3    H261836   5.935   6.296  10.672 -0.7857  1.6673  1.7691
13449TIP3   OH261837   1.190   2.230   4.892 -0.0169 -0.1111 -0.1846
13449TIP3    H161838   1.247   2.284   4.947 -0.2823 -0.0404  0.0253
13449TIP3    H261839   1.224   2.241   4.803  0.4553 -0.2763 -0.0257
13450TIP3   OH261840   2.730   5.368   2.307  0.4342  0.0599  0.0019
13450TIP3    H161841   2.819   5.383   2.339  2.2278 -2.4975 -3.1461
13450TIP3    H261842   2.719   5.431   2.235  0.7583 -1.1635 -1.1774
13451TIP3   OH261843   6.710   5.474  16.590 -0.0647  0.2258 -0.0907
13451TIP3    H161844   6.781   5.444  16.646  0.5768  3.7506  1.2763
13451TIP3    H261845   6.631   5.464  16.643 -0.0991 -0.5000 -0.2747
13452TIP3   OH261846   5.393   1.340   0.991  0.4871  0.0852 -0.3229
13452TIP3    H161847   5.328   1.410   0.994  0.2468 -0.0718 -1.3233
13452TIP3    H261848   5.385   1.296   1.076 -0.6088  0.1761 -0.3626
13453TIP3   OH261849   1.280   4.850  13.920  0.6642  0.1015  0.4653
13453TIP3    H161850   1.352   4.825  13.862  0.5377  0.8032 -0.0174
13453TIP3    H261851   1.280   4.946  13.917  0.5653  0.1394  1.5232
13454TIP3   OH261852   4.820   1.059  13.750 -0.6181  0.2575  0.5719
13454TIP3    H161853   4.761   1.113  13.802 -0.6381  1.8596 -1.0528
13454TIP3    H261854   4.768   1.034  13.673 -0.4804 -1.7956  1.0828
13455TIP3   OH261855   4.316   4.790  15.102 -0.4357 -0.0791  0.2794
13455TIP3    H161856   4.300   4.793  15.008  0.7199 -2.2522 -0.0555
13455TIP3    H261857   4.281   4.706  15.129 -0.3063  0.3108  1.7214
13456TIP3   OH261858   6.072   6.711   3.255  0.0401  0.1887 -0.6083
13456TIP3    H161859   6.114   6.736   3.172 -1.3060  1.8182 -0.8451
13456TIP3    H261860   6.144   6.707   3.318  1.1566 -1.4794 -1.8981
13457TIP3   OH261861   4.037   5.997   0.920  0.0657  0.1502  0.0239
13457TIP3    H161862   4.070   6.005   1.010 -1.3551  0.0522  0.5836
13457TIP3    H261863   3.988   6.078   0.906 -0.2245 -0.1075 -0.4460
13458TIP3   OH261864   3.032   5.076   5.008  0.2386 -0.1039  0.6013
13458TIP3    H161865   3.101   5.118   4.957 -0.9341  1.3372  0.1354
13458TIP3    H261866   3.026   5.128   5.088 -0.9957  0.4386  0.1747
13459TIP3   OH261867   2.697   5.286  11.108  0.0430  0.2739 -0.0845
13459TIP3    H161868   2.763   5.277  11.040  0.0723  2.2521 -0.3615
13459TIP3    H261869   2.702   5.203  11.157  0.2377 -1.0491 -2.2404
13460TIP3   OH261870   3.176   5.973  15.674 -0.5255  0.4505  0.2205
13460TIP3    H161871   3.205   6.040  15.737 -2.0046  2.2792 -0.9310
13460TIP3    H261872   3.082   5.964  15.690 -1.0030  1.1667 -1.8457
13461TIP3   OH261873   2.428   3.744  11.168  0.0949 -0.1320 -0.2276
13461TIP3    H161874   2.513   3.788  11.177  0.4865 -1.0762  1.1186
13461TIP3    H261875   2.365   3.815  11.158  1.0140  0.5941 -1.0521
13462TIP3   OH261876   1.421   6.107   2.080 -0.4779 -0.0386 -0.6581
13462TIP3    H161877   1.495   6.122   2.021 -0.7205 -0.2776 -1.0239
13462TIP3    H261878   1.380   6.026   2.048 -0.2759 -0.4903  0.1715
13463TIP3   OH261879   0.009   2.695   4.879  0.2803  0.3239 -0.1007
13463TIP3    H161880   0.010   2.774   4.933 -0.2026 -0.0371  0.4606
13463TIP3    H261881   0.028   2.624   4.941 -2.1043 -0.3120  0.0096
13464TIP3   OH261882   6.181   5.025  10.798  0.0967 -0.5559 -0.4267
13464TIP3    H161883   6.131   5.102  10.826 -0.2374 -0.3646 -1.5047
13464TIP3    H261884   6.123   4.951  10.816  0.4659 -0.5817  0.7229
13465TIP3   OH261885   1.409   6.396  12.970 -0.0645  0.1924 -0.5030
13465TIP3    H161886   1.373   6.394  13.059 -1.8160  1.5133 -1.1188
13465TIP3    H261887   1.348   6.451  12.921  1.8169  0.9386 -2.1243
13466TIP3   OH261888   0.838   0.944  16.521  0.4651  0.3296  0.3066
13466TIP3    H161889   0.792   0.916  16.600  0.8936 -0.9560  0.1195
13466TIP3    H261890   0.867   0.863  16.480 -2.2259  0.6550 -2.7288
13467TIP3   OH261891   2.431   1.228   3.885 -0.1209 -0.1315 -0.0989
13467TIP3    H161892   2.507   1.253   3.833 -0.5293  1.8623  0.1696
13467TIP3    H261893   2.468   1.194   3.966  0.4985 -0.4104 -0.4912
13468TIP3   OH261894   6.422   0.122   4.300  0.0936  0.0174  0.7411
13468TIP3    H161895   6.464   0.095   4.382  0.8251 -0.1273  0.3303
13468TIP3    H261896   6.420   0.041   4.247  1.8821  0.5978 -0.3255
13469TIP3   OH261897   4.931   6.525  11.959  0.0024 -0.3008 -0.0515
13469TIP3    H161898   4.889   6.570  12.032  2.1078 -0.3156  1.2539
13469TIP3    H261899   5.001   6.585  11.931 -0.0629 -0.7825 -1.3442
13470TIP3   OH261900   4.575   1.481  14.104 -0.2366  0.4155 -0.5353
13470TIP3    H161901   4.550   1.395  14.138 -1.4358  1.1815  0.5973
13470TIP3    H261902   4.669   1.487  14.120 -0.2446 -0.4623 -0.1105
13471TIP3   OH261903   3.952   1.029  16.219  0.3780 -0.4865 -0.6022
13471TIP3    H161904   3.983   0.957  16.163  0.5765 -0.3193 -0.7103
13471TIP3    H261905   4.011   1.102  16.199  0.9917 -0.6778  0.4649
13472TIP3   OH261906   4.641   3.435   0.365  0.2933 -0.3091 -0.0592
13472TIP3    H161907   4.608   3.522   0.385  1.9320  0.2132  0.5549
13472TIP3    H261908   4.711   3.451   0.301  0.3067 -1.2184 -0.2823
13473TIP3   OH261909   1.062   4.567   4.402  0.0548  0.1480 -0.1234
13473TIP3    H161910   0.985   4.510   4.412 -0.5978  0.4452 -2.6471
13473TIP3    H261911   1.124   4.513   4.353  0.3608  0.8034 -0.4683
13474TIP3   OH261912   4.485   6.678  13.290  0.4157  0.0025 -0.5198
13474TIP3    H161913   4.565   6.684  13.238  0.1114 -0.4404 -1.0517
13474TIP3    H261914   4.514   6.660  13.379  0.9026 -0.1217 -0.7064
13475TIP3   OH261915   3.919   0.677  16.901  0.3962  0.1720 -0.3882
13475TIP3    H161916   3.968   0.606  16.860  1.2849  0.8918 -0.6259
13475TIP3    H261917   3.887   0.730  16.828 -0.3214 -0.0260 -0.2172
13476TIP3   OH261918   5.430   2.164  14.842 -0.0111  0.4368  0.6632
13476TIP3    H161919   5.447   2.136  14.752 -3.4825  0.5225 -0.1854
13476TIP3    H261920   5.403   2.255  14.834 -3.1595 -0.3114  1.2353
13477TIP3   OH261921   6.070   4.087   4.415 -0.6805 -0.6109 -0.4868
13477TIP3    H161922   6.119   4.095   4.497 -1.8601 -2.3508  0.4290
13477TIP3    H261923   6.136   4.063   4.350  0.0559 -0.6020  0.2463
13478TIP3   OH261924   2.547   3.385   1.134  0.2493  0.3145 -0.0762
13478TIP3    H161925   2.613   3.451   1.155  0.2758  0.8554 -1.7318
13478TIP3    H261926   2.588   3.301   1.155  1.2891  0.6700 -0.6634
13479TIP3   OH261927   4.441   3.457  13.274  0.0772 -0.0426  0.1938
13479TIP3    H161928   4.494   3.533  13.254  0.3760 -0.7267 -1.8110
13479TIP3    H261929   4.501   3.396  13.317  0.9731 -0.7892 -2.0113
13480TIP3   OH261930   3.344   4.352   3.298  0.0722  0.0360  0.2803
13480TIP3    H161931   3.372   4.411   3.368 -1.9771 -0.7479  1.8859
13480TIP3    H261932   3.259   4.387   3.270  0.0738 -0.6445 -0.6325
13481TIP3   OH261933   4.200   2.699  16.902 -0.5026 -0.0844  0.4489
13481TIP3    H161934   4.282   2.723  16.859  0.6200  0.2120  2.6160
13481TIP3    H261935   4.197   2.604  16.897 -0.4897 -0.0509 -0.3988
13482TIP3   OH261936   1.190   5.159  11.180 -0.0695 -0.5282  0.1873
13482TIP3    H161937   1.230   5.243  11.202  0.2554 -0.3658 -0.9639
13482TIP3    H261938   1.265   5.101  11.161 -0.2977 -1.0195  0.7602
13483TIP3   OH261939   1.014   1.509   5.049  0.0306 -0.5078  0.2517
13483TIP3    H161940   0.940   1.500   4.990 -0.7428 -2.3479  1.4138
13483TIP3    H261941   1.091   1.493   4.994 -0.4710  0.4515 -0.7646
13484TIP3   OH261942   0.885   5.956   0.064  0.3417 -0.4295 -0.1395
13484TIP3    H161943   0.873   5.874   0.111 -0.3515 -0.8667 -1.0415
13484TIP3    H261944   0.811   5.960   0.003  0.5596  0.6912 -0.3588
13485TIP3   OH261945   2.451   2.628  13.786  0.5261 -0.2229  0.4289
13485TIP3    H161946   2.458   2.574  13.707  2.1012  1.6235 -0.7800
13485TIP3    H261947   2.530   2.681  13.785  0.6412 -0.2062  3.3489
13486TIP3   OH261948   5.124   3.061  15.785 -0.2248  0.2488 -0.2202
13486TIP3    H161949   5.128   3.119  15.861  0.6251 -0.0718 -0.0081
13486TIP3    H261950   5.120   2.973  15.822  0.7852  0.0589 -0.5341
13487TIP3   OH261951   4.806   3.161   2.672 -0.5028 -0.6333 -0.3746
13487TIP3    H161952   4.711   3.177   2.670  0.0743  4.5750 -1.4824
13487TIP3    H261953   4.830   3.145   2.581 -0.1608 -0.5490 -0.2995
13488TIP3   OH261954   2.132   3.737  14.617 -0.1758 -0.1350  1.0449
13488TIP3    H161955   2.193   3.677  14.659 -1.3124 -1.7089  0.5244
13488TIP3    H261956   2.105   3.693  14.537 -1.3453  0.9015  0.8318
13489TIP3   OH261957   4.293   6.438   2.664 -0.2615 -0.5156  0.5931
13489TIP3    H161958   4.333   6.516   2.627  0.3538 -0.1211  2.0192
13489TIP3    H261959   4.204   6.438   2.630 -0.5174  1.2461  1.1727
13490TIP3   OH261960   1.862   6.833  14.875 -0.1065  0.1649  0.9436
13490TIP3    H161961   1.863   6.909  14.933 -0.3677  1.4362 -0.6806
13490TIP3    H261962   1.789   6.849  14.815  0.1698 -1.1196  0.2212
13491TIP3   OH261963   2.262   6.082  16.701 -0.1950 -0.6157  0.3699
13491TIP3    H161964   2.332   6.102  16.638  1.2552 -0.9832  1.8056
13491TIP3    H261965   2.197   6.151  16.686  0.2274 -0.5215 -1.3128
13492TIP3   OH261966   2.908   4.483  16.529  0.2272 -0.4107 -0.6466
13492TIP3    H161967   2.843   4.419  16.559 -0.9074 -0.4389 -2.9438
13492TIP3    H261968   2.912   4.548  16.599 -2.2542 -0.4523 -0.3746
13493TIP3   OH261969   0.749   2.533   0.751 -0.0231 -0.0930  0.3175
13493TIP3    H161970   0.841   2.518   0.775 -0.6392 -2.0598  1.7695
13493TIP3    H261971   0.749   2.534   0.655  1.6663  1.2879  0.2865
13494TIP3   OH261972   0.664   3.915  12.156  0.4051 -0.0599 -0.2919
13494TIP3    H161973   0.656   3.930  12.251 -0.0850 -1.5258 -0.0800
13494TIP3    H261974   0.601   3.845  12.138  1.7199 -0.9938 -1.3972
13495TIP3   OH261975   3.387   2.924   5.103  0.3663 -0.0900  0.0721
13495TIP3    H161976   3.474   2.932   5.062  0.3457  2.6671  0.3508
13495TIP3    H261977   3.383   2.999   5.163 -3.1161  1.3945 -1.7381
13496TIP3   OH261978   0.391   4.525   3.172  0.4261  0.9242 -0.3381
13496TIP3    H161979   0.466   4.520   3.231 -1.0124  0.0612  1.5027
13496TIP3    H261980   0.329   4.581   3.217 -2.2067 -2.6008  0.8366
13497TIP3   OH261981   5.484   5.143   4.726 -0.4572  0.0671 -0.0627
13497TIP3    H161982   5.562   5.088   4.733 -0.9152 -0.5963 -0.1727
13497TIP3    H261983   5.415   5.084   4.696 -1.1679  0.5027  0.6812
13498TIP3   OH261984   3.634   5.620  16.687 -0.1428 -0.2881 -0.0415
13498TIP3    H161985   3.633   5.578  16.773 -0.5934  0.3767  0.2852
13498TIP3    H261986   3.546   5.657  16.677  0.2762  0.6691 -0.2723
13499TIP3   OH261987   6.462   3.768  13.586  0.3548  0.4910 -0.1254
13499TIP3    H161988   6.535   3.830  13.586  2.1098 -1.4057  1.0448
13499TIP3    H261989   6.395   3.808  13.640  0.8489  1.9545 -0.5589
13500TIP3   OH261990   6.465   1.249   3.221  0.0991 -0.2312 -0.7851
13500TIP3    H161991   6.397   1.187   3.192  1.1070 -2.1423  0.7191
13500TIP3    H261992   6.535   1.238   3.157 -0.5234  1.0045 -1.7482
13501TIP3   OH261993   0.194   2.324  14.810 -0.3334  0.0812  0.0812
13501TIP3    H161994   0.209   2.256  14.744 -0.9164  0.6712 -0.6789
13501TIP3    H261995   0.277   2.330  14.857 -0.6520 -2.0809  1.0689
13502TIP3   OH261996   4.213   2.558  15.146 -0.6360  0.3099  0.3736
13502TIP3    H161997   4.174   2.644  15.131 -3.0898 -0.5807  1.1563
13502TIP3    H261998   4.247   2.532  15.060 -0.3367  1.7940  0.0105
13503TIP3   OH261999   1.088   2.508  16.239  0.5942 -0.1491  0.1934
13503TIP3    H162000   1.039   2.541  16.164  1.3718  1.7668  0.4800
13503TIP3    H262001   1.174   2.486  16.204  0.3293 -1.2113  0.1613
13504TIP3   OH262002   5.892   3.353  14.519 -0.3770 -0.0480  0.3603
13504TIP3    H162003   5.798   3.348  14.500 -0.5592  1.2992  0.8075
13504TIP3    H262004   5.897   3.359  14.615  0.1842 -0.2661  0.3503
13505TIP3   OH262005   5.207   0.159  17.110 -0.1439 -0.2014 -0.4643
13505TIP3    H162006   5.267   0.218  17.155 -2.4231  1.0722  1.1487
13505TIP3    H262007   5.188   0.202  17.027  0.3814 -0.1196 -0.5444
13506TIP3   OH262008   4.544   4.434  13.867 -0.4966 -0.4321 -0.5292
13506TIP3    H162009   4.543   4.362  13.804  0.2087 -1.1055  0.1922
13506TIP3    H262010   4.628   4.424  13.912 -0.3526  0.9027 -0.4682
13507TIP3   OH262011   3.476   5.641  13.380 -0.0738 -0.4183 -0.6101
13507TIP3    H162012   3.497   5.558  13.336  1.3373  0.7072 -2.1796
13507TIP3    H262013   3.431   5.693  13.314  1.2293  0.9579 -0.4788
13508TIP3   OH262014   2.309   0.035   4.271 -0.0576  0.4657  0.4109
13508TIP3    H162015   2.343   0.081   4.195 -3.0599 -0.2696 -1.5738
13508TIP3    H262016   2.276  -0.048   4.237  1.2062 -1.3053  3.1125
13509TIP3   OH262017   1.666   3.378   3.937  0.4404 -0.5674  0.4604
13509TIP3    H162018   1.654   3.473   3.935 -0.4038 -0.6837 -0.2441
13509TIP3    H262019   1.616   3.345   3.863 -0.3791 -1.6831  1.4594
13510TIP3   OH262020   2.762   3.311  16.855 -0.6585 -0.7073 -0.4246
13510TIP3    H162021   2.850   3.345  16.867 -0.5323 -1.7944  2.2651
13510TIP3    H262022   2.756   3.295  16.760  1.9904 -0.5658 -0.6921
13511TIP3   OH262023   6.711   3.169   5.753 -0.5896 -0.0299  0.0941
13511TIP3    H162024   6.671   3.216   5.826 -0.1777  0.5824 -0.0663
13511TIP3    H262025   6.725   3.081   5.786 -0.5021  0.2139  0.7208
13512TIP3   OH262026   3.994   3.768   3.551  0.1863 -0.0802 -0.0818
13512TIP3    H162027   4.030   3.765   3.462  1.1168 -0.3151  0.2881
13512TIP3    H262028   3.900   3.782   3.539  0.6046  2.3906 -1.0389
13513TIP3   OH262029   4.730   0.976   1.060  0.2658  0.6490 -0.2127
13513TIP3    H162030   4.751   1.067   1.080  2.2716  0.1676  0.0224
13513TIP3    H262031   4.811   0.939   1.027 -0.8041 -0.7860 -1.3658
13514TIP3   OH262032   6.079   2.515  15.254 -0.2466 -0.2656 -0.5499
13514TIP3    H162033   6.150   2.578  15.242  0.3459 -0.5995  0.9854
13514TIP3    H262034   6.002   2.559  15.218 -0.3407  2.3524  2.4702
13515TIP3   OH262035   4.847   2.354  12.028 -0.9169 -0.2319  0.2144
13515TIP3    H162036   4.811   2.435  12.064  0.7013  1.0767 -0.9437
13515TIP3    H262037   4.904   2.320  12.097  0.7550  1.2823 -0.3546
13516TIP3   OH262038   6.845   0.065   3.912 -0.3259 -0.3724  0.5601
13516TIP3    H162039   6.831   0.098   4.001 -2.6027  0.0192  0.1173
13516TIP3    H262040   6.841  -0.030   3.921  0.0442 -0.3550  0.9505
13517TIP3   OH262041   0.894   1.602   3.029  0.3513  0.2133  0.0598
13517TIP3    H162042   0.946   1.660   3.085  1.2119 -1.1910  0.7621
13517TIP3    H262043   0.863   1.659   2.958  1.2082  1.5146  0.6926
13518TIP3   OH262044   4.477   0.182   4.348 -0.2452 -0.2425  0.1654
13518TIP3    H162045   4.554   0.237   4.361 -0.3336  0.3680 -1.5590
13518TIP3    H262046   4.406   0.244   4.330 -0.2707 -0.8368 -2.1745
13519TIP3   OH262047   2.374   0.078   1.454  0.4480 -0.8543  0.1638
13519TIP3    H162048   2.385   0.066   1.360 -0.2792 -0.1772 -0.0257
13519TIP3    H262049   2.393  -0.007   1.493  4.0921 -0.3811 -0.2508
13520TIP3   OH262050   3.406   3.248   2.006  0.2923 -0.3949  0.0795
13520TIP3    H162051   3.391   3.178   1.943 -1.2493  0.8075 -0.9379
13520TIP3    H262052   3.325   3.253   2.056  1.4289 -1.2294  2.1344
13521TIP3   OH262053   0.900   5.724   3.900 -0.0680 -0.3657  0.2154
13521TIP3    H162054   0.866   5.711   3.812 -0.9449 -3.2366  0.8807
13521TIP3    H262055   0.879   5.643   3.946  0.7061  0.8821  2.9692
13522TIP3   OH262056   3.695   5.476   1.817  0.8034 -0.3280  0.4890
13522TIP3    H162057   3.602   5.488   1.838  0.8359  0.6882  0.1388
13522TIP3    H262058   3.741   5.510   1.894  0.8888  0.5874  0.0483
13523TIP3   OH262059   2.379   1.814   4.982 -0.0533 -0.8052  0.0580
13523TIP3    H162060   2.348   1.885   5.038  0.8291  0.0427 -0.4956
13523TIP3    H262061   2.326   1.822   4.903  1.8225  0.9927 -1.1156
13524TIP3   OH262062   4.216   5.760  15.103 -0.5396 -0.1305 -0.1584
13524TIP3    H162063   4.209   5.739  15.196 -2.9995  0.0910 -0.2473
13524TIP3    H262064   4.269   5.840  15.101  0.7874 -0.9285  0.8957
13525TIP3   OH262065   5.771   3.011  13.612 -0.1032 -0.3458 -0.0871
13525TIP3    H162066   5.703   3.067  13.574  0.1987 -0.0361 -0.1759
13525TIP3    H262067   5.742   2.922  13.594  0.2449 -0.2108 -1.4335
13526TIP3   OH262068   4.613   3.507   5.593  0.0660  0.1526 -0.0935
13526TIP3    H162069   4.543   3.493   5.657  0.0126 -0.1560 -0.2202
13526TIP3    H262070   4.668   3.575   5.633 -1.4679  2.0065 -0.9219
13527TIP3   OH262071   3.922   1.489  11.417 -0.3153 -0.3489 -0.1187
13527TIP3    H162072   3.936   1.531  11.332  0.6876 -0.4277 -0.0112
13527TIP3    H262073   3.905   1.562  11.477  2.4141  0.0878  0.2696
13528TIP3   OH262074   1.643   3.277  17.019  0.1019 -0.1730  0.2621
13528TIP3    H162075   1.722   3.222  17.017  1.0324  1.1188 -0.8960
13528TIP3    H262076   1.602   3.257  17.103  0.6558 -2.2394  0.1134
13529TIP3   OH262077   4.310   3.218  13.904  0.5868  0.4967 -0.2396
13529TIP3    H162078   4.238   3.242  13.962  0.4934  1.1967 -0.6423
13529TIP3    H262079   4.370   3.293  13.906 -0.3232  1.3791 -2.4796
13530TIP3   OH262080   5.513   2.963  15.626  0.3287  0.4507  0.5715
13530TIP3    H162081   5.439   2.910  15.598  0.0123  0.6567  1.0192
13530TIP3    H262082   5.521   2.947  15.719  0.5869  0.7494  0.6028
13531TIP3   OH262083   5.651   6.209   0.597  0.0412  0.0717 -0.0232
13531TIP3    H162084   5.610   6.137   0.645  1.7502 -1.5986 -0.9319
13531TIP3    H262085   5.719   6.242   0.655  1.5619 -1.4049 -0.8915
13532TIP3   OH262086   4.475   5.461  16.090  0.2749  0.2950  0.3010
13532TIP3    H162087   4.570   5.451  16.086  0.2661  0.4483 -0.3901
13532TIP3    H262088   4.461   5.539  16.144  0.6054  1.1291 -0.7611
13533TIP3   OH262089   6.074   3.850  13.556  0.1127  0.2610  0.0316
13533TIP3    H162090   6.108   3.859  13.467  1.1033  0.5603  0.4355
13533TIP3    H262091   6.146   3.877  13.612 -0.7683  0.8362  0.9055
13534TIP3   OH262092   2.568   4.186  15.339  0.0537 -0.0940  0.0597
13534TIP3    H162093   2.564   4.112  15.400  1.7653  0.6827  1.1848
13534TIP3    H262094   2.476   4.205  15.319 -0.4854 -1.3992  1.1274
13535TIP3   OH262095   1.163   2.148   0.400  0.2552 -0.3335 -0.5441
13535TIP3    H162096   1.258   2.135   0.391  0.4615  1.5698 -1.8230
13535TIP3    H262097   1.131   2.151   0.309 -1.1344 -1.4060 -0.1232
13536TIP3   OH262098   3.466   5.334   0.642  0.2161  0.2086 -0.6511
13536TIP3    H162099   3.398   5.343   0.576  0.8891 -2.0182 -1.7417
13536TIP3    H262100   3.536   5.393   0.614 -0.7558  1.6465 -0.1416
13537TIP3   OH262101   2.191   5.449   2.256 -0.1914  0.3559  0.4340
13537TIP3    H162102   2.160   5.380   2.316 -1.3018  0.8425  0.4444
13537TIP3    H262103   2.119   5.460   2.194  1.5005 -1.1697 -1.9605
13538TIP3   OH262104   5.688   3.450   1.322 -0.1874  0.2198 -0.2336
13538TIP3    H162105   5.727   3.456   1.235  1.2528 -1.3175  0.2479
13538TIP3    H262106   5.699   3.537   1.360  0.6753  0.4433 -0.9797
13539TIP3   OH262107   4.934   5.612  14.860 -0.1934 -0.5511 -0.0144
13539TIP3    H162108   4.967   5.575  14.942  1.3604 -0.7227 -0.6833
13539TIP3    H262109   4.858   5.664  14.886 -1.2545 -2.5855  1.2054
13540TIP3   OH262110   5.115   3.502   5.315  0.2265 -0.2207  0.2991
13540TIP3    H162111   5.109   3.412   5.347  0.6941 -0.7830 -1.1389
13540TIP3    H262112   5.049   3.508   5.247  0.4670  0.4122  0.1190
13541TIP3   OH262113   6.464   0.366   0.177  0.3287 -0.6129 -0.1327
13541TIP3    H162114   6.398   0.323   0.231 -1.4397  1.4110 -0.5653
13541TIP3    H262115   6.544   0.363   0.230 -0.9729  0.0427  1.9950
13542TIP3   OH262116   1.017   3.528   4.657 -0.5006  0.5763 -0.4025
13542TIP3    H162117   1.101   3.482   4.652  0.0350  1.3411  1.0153
13542TIP3    H262118   0.975   3.511   4.573  0.8415 -0.2615 -0.9314
13543TIP3   OH262119   1.853   3.259   5.827  0.0840  0.1264 -0.2742
13543TIP3    H162120   1.768   3.226   5.857  0.7169 -1.1648  0.1654
13543TIP3    H262121   1.875   3.326   5.891  0.2380 -0.8385  0.7255
13544TIP3   OH262122   6.618   0.241  13.244 -0.4769  0.9776 -0.8009
13544TIP3    H162123   6.604   0.328  13.280 -0.2571  0.3753  0.7942
13544TIP3    H262124   6.646   0.257  13.154  3.0416  2.7596  0.4231
13545TIP3   OH262125   3.845   5.246   0.777 -0.2347  0.0932  0.4340
13545TIP3    H162126   3.779   5.282   0.835  0.4807  1.5411  0.3837
13545TIP3    H262127   3.857   5.156   0.807 -0.9852  0.3502  1.5286
13546TIP3   OH262128   4.179   2.199  15.041  0.5386  0.2963 -0.5361
13546TIP3    H162129   4.273   2.188  15.026  0.7982  1.0703  0.4304
13546TIP3    H262130   4.142   2.112  15.027  1.4793 -0.1397 -0.3839
13547TIP3   OH262131   0.400   3.691  11.099  0.4127 -0.3513  0.3276
13547TIP3    H162132   0.448   3.749  11.159 -1.3708  1.0706  0.4759
13547TIP3    H262133   0.426   3.603  11.126  0.2913  0.2558  2.7214
13548TIP3   OH262134   3.829   3.180  14.276  0.9314  0.0639 -0.4382
13548TIP3    H162135   3.883   3.117  14.323 -0.5534 -0.1310  1.1363
13548TIP3    H262136   3.815   3.251  14.340 -0.8376 -0.0209 -0.6874
13549TIP3   OH262137   5.663   4.621   5.697  0.1194  0.3050 -0.5492
13549TIP3    H162138   5.706   4.604   5.613  1.8648  3.6538 -0.5188
13549TIP3    H262139   5.693   4.550   5.753  1.2933 -0.4376 -2.0278
13550TIP3   OH262140   4.238   0.084   1.063  0.1910  0.3099 -0.0162
13550TIP3    H162141   4.198   0.065   0.978  0.2927  0.5261 -0.1130
13550TIP3    H262142   4.163   0.091   1.123  0.1300 -0.0344 -0.0469
13551TIP3   OH262143   5.060   2.228  16.715 -0.4937 -0.4307 -0.6087
13551TIP3    H162144   5.054   2.194  16.804  0.4649 -0.4334 -0.5366
13551TIP3    H262145   5.089   2.153  16.662 -0.8912 -0.3853 -0.8999
13552TIP3   OH262146   5.167   4.241   5.605 -0.3874  0.4002  0.2236
13552TIP3    H162147   5.098   4.277   5.661 -1.0999  0.3193 -0.5949
13552TIP3    H262148   5.175   4.303   5.533  0.1002  0.1832  0.0839
13553TIP3   OH262149   4.575   4.398  12.548 -0.0522 -0.2312 -0.3026
13553TIP3    H162150   4.551   4.362  12.463  2.0850  0.8664 -1.4579
13553TIP3    H262151   4.586   4.322  12.604 -4.0943 -0.8904 -0.1528
13554TIP3   OH262152   6.131   3.580  12.038  0.2208 -0.1199  0.3481
13554TIP3    H162153   6.083   3.660  12.016  0.2789  0.1514  1.1908
13554TIP3    H262154   6.075   3.509  12.006  0.3532  0.2504 -0.7742
13555TIP3   OH262155   5.444   0.247  13.754 -0.6756  0.1954 -0.4441
13555TIP3    H162156   5.525   0.199  13.737  0.5852  1.2675  1.9221
13555TIP3    H262157   5.424   0.228  13.846 -0.6658  3.2650  0.3078
13556TIP3   OH262158   1.572   2.391   5.969  0.2148 -0.4629 -0.1379
13556TIP3    H162159   1.497   2.396   5.909 -1.4368 -2.0698  1.6441
13556TIP3    H262160   1.582   2.298   5.987  1.3906 -0.1115  1.1955
13557TIP3   OH262161   6.591   5.303   0.734  0.0923 -0.1349  0.2808
13557TIP3    H162162   6.610   5.390   0.698  0.8478 -0.5986 -0.4619
13557TIP3    H262163   6.588   5.318   0.829  0.8182  0.6019  0.2055
13558TIP3   OH262164   2.064   1.220  11.910 -0.3551  0.2059 -0.1069
13558TIP3    H162165   1.994   1.158  11.931 -1.5529  1.6342  0.3490
13558TIP3    H262166   2.142   1.185  11.954  0.3176 -3.4586 -3.6663
13559TIP3   OH262167   1.625   4.761   1.980  0.2320 -0.0047  0.3693
13559TIP3    H162168   1.631   4.735   2.072 -0.1052  0.1915  0.4471
13559TIP3    H262169   1.657   4.852   1.980 -0.5169  0.2615  0.4184
13560TIP3   OH262170   6.278   3.568  11.600 -0.0665  0.2558  0.0169
13560TIP3    H162171   6.309   3.640  11.655 -2.1395  1.5778 -0.4194
13560TIP3    H262172   6.323   3.581  11.517  0.7337  0.1036  0.4155
13561TIP3   OH262173   6.607   4.875   6.434  0.5952  0.2001  0.3397
13561TIP3    H162174   6.541   4.846   6.371  1.7377 -0.1332 -0.7302
13561TIP3    H262175   6.641   4.794   6.473  2.0399  0.1822 -0.8639
13562TIP3   OH262176   0.663   5.410  13.312  0.6793  0.4969  0.3005
13562TIP3    H162177   0.657   5.315  13.318 -0.9200  0.5482 -0.1150
13562TIP3    H262178   0.652   5.429  13.219  0.3399  1.1269  0.4642
13563TIP3   OH262179   2.005   5.458  13.201  0.1874  0.3347  0.0677
13563TIP3    H162180   1.910   5.452  13.187 -0.0037  2.2345  0.3355
13563TIP3    H262181   2.016   5.529  13.264  1.7437 -0.5628  0.8681
13564TIP3   OH262182   2.273   6.804  13.441  0.3019  0.1288  0.0117
13564TIP3    H162183   2.298   6.752  13.365  2.6495  0.9616  0.1312
13564TIP3    H262184   2.351   6.804  13.497 -0.7294  1.1028  1.5297
13565TIP3   OH262185   3.466   5.529  11.459  0.3042  0.1315 -0.1174
13565TIP3    H162186   3.402   5.589  11.495  0.5413 -0.8314  2.0512
13565TIP3    H262187   3.431   5.442  11.476  1.6243 -0.3976  0.0780
13566TIP3   OH262188   1.818   1.745   0.769 -0.3418  0.9615  0.0612
13566TIP3    H162189   1.777   1.790   0.843 -0.1776  0.4504  0.4669
13566TIP3    H262190   1.766   1.666   0.757 -0.2210  0.9230 -0.2200
13567TIP3   OH262191   5.935   4.518  17.027  0.1106  0.3005 -0.2988
13567TIP3    H162192   5.983   4.581  16.973 -0.0352 -0.1291 -0.9541
13567TIP3    H262193   5.848   4.514  16.988  0.3229 -0.8123 -0.7312
13568TIP3   OH262194   3.601   6.499  16.799 -0.5104 -0.0592 -0.2526
13568TIP3    H162195   3.558   6.557  16.736 -0.0114  3.4987  2.3824
13568TIP3    H262196   3.542   6.497  16.874  0.7406 -0.7994  0.7517
13569TIP3   OH262197   5.252   5.919   5.332 -0.1701  0.2893 -0.2761
13569TIP3    H162198   5.249   5.959   5.419  1.1291 -0.5022  0.1569
13569TIP3    H262199   5.280   5.829   5.348 -0.3014  0.0193 -1.4837
13570TIP3   OH262200   3.904   3.079   0.640  0.0354  0.2903  0.6699
13570TIP3    H162201   3.866   3.159   0.674 -2.5521 -1.0518  1.1624
13570TIP3    H262202   3.829   3.027   0.611  1.6809 -1.5799 -0.5050
13571TIP3   OH262203   4.083   6.057   0.589  0.4978 -0.3569  0.1039
13571TIP3    H162204   3.990   6.078   0.598  0.5169 -0.2022 -0.0443
13571TIP3    H262205   4.099   5.989   0.655  0.4741  0.2148  0.7097
13572TIP3   OH262206   6.728   1.394  12.114 -0.3863  0.3249  0.1478
13572TIP3    H162207   6.733   1.374  12.208 -0.6220 -0.6336 -0.0354
13572TIP3    H262208   6.641   1.363  12.087  0.3821 -1.1512 -0.7683
13573TIP3   OH262209   4.016   4.454   6.038  0.2556 -0.3351 -0.1191
13573TIP3    H162210   3.958   4.517   6.080 -0.5656 -0.0249 -1.6433
13573TIP3    H262211   4.060   4.410   6.110 -0.4812  0.7386  1.0227
13574TIP3   OH262212   5.293   0.247   4.391 -0.8911  0.5944  0.1088
13574TIP3    H162213   5.238   0.222   4.317  0.0746 -1.2247 -0.0601
13574TIP3    H262214   5.251   0.205   4.467 -1.1822  1.4101  0.4075
13575TIP3   OH262215   2.036   4.572  11.499 -0.5891  0.1049  0.1498
13575TIP3    H162216   2.032   4.542  11.590 -0.5567 -2.3881 -0.6015
13575TIP3    H262217   1.945   4.588  11.474 -1.0845 -3.1135 -0.5017
13576TIP3   OH262218   5.659   0.177   1.499  0.6505 -0.2293  0.5996
13576TIP3    H162219   5.753   0.172   1.513  0.4830  1.0245  2.5187
13576TIP3    H262220   5.621   0.164   1.586 -1.0263 -1.6631 -0.2719
13577TIP3   OH262221   0.684   3.042   1.926  0.7290 -0.6382 -0.2463
13577TIP3    H162222   0.696   3.048   1.831  1.2668 -0.3905 -0.1610
13577TIP3    H262223   0.655   2.952   1.941 -1.7992 -0.0289 -0.9118
13578TIP3   OH262224   1.235   6.772   4.391  0.1000  0.2955 -0.0365
13578TIP3    H162225   1.170   6.842   4.392  0.7325  0.8886  0.4760
13578TIP3    H262226   1.297   6.795   4.460  0.3377 -0.7588  0.1309
13579TIP3   OH262227   1.198   1.722   1.745  0.1210  0.4125  0.5853
13579TIP3    H162228   1.273   1.696   1.692  1.0699  1.8768  1.1791
13579TIP3    H262229   1.174   1.642   1.793 -0.4163 -0.7986 -1.5408
13580TIP3   OH262230   0.670   4.864  15.612 -0.4223 -0.2759 -0.1569
13580TIP3    H162231   0.724   4.809  15.554 -1.1854  0.1277 -1.2816
13580TIP3    H262232   0.619   4.801  15.664  2.6821 -0.7820  2.6300
13581TIP3   OH262233   4.140   3.082   5.508  0.8596 -0.4653  0.0722
13581TIP3    H162234   4.069   3.069   5.445 -0.7761  0.2187  1.6957
13581TIP3    H262235   4.139   3.176   5.526  1.5458 -0.6015  0.8589
13582TIP3   OH262236   5.800   5.701   1.234  0.1835  0.2731  0.2015
13582TIP3    H162237   5.739   5.628   1.238 -2.2585  2.1963  0.4424
13582TIP3    H262238   5.799   5.738   1.322 -0.4258  1.9081 -0.4468
13583TIP3   OH262239   6.405   5.227  16.102  0.1982 -0.3939 -0.6563
13583TIP3    H162240   6.426   5.161  16.167  1.5995  0.0589 -0.6146
13583TIP3    H262241   6.490   5.259  16.072 -0.4373  0.3537 -1.7335
13584TIP3   OH262242   5.837   2.224  11.310  0.0071  0.4418  0.1572
13584TIP3    H162243   5.855   2.264  11.395  0.6834  1.6421 -0.5241
13584TIP3    H262244   5.917   2.176  11.288 -1.0663 -2.0886  1.3299
13585TIP3   OH262245   2.727   5.065   0.996  0.3065 -0.6279  0.2517
13585TIP3    H162246   2.651   5.006   0.993 -0.8275  0.8129 -1.6298
13585TIP3    H262247   2.782   5.035   0.924 -1.2913  1.7247 -2.1576
13586TIP3   OH262248   5.374   5.521  14.059  0.0069  0.8255  0.1307
13586TIP3    H162249   5.438   5.572  14.108 -0.9472  0.0205  2.3270
13586TIP3    H262250   5.380   5.433  14.096 -2.5013  0.7753  0.6195
13587TIP3   OH262251   2.912   5.771  12.610 -0.3875  0.7153 -0.0060
13587TIP3    H162252   2.891   5.839  12.674  1.0146  0.4805  0.7177
13587TIP3    H262253   2.827   5.730  12.590 -1.2591  2.6042 -0.4201
13588TIP3   OH262254   5.534   0.073   2.859 -0.3747  0.0960 -0.2857
13588TIP3    H162255   5.556   0.042   2.771  0.6368  0.4281 -0.1556
13588TIP3    H262256   5.582   0.015   2.918  0.6454  1.1706 -0.0138
13589TIP3   OH262257   3.834   6.070   5.067  0.5042 -0.5541 -0.4323
13589TIP3    H162258   3.826   6.016   5.146  0.0581 -0.0086 -0.0987
13589TIP3    H262259   3.834   6.160   5.099 -0.6450 -0.2936 -1.1247
13590TIP3   OH262260   6.669   2.343  13.362 -0.1390 -0.0035 -0.2804
13590TIP3    H162261   6.605   2.386  13.420 -0.9647 -1.7272  0.1520
13590TIP3    H262262   6.615   2.293  13.300  0.7758 -1.0523 -0.2514
13591TIP3   OH262263   2.165   3.617   0.019 -0.5091 -0.4850 -0.1114
13591TIP3    H162264   2.247   3.609  -0.030 -0.2367 -1.1074  0.4332
13591TIP3    H262265   2.188   3.672   0.094 -0.3948 -1.2924  0.4527
13592TIP3   OH262266   0.352   2.288   2.534 -0.5993 -0.5944 -0.0418
13592TIP3    H162267   0.260   2.271   2.513 -0.7499  1.9364 -1.8771
13592TIP3    H262268   0.394   2.202   2.531 -2.5122 -1.5480 -1.3641
13593TIP3   OH262269   3.988   4.334   5.623  0.3659  0.0630  0.4607
13593TIP3    H162270   3.918   4.347   5.558  0.6936  1.3718  0.3247
13593TIP3    H262271   4.069   4.337   5.571  0.6392  1.2709  0.9065
13594TIP3   OH262272   4.284   1.285   3.234  0.0040  0.1103 -0.0755
13594TIP3    H162273   4.215   1.314   3.294 -0.5034  0.1124 -0.6514
13594TIP3    H262274   4.364   1.324   3.270 -0.3000  0.1610  0.5635
13595TIP3   OH262275   4.020   1.182  16.488  0.3664 -0.2853  0.2385
13595TIP3    H162276   4.099   1.224  16.521  0.0877 -0.4536  1.1504
13595TIP3    H262277   3.990   1.239  16.417  0.0945  0.9931  1.3242
13596TIP3   OH262278   5.230   1.027   2.944  0.2084  0.0253 -0.0874
13596TIP3    H162279   5.138   1.016   2.967 -0.1300 -0.2795 -1.4641
13596TIP3    H262280   5.270   1.069   3.020 -1.0894  0.2411  0.4901
13597TIP3   OH262281   6.018   6.406  12.741  0.1010 -0.4248 -0.0322
13597TIP3    H162282   5.930   6.406  12.780 -0.8740 -1.4263 -2.0965
13597TIP3    H262283   6.061   6.330  12.779 -0.6756 -1.1333 -0.5442
13598TIP3   OH262284   5.776   6.629   1.766  0.2245 -0.1211 -0.5297
13598TIP3    H162285   5.821   6.698   1.815  2.2810 -2.1525  0.6865
13598TIP3    H262286   5.705   6.602   1.824  1.2941 -1.0132  0.4310
13599TIP3   OH262287   3.609   5.922  15.470  0.0508 -0.0346 -0.0438
13599TIP3    H162288   3.634   5.836  15.436 -1.1917 -0.4336  0.0110
13599TIP3    H262289   3.516   5.914  15.490 -0.7683  2.1131 -2.4862
13600TIP3   OH262290   6.123   1.750   1.005 -0.2891  0.0198 -0.7360
13600TIP3    H162291   6.179   1.705   0.942  2.3111 -0.3537  1.5995
13600TIP3    H262292   6.109   1.686   1.075  0.4476  1.6026  0.9619
13601TIP3   OH262293   6.078   6.740  15.508  1.1920 -0.4851  0.4558
13601TIP3    H162294   6.032   6.657  15.494  0.4485  0.0111 -0.1190
13601TIP3    H262295   6.170   6.714  15.520  0.7593 -1.5013  1.8065
13602TIP3   OH262296   4.983   3.124   1.797  0.1521 -0.6683  0.0238
13602TIP3    H162297   5.054   3.061   1.788  1.0869 -0.0402  2.1940
13602TIP3    H262298   5.026   3.209   1.802 -0.6922 -0.2931  1.6100
13603TIP3   OH262299   2.065   5.042   6.234  0.5213  0.4774  0.6213
13603TIP3    H162300   2.019   5.065   6.315  0.5888 -1.0048  1.1104
13603TIP3    H262301   1.997   5.017   6.173  0.5888 -2.4621  1.5838
13604TIP3   OH262302   2.400   3.945  12.510 -0.5123  0.6804 -0.4187
13604TIP3    H162303   2.465   3.992  12.562 -1.2761  2.3277 -0.8648
13604TIP3    H262304   2.446   3.917  12.431 -0.3539  1.9651 -0.7997
13605TIP3   OH262305   5.529   1.914   4.872  0.3200 -0.2545 -0.5017
13605TIP3    H162306   5.455   1.875   4.919  0.8636  0.5179  1.0334
13605TIP3    H262307   5.498   2.000   4.844 -0.0052 -0.7129 -1.6266
13606TIP3   OH262308   1.326   0.162  15.681 -0.1563 -0.0209 -0.1556
13606TIP3    H162309   1.296   0.085  15.633  1.5697 -0.3523 -0.7681
13606TIP3    H262310   1.255   0.226  15.671 -0.9981 -1.0326 -0.8451
13607TIP3   OH262311   4.754   2.305  16.756  0.2548 -0.6730  0.2087
13607TIP3    H162312   4.813   2.291  16.682  1.0066  0.3986  0.5894
13607TIP3    H262313   4.681   2.246  16.739 -0.7487  1.2189 -2.6202
13608TIP3   OH262314   0.278   3.072  12.955 -0.3065 -0.0741 -0.3587
13608TIP3    H162315   0.228   2.990  12.955 -0.0196 -0.2605 -1.4290
13608TIP3    H262316   0.213   3.140  12.972 -0.6655 -0.4621 -0.1741
13609TIP3   OH262317   2.151   3.440   4.473  0.4570  0.6041 -0.3601
13609TIP3    H162318   2.068   3.465   4.431 -0.4708  0.4044  1.2815
13609TIP3    H262319   2.201   3.522   4.478 -0.3483  1.0805  0.1530
13610TIP3   OH262320   6.723   3.140   4.695  0.1409 -0.4672  0.0587
13610TIP3    H162321   6.698   3.058   4.653 -0.9493 -0.2790  0.3001
13610TIP3    H262322   6.741   3.115   4.786  1.0250 -0.6310 -0.1553
13611TIP3   OH262323   4.661   2.192   0.489 -0.5613 -0.5075  0.2969
13611TIP3    H162324   4.660   2.132   0.414 -0.6161 -0.2245  0.0706
13611TIP3    H262325   4.614   2.269   0.458  0.3135  0.0295  0.2744
13612TIP3   OH262326   4.730   5.491  11.820 -0.4242  0.1195  0.2742
13612TIP3    H162327   4.805   5.469  11.763  0.0014  2.3812 -0.1124
13612TIP3    H262328   4.692   5.569  11.781 -2.3712 -0.3489  1.1003
13613TIP3   OH262329   6.219   5.885   3.548 -0.0198  0.2724  1.0382
13613TIP3    H162330   6.303   5.856   3.584  0.9429  0.3033 -0.9998
13613TIP3    H262331   6.228   5.980   3.540  0.1374  0.1839 -0.0081
13614TIP3   OH262332   4.989   4.423   2.366 -0.5262  0.3311  0.3330
13614TIP3    H162333   5.022   4.483   2.299  0.1091 -1.1215 -0.7096
13614TIP3    H262334   5.000   4.336   2.328  1.7272 -0.7429  3.1065
13615TIP3   OH262335   3.044   4.877   3.567  0.3167 -0.1322 -0.3103
13615TIP3    H162336   3.097   4.919   3.499 -0.6496  1.0789 -0.3483
13615TIP3    H262337   2.963   4.928   3.570  0.8035  0.6895  2.6155
13616TIP3   OH262338   5.963   1.143   0.721  0.7610 -0.0523  0.3496
13616TIP3    H162339   5.961   1.059   0.675 -1.0349 -0.0226  0.3122
13616TIP3    H262340   5.936   1.122   0.810  0.4333  0.4462  0.3738
13617TIP3   OH262341   5.506   6.630   3.214 -0.3580 -0.0721  0.7338
13617TIP3    H162342   5.599   6.652   3.216 -0.5422  1.4601 -2.0840
13617TIP3    H262343   5.467   6.681   3.285  0.9682 -1.3254  2.4541
13618TIP3   OH262344   1.002   0.604  14.213 -0.0213 -0.0304  0.2745
13618TIP3    H162345   0.963   0.657  14.144 -0.2349 -2.1345 -1.3095
13618TIP3    H262346   1.087   0.577  14.178 -0.4724 -1.7832  0.4684
13619TIP3   OH262347   6.846   4.372  13.942 -0.0132 -0.3285  0.0841
13619TIP3    H162348   6.763   4.351  13.898  1.3746 -1.2687 -2.2332
13619TIP3    H262349   6.900   4.294  13.931  2.1265  1.1914 -0.8253
13620TIP3   OH262350   3.474   0.359   0.893  0.4717  0.2872 -0.7420
13620TIP3    H162351   3.479   0.429   0.959  2.3046 -0.3120 -0.1794
13620TIP3    H262352   3.432   0.286   0.939  1.3454  0.0179 -0.3531
13621TIP3   OH262353   3.282   2.522  11.430 -0.4360 -0.3895  0.2726
13621TIP3    H162354   3.333   2.587  11.381 -0.1032 -1.9423 -1.5385
13621TIP3    H262355   3.194   2.559  11.435 -0.6181 -0.3772 -1.9943
13622TIP3   OH262356   4.620   3.004  12.248 -0.0570 -0.3892  0.3811
13622TIP3    H162357   4.675   2.951  12.190 -0.0054 -0.2278  0.2800
13622TIP3    H262358   4.589   2.943  12.315  1.1396 -0.2597  1.0829
13623TIP3   OH262359   4.473   3.656  15.614 -0.1220  0.1081  0.0964
13623TIP3    H162360   4.396   3.705  15.643  0.9774  1.4750  0.7975
13623TIP3    H262361   4.491   3.690  15.526  1.4101  1.9908  1.0798
13624TIP3   OH262362   2.358   5.566  10.711 -0.0807 -0.2783 -0.0722
13624TIP3    H162363   2.406   5.485  10.723 -0.4650 -0.3276  1.3779
13624TIP3    H262364   2.424   5.635  10.721 -0.2048 -0.3554  1.5550
13625TIP3   OH262365   1.755   6.433  12.602 -0.1162 -0.5379 -0.4594
13625TIP3    H162366   1.692   6.501  12.625 -0.5082 -0.8070 -0.7322
13625TIP3    H262367   1.726   6.356  12.652  0.3004 -0.5204 -0.1829
13626TIP3   OH262368   4.542   0.348   1.153  0.0073 -0.6635 -0.7170
13626TIP3    H162369   4.585   0.323   1.072 -0.4099 -0.8501 -0.8856
13626TIP3    H262370   4.537   0.444   1.150 -4.1082 -0.6992 -3.1403
13627TIP3   OH262371   2.992   2.855  12.393 -0.1074  0.5070  0.2977
13627TIP3    H162372   3.074   2.806  12.391 -0.5143 -0.2179  0.9406
13627TIP3    H262373   2.954   2.836  12.479 -0.5663  1.4723  0.3179
13628TIP3   OH262374   4.489   2.843  16.284 -0.0474 -0.1268  0.0593
13628TIP3    H162375   4.403   2.883  16.274  0.2949  0.8763  0.9038
13628TIP3    H262376   4.549   2.918  16.291  0.9861 -0.7970 -1.1628
13629TIP3   OH262377   5.266   6.175  13.728  0.1817  0.0401  0.3961
13629TIP3    H162378   5.185   6.221  13.706 -0.5290 -1.7422 -1.0213
13629TIP3    H262379   5.280   6.194  13.821 -2.0501  0.1362  0.7695
13630TIP3   OH262380   3.973   5.945   1.263 -0.0405 -0.2726  0.5323
13630TIP3    H162381   3.939   5.863   1.298  0.5355 -1.0119 -0.5676
13630TIP3    H262382   3.898   5.985   1.218 -0.1266 -0.6113  0.3697
13631TIP3   OH262383   1.638   3.484  11.474  0.6066  0.2469 -0.1606
13631TIP3    H162384   1.691   3.564  11.477  1.7342 -0.4551 -0.6989
13631TIP3    H262385   1.614   3.467  11.565  0.3509  1.1931 -0.0445
13632TIP3   OH262386   6.765   0.363   1.182 -0.1167  0.3272  0.1603
13632TIP3    H162387   6.763   0.296   1.113  0.8573 -0.9325  1.2793
13632TIP3    H262388   6.679   0.358   1.223 -0.1419 -0.0878  0.0672
13633TIP3   OH262389   4.009   2.646   4.173 -0.0618 -0.3821  0.0621
13633TIP3    H162390   3.944   2.596   4.221 -0.2298  0.8866  1.2309
13633TIP3    H262391   3.960   2.688   4.102 -0.7543  1.2964  1.4786
13634TIP3   OH262392   2.073   6.604   4.500 -0.0588 -0.3997 -0.1655
13634TIP3    H162393   2.070   6.523   4.551 -0.5576 -0.5887 -0.4939
13634TIP3    H262394   2.167   6.620   4.487  0.0994 -0.0664  1.2380
13635TIP3   OH262395   2.569   1.980   5.965 -0.1778  0.2281  0.4823
13635TIP3    H162396   2.535   2.007   6.051  0.7449  1.1796  0.5694
13635TIP3    H262397   2.557   2.056   5.909 -2.2362 -0.8878 -0.7274
13636TIP3   OH262398   5.553   5.628  10.854  0.5655 -0.3140 -0.4093
13636TIP3    H162399   5.460   5.620  10.873  0.1262  0.1307 -2.2238
13636TIP3    H262400   5.563   5.715  10.816  2.0313  0.3166  1.2799
13637TIP3   OH262401   0.079   6.263  14.547 -0.0316  0.0608 -0.2349
13637TIP3    H162402   0.125   6.201  14.604  0.0345 -1.2116 -1.6003
13637TIP3    H262403   0.030   6.207  14.486 -0.0773  1.3479 -1.4299
13638TIP3   OH262404   0.112   0.097  13.387  0.0959  0.6795 -0.1615
13638TIP3    H162405   0.171   0.022  13.395 -1.6366 -0.7399  0.0841
13638TIP3    H262406   0.154   0.166  13.438  1.1958 -0.5008  0.6118
13639TIP3   OH262407   5.416   3.559   3.617  0.2274 -0.5254  0.2214
13639TIP3    H162408   5.385   3.581   3.529 -1.7466 -1.1099  0.7022
13639TIP3    H262409   5.367   3.618   3.674 -1.6326 -2.8511  1.1772
13640TIP3   OH262410   3.520   5.168   1.188  0.6203  0.5676  0.5753
13640TIP3    H162411   3.454   5.215   1.239 -0.9133  0.0461 -0.8190
13640TIP3    H262412   3.499   5.188   1.097  1.7404 -0.4632  0.0578
13641TIP3   OH262413   4.953   4.136  11.063  0.3800 -0.1816 -0.4801
13641TIP3    H162414   5.038   4.162  11.026  1.0792 -0.3562  0.9485
13641TIP3    H262415   4.925   4.062  11.009  1.0074  0.0336 -1.1228
13642TIP3   OH262416   3.043   2.488  14.276 -0.2644 -0.2814 -0.1115
13642TIP3    H162417   2.984   2.562  14.287 -1.6769 -1.2754 -0.5659
13642TIP3    H262418   2.992   2.413  14.307 -0.5132 -1.6575 -3.4262
13643TIP3   OH262419   1.182   2.208  11.404  0.4214  0.0764  0.1450
13643TIP3    H162420   1.212   2.132  11.355 -2.1893 -0.5627 -0.6393
13643TIP3    H262421   1.117   2.250  11.347  0.4274  1.8309  1.3302
13644TIP3   OH262422   5.465   3.708   2.531 -0.5957 -0.2972 -0.0549
13644TIP3    H162423   5.391   3.699   2.591 -0.4432  0.2382  0.2217
13644TIP3    H262424   5.541   3.681   2.581 -0.3975  0.6335  0.1766
13645TIP3   OH262425   5.093   3.280  11.201 -0.0319 -0.3452 -0.6204
13645TIP3    H162426   5.053   3.197  11.225 -1.1791  0.7285  1.5004
13645TIP3    H262427   5.187   3.267  11.213 -0.0159 -1.7797 -1.9638
13646TIP3   OH262428   6.495   6.727  14.067 -0.4392  0.3374  0.2349
13646TIP3    H162429   6.582   6.715  14.105 -0.2912 -3.5507 -0.8989
13646TIP3    H262430   6.434   6.697  14.135 -0.6804  0.0904 -0.0889
13647TIP3   OH262431   3.684   4.821   3.210  0.5101 -0.0850  0.4322
13647TIP3    H162432   3.688   4.728   3.190 -2.0394 -0.2531  0.3376
13647TIP3    H262433   3.660   4.825   3.303  0.4340  0.4791  0.3919
13648TIP3   OH262434   1.119   1.233   4.974 -0.2983 -0.2895  0.4163
13648TIP3    H162435   1.175   1.199   4.904  0.1539 -1.7970  1.4471
13648TIP3    H262436   1.045   1.173   4.977 -0.6878  0.1996  0.7471
13649TIP3   OH262437   3.574   4.317   2.668  0.3659 -0.8141  0.0026
13649TIP3    H162438   3.628   4.358   2.600  0.9086 -0.6555  0.5241
13649TIP3    H262439   3.637   4.282   2.731  0.0039 -3.5885 -1.0297
13650TIP3   OH262440   2.633   0.279  15.593 -0.2575  0.5561 -0.4396
13650TIP3    H162441   2.584   0.346  15.546  0.2269  1.0153 -0.2939
13650TIP3    H262442   2.566   0.219  15.626 -0.6930  0.9623 -0.5736
13651TIP3   OH262443   5.007   3.113  15.187 -1.4791  0.0905  0.1215
13651TIP3    H162444   5.018   3.105  15.092  1.1418  1.1374  0.2458
13651TIP3    H262445   5.068   3.049  15.224 -1.4132  0.6957  1.0875
13652TIP3   OH262446   3.825   3.843   5.571  0.4041  0.0637 -0.0192
13652TIP3    H162447   3.898   3.858   5.631 -0.0296 -0.1152  0.5691
13652TIP3    H262448   3.804   3.930   5.537  0.1351  0.2959  0.7177
13653TIP3   OH262449   0.457   3.116  14.862 -0.1253 -0.2865 -0.5127
13653TIP3    H162450   0.506   3.121  14.780  0.0087  2.0890 -0.3562
13653TIP3    H262451   0.523   3.091  14.927 -0.0100 -1.1159 -0.9331
13654TIP3   OH262452   3.295   0.497   0.015  0.8114  0.1437  0.2254
13654TIP3    H162453   3.217   0.479   0.068  0.5259  0.9689  0.1122
13654TIP3    H262454   3.354   0.543   0.074  0.2404  1.6214 -0.3036
13655TIP3   OH262455   3.301   0.121   2.570 -0.4912  0.1417  0.0808
13655TIP3    H162456   3.209   0.097   2.579 -0.4476  0.2873  1.0070
13655TIP3    H262457   3.349   0.039   2.580 -0.5474 -0.1033 -1.4071
13656TIP3   OH262458   3.883   5.936   0.333  0.2340  0.0247  0.6745
13656TIP3    H162459   3.894   5.937   0.238  0.2047  0.3679  0.6733
13656TIP3    H262460   3.798   5.976   0.347  0.3269  0.1564  0.8583
13657TIP3   OH262461   0.757   3.824  16.721  0.0135 -0.0389  0.2463
13657TIP3    H162462   0.835   3.771  16.737 -0.3300 -0.4296  0.6321
13657TIP3    H262463   0.755   3.834  16.625 -0.3267 -1.3543  0.1024
13658TIP3   OH262464   5.987   2.791   0.558  0.5061 -0.2011  0.0906
13658TIP3    H162465   6.011   2.773   0.648  0.5591 -2.2466 -0.2928
13658TIP3    H262466   5.895   2.769   0.552  0.8030 -1.3237 -0.6404
13659TIP3   OH262467   0.981   4.747   2.837  0.3503 -0.2915  0.3621
13659TIP3    H162468   1.056   4.771   2.891 -0.4825  0.5494  1.1982
13659TIP3    H262469   0.932   4.685   2.890  0.6846 -1.1964 -0.3705
13660TIP3   OH262470   3.252   2.857   3.589 -0.9738  0.2118  0.0047
13660TIP3    H162471   3.249   2.877   3.682 -1.1173  0.6261 -0.0885
13660TIP3    H262472   3.291   2.770   3.584 -2.8385 -0.7012  0.5935
13661TIP3   OH262473   0.210   4.654  11.789 -0.3867  0.3996  0.5865
13661TIP3    H162474   0.119   4.672  11.813  0.0930  2.1618  1.2971
13661TIP3    H262475   0.253   4.740  11.794  0.7144  0.1709 -2.5809
13662TIP3   OH262476   4.692   5.885  15.641 -0.0275 -0.2764 -0.0810
13662TIP3    H162477   4.709   5.902  15.548 -0.0456  0.7915  0.1080
13662TIP3    H262478   4.688   5.971  15.682 -0.8185 -0.6942  0.7776
13663TIP3   OH262479   5.770   0.493   1.114  0.1883  0.5312  0.2101
13663TIP3    H162480   5.722   0.419   1.151  0.3886 -0.6167 -1.6623
13663TIP3    H262481   5.852   0.496   1.163 -0.1063 -0.0653  0.7514
13664TIP3   OH262482   0.285   0.611   4.937 -0.2303  1.0647  0.3875
13664TIP3    H162483   0.293   0.524   4.898 -0.2265  0.4747  1.6275
13664TIP3    H262484   0.192   0.621   4.955 -0.0170  0.3944  2.1426
13665TIP3   OH262485   2.565   1.311  14.399  0.2932 -0.8094 -0.1339
13665TIP3    H162486   2.507   1.275  14.332 -1.7779 -1.5931  1.9581
13665TIP3    H262487   2.646   1.260  14.389 -0.4562 -1.8714 -1.1065
13666TIP3   OH262488   6.119   1.577   1.587  0.2358 -0.1533 -0.5578
13666TIP3    H162489   6.103   1.560   1.680 -0.4284 -0.9652 -0.8018
13666TIP3    H262490   6.118   1.491   1.546  1.6150  0.0968 -1.1786
13667TIP3   OH262491   6.349   2.427  10.814 -0.1968  0.1785  0.7643
13667TIP3    H162492   6.319   2.473  10.736  0.9181  1.8326  1.2395
13667TIP3    H262493   6.321   2.337  10.802 -3.0667  1.0645  0.0614
13668TIP3   OH262494   3.251   5.155  12.374  0.6342  0.1759 -0.3219
13668TIP3    H162495   3.272   5.188  12.461 -1.9704  0.1287  0.4206
13668TIP3    H262496   3.165   5.115  12.384  0.5802 -0.4773 -2.7747
13669TIP3   OH262497   1.958   0.811   5.621  0.8634  0.2344 -0.5638
13669TIP3    H162498   1.984   0.882   5.681  0.3958  0.4660 -0.6317
13669TIP3    H262499   1.887   0.766   5.666 -0.7866  1.5612 -1.7170
13670TIP3   OH262500   0.150   1.050  13.016  0.0705 -0.4466  0.0496
13670TIP3    H162501   0.169   1.057  13.110  0.8770  2.6344 -0.2585
13670TIP3    H262502   0.054   1.049  13.011 -0.0044  0.6672  0.8704
13671TIP3   OH262503   4.075   4.841  12.410  0.1594  0.2081  0.1916
13671TIP3    H162504   3.990   4.881  12.393  0.1933  0.4172  0.4977
13671TIP3    H262505   4.134   4.880  12.345  0.0937  0.3174  0.1982
13672TIP3   OH262506   1.810   4.449  16.183  0.3627 -0.4443  0.4594
13672TIP3    H162507   1.874   4.519  16.171  0.2768 -0.5051 -0.4386
13672TIP3    H262508   1.862   4.369  16.184  0.3568 -0.4517  0.2829
13673TIP3   OH262509   1.151   6.202   2.806  1.1026  0.5464  0.4260
13673TIP3    H162510   1.122   6.271   2.865  1.1195  1.8388 -0.9968
13673TIP3    H262511   1.247   6.200   2.816  1.1060  0.7714  0.4394
13674TIP3   OH262512   0.222   3.373   4.723 -0.4408 -0.2164 -0.1457
13674TIP3    H162513   0.178   3.377   4.808  0.4861  2.9411  0.3323
13674TIP3    H262514   0.315   3.364   4.745 -0.1510  1.0704 -0.7568
13675TIP3   OH262515   3.302   4.372  12.845  0.1467  0.2565  0.1365
13675TIP3    H162516   3.353   4.304  12.889 -0.7339 -1.3096 -1.1587
13675TIP3    H262517   3.354   4.452  12.856  2.3151 -1.0430 -0.1610
13676TIP3   OH262518   0.682   0.065  14.945  0.2574 -0.3681  0.2764
13676TIP3    H162519   0.651   0.123  15.014 -1.7170 -0.6786 -0.2951
13676TIP3    H262520   0.678   0.118  14.865 -0.1256 -0.8436 -0.0209
13677TIP3   OH262521   5.076   5.008  11.136  0.8823 -0.1188  0.0486
13677TIP3    H162522   5.091   5.096  11.101  0.5375 -0.4862 -1.0648
13677TIP3    H262523   5.131   4.951  11.081  0.6497 -0.6638  0.3818
13678TIP3   OH262524   3.882   3.695  12.737  0.0278 -0.3003  0.3974
13678TIP3    H162525   3.822   3.688  12.662  0.2199  0.0092  0.2169
13678TIP3    H262526   3.956   3.746  12.705  0.1844 -0.2979  0.7558
13679TIP3   OH262527   2.641   3.802   0.295  0.0633  0.6196 -0.9299
13679TIP3    H162528   2.663   3.847   0.377  1.3063 -0.4667 -0.6281
13679TIP3    H262529   2.725   3.774   0.260 -0.5522  0.0417 -1.9806
13680TIP3   OH262530   3.522   5.723  12.168 -0.1488 -0.3404  0.2764
13680TIP3    H162531   3.480   5.734  12.083  0.2351  1.5898  0.2920
13680TIP3    H262532   3.496   5.636  12.197 -1.9743 -0.2281 -0.8868
13681TIP3   OH262533   5.046   2.854  11.997 -0.0726 -0.1121  0.0373
13681TIP3    H162534   5.055   2.802  12.076  0.2520 -1.4926 -0.8679
13681TIP3    H262535   5.100   2.932  12.012 -1.1463  0.3582  1.7034
13682TIP3   OH262536   1.073   5.404   2.129  0.1638 -0.1944  0.8556
13682TIP3    H162537   1.140   5.359   2.180  1.6220  0.2164 -0.6371
13682TIP3    H262538   1.073   5.493   2.162  1.3294  0.1530 -0.0290
13683TIP3   OH262539   4.208   1.064  12.853  0.1310  0.1881 -0.5261
13683TIP3    H162540   4.130   1.114  12.876  0.3891  0.0907  0.6245
13683TIP3    H262541   4.264   1.070  12.930  1.1604  0.0385 -1.2320
13684TIP3   OH262542   3.762   6.303  13.425 -0.4333  0.4001  0.3472
13684TIP3    H162543   3.847   6.345  13.412  0.2519 -0.6726  1.2279
13684TIP3    H262544   3.699   6.375  13.415  0.5931  1.3270  0.2351
13685TIP3   OH262545   2.020   6.566   5.218  0.4971  0.6068  0.6734
13685TIP3    H162546   1.927   6.561   5.241  0.2957 -0.1697 -0.2275
13685TIP3    H262547   2.049   6.475   5.216  1.0824  0.7956  0.2166
13686TIP3   OH262548   6.627   1.459  13.994 -0.3074 -0.2386  0.9035
13686TIP3    H162549   6.531   1.460  13.994 -0.3112 -0.3455  0.3210
13686TIP3    H262550   6.651   1.417  13.911  0.2533  1.5457  0.1044
13687TIP3   OH262551   2.510   2.496  10.746  0.5259  0.2653 -0.5953
13687TIP3    H162552   2.488   2.589  10.755 -0.1848 -0.0438  1.6305
13687TIP3    H262553   2.427   2.454  10.726  0.8685  0.1012 -1.7085
13688TIP3   OH262554   5.433   5.595  16.195 -0.6204 -0.2936  0.2506
13688TIP3    H162555   5.527   5.586  16.185 -0.6794  1.5637 -3.9179
13688TIP3    H262556   5.399   5.508  16.172  0.0374  0.0165 -2.1624
13689TIP3   OH262557   0.806   0.535  16.617  0.1039  0.1300  0.4541
13689TIP3    H162558   0.853   0.597  16.561 -1.1259 -0.6330 -1.5409
13689TIP3    H262559   0.851   0.540  16.701  1.1618  2.3807 -0.1627
13690TIP3   OH262560   3.292   5.836   6.013  0.3680  0.3877 -0.3135
13690TIP3    H162561   3.380   5.847   5.976  0.5761 -2.0142 -0.7233
13690TIP3    H262562   3.234   5.831   5.936 -0.0526  1.2461 -0.0682
13691TIP3   OH262563   0.478   0.819   4.694 -0.1364  0.0367  0.4762
13691TIP3    H162564   0.473   0.879   4.619 -0.1728 -1.4279 -0.7463
13691TIP3    H262565   0.388   0.795   4.712 -0.0493 -0.4166  0.3119
13692TIP3   OH262566   2.288   0.369   1.019  0.0494 -0.4397  0.4850
13692TIP3    H162567   2.238   0.301   0.973  1.2268 -1.3599  0.5248
13692TIP3    H262568   2.252   0.370   1.107  1.4840 -2.6322  1.1672
13693TIP3   OH262569   3.285   3.642  16.642 -0.0802  0.0838 -0.1176
13693TIP3    H162570   3.304   3.552  16.617  1.0388 -0.2287  1.6556
13693TIP3    H262571   3.284   3.640  16.738  1.6594  2.2468  0.0191
13694TIP3   OH262572   0.449   6.765   5.242  0.0224 -0.3400 -0.4116
13694TIP3    H162573   0.369   6.721   5.213  0.8604 -1.3628 -1.2988
13694TIP3    H262574   0.433   6.788   5.333 -1.0296 -1.1481 -0.3747
13695TIP3   OH262575   4.402   0.421  10.946  0.1448  0.2069  0.4264
13695TIP3    H162576   4.362   0.335  10.940  2.0376 -0.6872 -0.0525
13695TIP3    H262577   4.470   0.412  11.013  1.3100  0.8969 -0.6025
13696TIP3   OH262578   5.392   2.947  10.156  0.2726 -0.4642 -0.0523
13696TIP3    H162579   5.371   2.892  10.232 -2.0653 -2.0283 -1.6875
13696TIP3    H262580   5.417   2.885  10.088  0.8710  0.7867 -1.0056
13697TIP3   OH262581   1.920   6.693  13.624  0.1816 -0.2550 -0.6908
13697TIP3    H162582   1.998   6.679  13.679  0.5148  0.6283 -0.9147
13697TIP3    H262583   1.847   6.668  13.679  0.6367 -1.4103 -0.5822
13698TIP3   OH262584   0.142   4.316  12.151  0.2273  0.6855 -0.0243
13698TIP3    H162585   0.209   4.366  12.104 -0.8216  0.9688 -1.2715
13698TIP3    H262586   0.186   4.234  12.175  1.0088  0.8371 -0.8791
13699TIP3   OH262587   3.677   2.027   3.817 -0.3169 -0.1854 -0.0804
13699TIP3    H162588   3.744   1.959   3.822  1.3036  1.4032  2.3038
13699TIP3    H262589   3.707   2.085   3.747 -1.0288 -1.1744 -1.2483
13700TIP3   OH262590   0.889   2.207   0.485 -0.3236 -0.1023 -0.3819
13700TIP3    H162591   0.975   2.184   0.449 -1.0395 -1.7975 -1.0961
13700TIP3    H262592   0.902   2.204   0.580  0.9309  1.8921 -0.4277
13701TIP3   OH262593   5.746   4.706   3.757 -0.2803 -0.2909 -0.7520
13701TIP3    H162594   5.663   4.660   3.773  1.3186 -3.2907 -0.4827
13701TIP3    H262595   5.737   4.743   3.669 -2.4736  0.9272 -0.0947
13702TIP3   OH262596   4.465   4.066   6.446 -0.2623 -0.3591 -0.1754
13702TIP3    H162597   4.523   4.135   6.482  1.3129 -1.8324  0.2591
13702TIP3    H262598   4.382   4.111   6.430  1.3117  2.1901 -2.0190
13703TIP3   OH262599   2.977   2.123   2.688 -0.3136 -0.0413 -0.1386
13703TIP3    H162600   3.007   2.205   2.728 -0.3167 -0.3366  0.4796
13703TIP3    H262601   3.036   2.109   2.614 -0.2051  0.4274 -0.1418
13704TIP3   OH262602   3.159   2.922   1.175 -0.3693  0.2880  0.2294
13704TIP3    H162603   3.068   2.947   1.193 -0.2836  0.0985  0.9779
13704TIP3    H262604   3.190   2.987   1.113 -0.6359  1.1058  0.9331
13705TIP3   OH262605   5.007   2.261  15.484  0.5901  0.6006 -0.3130
13705TIP3    H162606   4.930   2.312  15.509 -0.1727 -0.4123 -0.5164
13705TIP3    H262607   5.022   2.285  15.392 -0.5852 -0.4863 -0.8252
13706TIP3   OH262608   6.277   2.205  13.165  0.1453 -0.2552 -0.2456
13706TIP3    H162609   6.240   2.123  13.132  0.5835 -1.4233  1.9182
13706TIP3    H262610   6.201   2.259  13.187 -0.2277 -1.0718  0.5430
13707TIP3   OH262611   5.078   3.851  13.528 -0.4465  0.0424 -0.0703
13707TIP3    H162612   5.116   3.924  13.479  2.7161 -2.1073 -1.1799
13707TIP3    H262613   5.021   3.806  13.466 -0.9506  0.5239  0.0408
13708TIP3   OH262614   4.179   0.654   4.624  0.1244  0.1872  0.2961
13708TIP3    H162615   4.216   0.568   4.643 -1.8367 -0.5548  1.0209
13708TIP3    H262616   4.145   0.646   4.535 -0.5670  0.0054  0.5706
13709TIP3   OH262617   1.444   2.526  15.383  0.0299  0.6598  0.5703
13709TIP3    H162618   1.506   2.529  15.310 -0.5658  1.0118  0.0628
13709TIP3    H262619   1.405   2.614  15.384 -1.6561 -0.0294 -0.1989
13710TIP3   OH262620   0.144   6.090  10.855 -0.0687  0.3178  0.0387
13710TIP3    H162621   0.108   6.106  10.942  0.1735 -0.5575  0.3161
13710TIP3    H262622   0.078   6.036  10.811  0.1926  0.0209  0.0001
13711TIP3   OH262623   0.451   4.827   3.480  0.1233 -0.0623 -0.4835
13711TIP3    H162624   0.379   4.872   3.436 -1.0938  0.7033  2.0877
13711TIP3    H262625   0.417   4.739   3.498  0.7069 -0.4560 -1.2406
13712TIP3   OH262626   4.185   1.505  13.327 -0.2110  0.3661 -0.0260
13712TIP3    H162627   4.143   1.540  13.248  0.9595  0.0648 -0.8095
13712TIP3    H262628   4.191   1.411  13.311  0.8939  0.4234 -0.0092
13713TIP3   OH262629   3.214   0.492  11.680  0.1635  0.2565 -0.0888
13713TIP3    H162630   3.220   0.587  11.689  0.4580  0.2869 -0.5563
13713TIP3    H262631   3.128   0.477  11.641  0.4332  0.3863 -0.7348
13714TIP3   OH262632   1.888   4.444   2.420  0.1494 -0.2027  0.3404
13714TIP3    H162633   1.839   4.484   2.491 -2.6054  0.1950 -1.6057
13714TIP3    H262634   1.852   4.356   2.412  0.4977 -0.2842 -0.4929
13715TIP3   OH262635   0.072   4.389  15.306  0.3181  0.1119 -0.1526
13715TIP3    H162636  -0.002   4.408  15.365 -0.1024  0.1284 -0.6727
13715TIP3    H262637   0.039   4.412  15.219  0.9010  0.0004 -0.4072
13716TIP3   OH262638   4.598   6.212   5.726  0.4189  0.2508 -0.1567
13716TIP3    H162639   4.585   6.117   5.730 -1.9427  0.5233  0.0024
13716TIP3    H262640   4.645   6.233   5.807 -0.2620 -0.6228  0.4843
13717TIP3   OH262641   1.055   2.498   4.936 -0.4733  0.1887 -0.3315
13717TIP3    H162642   0.979   2.455   4.974 -0.6395 -1.1703 -2.0295
13717TIP3    H262643   1.128   2.472   4.992 -0.8835 -0.7508 -0.2050
13718TIP3   OH262644   4.283   4.778   4.971  0.9051 -0.0463  0.0143
13718TIP3    H162645   4.353   4.802   5.032  0.0183 -0.1538  1.1025
13718TIP3    H262646   4.257   4.862   4.932  2.0886 -0.0922 -0.9157
13719TIP3   OH262647   0.291   1.861  16.146 -0.3614  0.1032  0.1028
13719TIP3    H162648   0.315   1.826  16.232 -1.6380 -0.3361  0.2878
13719TIP3    H262649   0.365   1.838  16.090 -0.0794 -0.7130  0.7905
13720TIP3   OH262650   6.420   5.997   1.749  0.4674 -0.3187 -0.2310
13720TIP3    H162651   6.406   6.072   1.807 -1.4725 -0.9893  0.2391
13720TIP3    H262652   6.375   6.020   1.668  0.4375 -0.6926 -0.3247
13721TIP3   OH262653   1.839   2.434  14.231 -0.9377  0.0244  0.3097
13721TIP3    H162654   1.798   2.508  14.187  0.4885 -0.6417 -2.4193
13721TIP3    H262655   1.770   2.368  14.237 -1.4036  0.4542 -0.2189
13722TIP3   OH262656   3.403   2.875  13.530 -0.6256  0.1345 -0.3969
13722TIP3    H162657   3.338   2.813  13.497 -0.3317 -0.7802  0.6782
13722TIP3    H262658   3.410   2.854  13.623 -0.7291  1.9931  0.0590
13723TIP3   OH262659   5.684   4.404   2.472 -0.2657  0.1825 -0.6451
13723TIP3    H162660   5.729   4.366   2.547  0.8942  1.0851 -0.8644
13723TIP3    H262661   5.650   4.487   2.503  0.9100  0.9401 -1.3020
13724TIP3   OH262662   5.352   2.398   4.764 -0.0380 -0.3970  0.5526
13724TIP3    H162663   5.419   2.331   4.774 -0.3759 -0.9650 -0.7722
13724TIP3    H262664   5.277   2.352   4.726 -0.6242  0.5309  0.5425
13725TIP3   OH262665   6.272   5.495   2.588 -0.1273 -0.1442 -0.0940
13725TIP3    H162666   6.256   5.496   2.682  0.8220 -0.6516  0.0864
13725TIP3    H262667   6.240   5.409   2.559  1.2165 -0.7371  0.0948
13726TIP3   OH262668   6.039   0.089  14.787  0.3591 -0.1184  0.6366
13726TIP3    H162669   6.033   0.184  14.773  1.0389 -0.2926 -1.0954
13726TIP3    H262670   5.995   0.074  14.871 -2.0003  1.4189 -0.2238
13727TIP3   OH262671   1.183   5.064   1.637 -0.6896 -0.7114  0.4715
13727TIP3    H162672   1.160   4.995   1.574 -0.7717 -1.1386  0.9638
13727TIP3    H262673   1.273   5.043   1.663 -0.0779  0.3710 -0.6825
13728TIP3   OH262674   1.368   4.714   6.338  0.1737  0.3999  0.3447
13728TIP3    H162675   1.386   4.779   6.407 -0.2286 -0.9815  1.8199
13728TIP3    H262676   1.278   4.686   6.355 -0.5390  1.1850 -1.7901
13729TIP3   OH262677   5.584   4.853  15.760  0.3387 -0.3372  0.2488
13729TIP3    H162678   5.518   4.919  15.784  0.7776 -0.1349  0.9509
13729TIP3    H262679   5.653   4.865  15.825  0.7712 -0.9853 -0.0873
13730TIP3   OH262680   1.397   5.739   5.119 -0.0797 -0.0984  0.5528
13730TIP3    H162681   1.305   5.761   5.110 -0.5980 -1.6990  1.5252
13730TIP3    H262682   1.427   5.721   5.030 -0.9882 -0.6375  0.3492
13731TIP3   OH262683   5.465   2.140  15.742  0.0274  0.0509  0.1172
13731TIP3    H162684   5.509   2.138  15.657  3.0011 -1.0111  1.5222
13731TIP3    H262685   5.391   2.080  15.732  0.1896  0.1068 -1.7663
13732TIP3   OH262686   4.886   4.108  14.203 -0.4649  0.3773  0.5621
13732TIP3    H162687   4.920   4.022  14.181  1.0617  1.0944 -0.0643
13732TIP3    H262688   4.933   4.134  14.282  1.1161  1.6982 -0.7369
13733TIP3   OH262689   2.542   2.638  16.496 -0.1275  0.6855 -0.1451
13733TIP3    H162690   2.527   2.603  16.583 -0.5875 -0.2641 -0.5928
13733TIP3    H262691   2.455   2.646  16.457  0.1876 -1.9059 -1.6277
13734TIP3   OH262692   1.872   3.402   2.088 -0.1259  0.0617 -0.1420
13734TIP3    H162693   1.939   3.461   2.121 -2.1763  1.0817  2.5753
13734TIP3    H262694   1.894   3.390   1.995  2.0919  2.6673 -0.0768
13735TIP3   OH262695   1.997   1.894  11.531 -0.0194  0.4236  0.0314
13735TIP3    H162696   1.945   1.969  11.560  0.4651  1.2301 -1.1242
13735TIP3    H262697   2.070   1.932  11.483  1.9098 -0.6528  1.9163
13736TIP3   OH262698   2.231   2.900  10.865 -0.6331  0.0136  0.1596
13736TIP3    H162699   2.282   2.944  10.934 -0.6130  0.2045  0.0231
13736TIP3    H262700   2.200   2.971  10.809 -1.6534 -0.0361  0.6364
13737TIP3   OH262701   0.150   2.015   2.792  0.0567  0.1195  0.4443
13737TIP3    H162702   0.105   1.971   2.865 -0.2065  1.1455  0.9235
13737TIP3    H262703   0.100   2.096   2.779  0.6823  0.4015 -0.2373
13738TIP3   OH262704   1.505   4.382   4.355 -0.3576 -0.5151  0.5561
13738TIP3    H162705   1.414   4.394   4.328 -0.4570 -3.5614 -0.8415
13738TIP3    H262706   1.511   4.425   4.440 -3.3008 -0.8320  1.0046
13739TIP3   OH262707   5.744   4.122   5.030 -0.8112 -0.2617 -0.1462
13739TIP3    H162708   5.695   4.121   5.113 -1.1880  0.2431 -0.3553
13739TIP3    H262709   5.696   4.184   4.975  0.2060  0.4406 -0.2705
13740TIP3   OH262710   2.281   6.044   0.838  0.1588  0.1202  0.9072
13740TIP3    H162711   2.300   6.136   0.854  0.0321 -0.0386  2.0432
13740TIP3    H262712   2.323   5.997   0.911 -0.7601 -0.6164  0.9840
13741TIP3   OH262713   3.252   0.670   4.415  0.7074  0.3451 -0.6528
13741TIP3    H162714   3.310   0.639   4.345  2.8862 -0.1075  1.2620
13741TIP3    H262715   3.311   0.708   4.480 -1.4058  2.9367 -0.0692
13742TIP3   OH262716   3.848   6.803  16.059  0.1548 -0.4813  0.1402
13742TIP3    H162717   3.851   6.713  16.026 -0.1373 -0.1982 -0.6900
13742TIP3    H262718   3.772   6.805  16.117 -0.7889 -0.3868 -1.0633
13743TIP3   OH262719   4.065   2.908  11.576  0.3416  0.0581 -0.2276
13743TIP3    H162720   4.024   2.823  11.588 -0.2542  0.2239 -1.0078
13743TIP3    H262721   4.040   2.935  11.488 -0.2859  1.4585  0.3475
13744TIP3   OH262722   3.853   3.222  16.939  0.1055  0.6694 -0.2187
13744TIP3    H162723   3.888   3.233  16.850 -0.6081  1.5246 -0.4012
13744TIP3    H262724   3.886   3.136  16.967 -0.0286  0.1896 -1.4780
13745TIP3   OH262725   1.148   5.997  11.206  0.3355 -0.1918  0.2570
13745TIP3    H162726   1.137   6.030  11.117  0.5121  0.1853  0.3731
13745TIP3    H262727   1.060   5.996  11.243  0.3443  0.2403  0.2870
13746TIP3   OH262728   0.607   0.344  12.289 -0.2094 -0.6122 -0.0393
13746TIP3    H162729   0.591   0.350  12.384 -0.1356 -1.8542  0.0747
13746TIP3    H262730   0.632   0.432  12.263 -0.6561 -0.1569  1.0263
13747TIP3   OH262731   2.752   6.011   4.721 -0.0960 -0.1565 -0.1976
13747TIP3    H162732   2.702   6.071   4.776  0.9363  0.6938 -0.1576
13747TIP3    H262733   2.776   6.063   4.644 -0.1882 -0.8702 -0.7202
13748TIP3   OH262734   2.132   4.143  12.718 -0.3382 -0.2342  0.4230
13748TIP3    H162735   2.114   4.116  12.808  0.8462 -0.4525  0.6138
13748TIP3    H262736   2.096   4.073  12.664  1.6244 -1.6863  0.8637
13749TIP3   OH262737   5.043   3.818  15.355  0.2948 -0.3837 -0.2729
13749TIP3    H162738   4.974   3.755  15.374 -0.6495  0.2470 -1.4559
13749TIP3    H262739   5.115   3.766  15.321 -0.0043 -0.9539 -0.0337
13750TIP3   OH262740   5.329   2.191  13.010  0.1291  0.1628 -0.0605
13750TIP3    H162741   5.325   2.256  12.939 -0.8762  1.3849  1.0558
13750TIP3    H262742   5.381   2.235  13.078 -0.8151 -0.0827  0.8241
13751TIP3   OH262743   1.431   2.284  16.547 -0.2348 -0.0803  0.4307
13751TIP3    H162744   1.343   2.255  16.523 -0.0906 -1.1324  1.1169
13751TIP3    H262745   1.417   2.364  16.598 -0.9150 -1.0801  1.8763
13752TIP3   OH262746   0.160   2.625  13.334  0.2331 -0.0197  0.5923
13752TIP3    H162747   0.234   2.662  13.285 -0.0769  0.1436  0.2437
13752TIP3    H262748   0.111   2.576  13.269  0.0534 -0.1564  0.8321
13753TIP3   OH262749   4.794   2.136  10.713  0.1125  0.0582  0.1507
13753TIP3    H162750   4.863   2.075  10.740 -0.4313  0.5919  3.1108
13753TIP3    H262751   4.839   2.201  10.658  1.3260 -1.2385 -0.4315
13754TIP3   OH262752   0.781   4.311  12.707 -0.6920  0.1302  0.1407
13754TIP3    H162753   0.828   4.282  12.786  1.3179  0.0720 -1.0166
13754TIP3    H262754   0.740   4.393  12.733  0.8775  0.7061  0.9573
13755TIP3   OH262755   5.112   6.024   4.504  0.6848 -0.7274  0.1197
13755TIP3    H162756   5.187   5.965   4.491  1.3243 -0.0887  0.8427
13755TIP3    H262757   5.112   6.043   4.597  1.2487  1.3993 -0.2791
13756TIP3   OH262758   1.180   3.950  15.285 -0.4899 -0.0444 -0.4397
13756TIP3    H162759   1.186   3.880  15.351 -0.7684 -0.7855 -1.1904
13756TIP3    H262760   1.270   3.980  15.275 -0.2040 -0.9786 -0.8200
13757TIP3   OH262761   0.505   2.070  13.313  0.0061  0.1002  0.0420
13757TIP3    H162762   0.501   2.042  13.405 -1.3780 -0.2221 -0.0978
13757TIP3    H262763   0.425   2.035  13.274  0.8928 -0.3325 -1.4646
13758TIP3   OH262764   4.623   1.700   2.624  0.2756  0.1666  0.2072
13758TIP3    H162765   4.567   1.651   2.564  0.0025 -1.2232  1.5427
13758TIP3    H262766   4.589   1.789   2.622 -1.3749 -0.4384  0.2499
13759TIP3   OH262767   2.929   4.832  15.832  0.0332  0.2319 -0.2470
13759TIP3    H162768   2.929   4.910  15.887 -0.7072  0.4650 -0.5724
13759TIP3    H262769   3.021   4.806  15.828  0.1579  0.4725  0.7208
13760TIP3   OH262770   6.561   2.717   2.473  0.1642 -0.1665  0.7696
13760TIP3    H162771   6.580   2.640   2.419 -1.2731 -1.3345  1.8513
13760TIP3    H262772   6.523   2.780   2.413 -2.6532 -1.9184  0.5200
13761TIP3   OH262773   5.403   2.628  15.840 -0.0384  0.0727  0.1859
13761TIP3    H162774   5.393   2.652  15.932  0.9496 -1.2730  0.6777
13761TIP3    H262775   5.357   2.544  15.833  0.1578  0.0199 -0.4770
13762TIP3   OH262776   6.506   4.335   3.332 -0.3403  0.2259  0.0953
13762TIP3    H162777   6.562   4.332   3.255 -0.0111 -2.2000  0.3533
13762TIP3    H262778   6.565   4.314   3.405 -0.9891  0.7612  0.7945
13763TIP3   OH262779   0.114   6.108   5.111 -0.0071  0.0117 -0.3043
13763TIP3    H162780   0.055   6.060   5.052 -0.3170 -0.9135  0.7164
13763TIP3    H262781   0.056   6.146   5.177  0.2725  1.5582 -0.9131
13764TIP3   OH262782   3.195   5.201   5.510 -1.0018  0.2319 -0.4513
13764TIP3    H162783   3.135   5.275   5.508  0.1909  1.2793  0.8703
13764TIP3    H262784   3.276   5.234   5.470  0.3761  0.5035  2.3330
13765TIP3   OH262785   0.067   2.458   2.721  0.0621 -0.4257  0.2707
13765TIP3    H162786   0.012   2.532   2.696 -0.8021 -0.9473  0.5961
13765TIP3    H262787   0.064   2.399   2.645 -0.1554 -0.6417  0.4465
13766TIP3   OH262788   6.216   0.392   2.818  0.4622 -0.3354  0.1445
13766TIP3    H162789   6.257   0.461   2.870  0.5666 -0.1978 -0.1180
13766TIP3    H262790   6.122   0.410   2.824  0.4345 -0.6660  0.7675
13767TIP3   OH262791   2.908   5.745  11.316 -0.3120  0.0577 -0.0760
13767TIP3    H162792   2.843   5.804  11.278  2.0529  3.6229  0.9273
13767TIP3    H262793   2.898   5.756  11.411  0.6559 -0.6378  0.1201
13768TIP3   OH262794   5.335   0.058  16.207  0.1310  0.0608  0.0646
13768TIP3    H162795   5.247   0.077  16.173 -0.0672 -1.6097 -0.4513
13768TIP3    H262796   5.377   0.009  16.136  0.5441 -1.4467  1.3132
13769TIP3   OH262797   3.679   6.512   1.008 -0.3832 -0.1821  0.3254
13769TIP3    H162798   3.645   6.427   1.034 -1.1972 -0.2072 -0.7722
13769TIP3    H262799   3.603   6.560   0.974  0.3137  0.4609 -0.3876
13770TIP3   OH262800   2.215   3.378   0.247 -0.0805  0.3847  1.0086
13770TIP3    H162801   2.128   3.415   0.255 -0.8977 -1.0545 -0.4641
13770TIP3    H262802   2.252   3.419   0.169  0.0393  0.0475  0.8838
13771TIP3   OH262803   3.640   5.158  14.486 -0.6826 -0.2874 -0.3539
13771TIP3    H162804   3.735   5.148  14.482 -0.6405 -0.2614  0.4466
13771TIP3    H262805   3.609   5.076  14.526 -0.9071  0.0680  0.2225
13772TIP3   OH262806   4.478   4.371  12.295  0.7384  0.1935 -0.6705
13772TIP3    H162807   4.532   4.415  12.228 -0.3890  0.9574 -1.1200
13772TIP3    H262808   4.402   4.428  12.304 -0.2418 -1.1255 -0.4297
13773TIP3   OH262809   1.722   1.814  13.781  0.6372  0.5862 -0.5741
13773TIP3    H162810   1.787   1.761  13.825 -1.0319 -1.6526 -0.6076
13773TIP3    H262811   1.674   1.752  13.725 -3.3330  1.3865  1.5429
13774TIP3   OH262812   4.819   3.033  14.233  0.2099  0.1802 -0.1970
13774TIP3    H162813   4.854   3.064  14.150  0.7471  0.8363  0.2697
13774TIP3    H262814   4.743   3.089  14.249  0.0444 -0.0150 -0.2916
13775TIP3   OH262815   3.989   0.464   0.152 -0.8894 -0.0406  0.0205
13775TIP3    H162816   3.912   0.517   0.132  0.5346  2.0705 -0.1896
13775TIP3    H262817   3.985   0.391   0.090 -1.8880  0.8922 -1.0596
13776TIP3   OH262818   0.564   5.028  14.577 -0.2162  0.1326  0.3325
13776TIP3    H162819   0.486   5.020  14.522  0.1368  2.7752 -0.7228
13776TIP3    H262820   0.530   5.058  14.661 -0.3792  1.2584 -0.1183
13777TIP3   OH262821   5.710   3.769   4.322 -0.3408 -1.0846 -0.5509
13777TIP3    H162822   5.643   3.780   4.389  1.0017 -2.7341  1.1771
13777TIP3    H262823   5.767   3.845   4.332 -1.9700  0.4492 -2.1838
13778TIP3   OH262824   6.436   2.468  16.016 -0.3005 -0.1492  0.3058
13778TIP3    H162825   6.405   2.529  15.950  1.1842 -1.0451 -1.2851
13778TIP3    H262826   6.531   2.479  16.017 -0.2257 -0.6792  1.7835
13779TIP3   OH262827   2.469   0.689  12.619  0.7937  0.2355 -0.1527
13779TIP3    H162828   2.511   0.611  12.584  0.3116 -0.1928  0.2094
13779TIP3    H262829   2.455   0.745  12.542  2.6928  0.7245 -0.1726
13780TIP3   OH262830   1.655   4.439  13.581  0.4760 -0.6505 -0.4643
13780TIP3    H162831   1.566   4.405  13.574 -0.4890  1.3058  1.2295
13780TIP3    H262832   1.669   4.488  13.499  0.2616 -1.4867 -1.0090
13781TIP3   OH262833   3.204   1.368   4.231  0.4834 -0.4387 -0.3689
13781TIP3    H162834   3.129   1.311   4.214  0.4220 -0.3708 -0.3230
13781TIP3    H262835   3.233   1.344   4.319  0.1458 -0.0473 -0.1462
13782TIP3   OH262836   1.938   2.383  15.624  0.4102  0.2223 -0.4010
13782TIP3    H162837   1.937   2.304  15.678  2.1598  0.0767 -0.5187
13782TIP3    H262838   1.869   2.368  15.558 -0.0203 -0.7072  0.2384
13783TIP3   OH262839   2.639   1.716  15.027 -0.6394 -0.2706 -0.3894
13783TIP3    H162840   2.596   1.683  15.106 -0.8998 -0.4403 -0.5983
13783TIP3    H262841   2.665   1.637  14.980  0.8110 -0.1696  0.2210
13784TIP3   OH262842   3.840   2.292   1.273 -0.8722 -0.2516  0.0248
13784TIP3    H162843   3.847   2.210   1.322  0.5453  1.5581  3.2050
13784TIP3    H262844   3.753   2.325   1.295 -0.0491  0.8041  1.9339
13785TIP3   OH262845   0.402   2.229   1.507 -0.3175  0.2179 -0.2020
13785TIP3    H162846   0.475   2.291   1.509 -0.2845  0.1690  0.1190
13785TIP3    H262847   0.324   2.285   1.500 -0.5137  0.4916  3.0033
13786TIP3   OH262848   1.948   2.221   1.173  0.4981  0.6311  0.2291
13786TIP3    H162849   1.934   2.260   1.259  0.3607  2.7999 -0.7090
13786TIP3    H262850   2.009   2.149   1.189 -0.8040 -0.0997  2.3499
13787TIP3   OH262851   6.589   4.097   2.382 -0.1997 -0.6681 -0.1831
13787TIP3    H162852   6.659   4.053   2.430 -0.0146 -1.3011 -1.0065
13787TIP3    H262853   6.548   4.028   2.330  0.8252  0.2504 -2.3663
13788TIP3   OH262854   3.902   5.703   2.553 -0.3175 -0.2637 -0.1266
13788TIP3    H162855   3.808   5.715   2.541 -0.1687  0.5771 -0.5502
13788TIP3    H262856   3.913   5.694   2.648 -0.7908 -0.0560 -0.0458
13789TIP3   OH262857   2.250   6.001  12.560  0.0159  0.1747 -0.0113
13789TIP3    H162858   2.190   6.028  12.490 -0.4741 -0.6574  0.0712
13789TIP3    H262859   2.323   6.063  12.555 -0.0685  0.1990 -1.1792
13790TIP3   OH262860   4.805   4.657  16.587 -0.2628  0.2145 -0.3699
13790TIP3    H162861   4.728   4.699  16.550  0.3392  0.7782 -0.9950
13790TIP3    H262862   4.784   4.646  16.680 -0.9173  0.7527 -0.4523
13791TIP3   OH262863   5.857   3.017  16.148 -0.3615 -0.0239 -0.4658
13791TIP3    H162864   5.823   2.937  16.188  0.4255  0.1190  0.5342
13791TIP3    H262865   5.791   3.083  16.166 -0.2960 -0.1027  0.0575
13792TIP3   OH262866   1.960   3.140   1.822  0.0539 -0.0110 -0.0889
13792TIP3    H162867   1.974   3.230   1.853 -1.4212  0.1869  0.0708
13792TIP3    H262868   1.985   3.085   1.896 -2.0191  0.4119  0.9953
13793TIP3   OH262869   4.891   2.237   6.311 -0.0244  0.3809  0.2456
13793TIP3    H162870   4.916   2.255   6.401 -2.0867 -0.2347  0.9965
13793TIP3    H262871   4.797   2.257   6.307 -0.0508  0.0842 -1.6756
13794TIP3   OH262872   3.586   4.076   1.549 -0.0159 -0.2568  0.2409
13794TIP3    H162873   3.547   4.138   1.488  1.9267  2.7674  1.8405
13794TIP3    H262874   3.575   4.116   1.635  3.8757 -0.5863  1.0602
13795TIP3   OH262875   1.056   2.506  14.688 -0.1582 -0.4929 -0.7222
13795TIP3    H162876   0.987   2.500  14.754  1.0364  0.0655  0.6516
13795TIP3    H262877   1.089   2.416  14.680 -1.1356 -0.7932 -1.5149
13796TIP3   OH262878   2.926   3.106  11.322  0.0720 -0.5360  0.0287
13796TIP3    H162879   2.855   3.152  11.366  0.1460  1.4415 -1.7557
13796TIP3    H262880   2.883   3.039  11.269 -0.2530 -0.9280  0.7863
13797TIP3   OH262881   4.630   1.133  11.065 -0.3326 -0.1889 -0.0586
13797TIP3    H162882   4.628   1.221  11.102 -1.7620 -0.0230 -0.4961
13797TIP3    H262883   4.588   1.141  10.979 -0.2248 -1.2441 -0.2324
13798TIP3   OH262884   6.708   4.035  13.938  0.2054  0.4992 -0.4170
13798TIP3    H162885   6.793   4.071  13.913  0.7496 -1.0502 -0.9172
13798TIP3    H262886   6.721   4.000  14.026  0.8757 -1.9883 -1.4159
13799TIP3   OH262887   5.386   0.089  15.691 -0.0953  0.1767  0.4939
13799TIP3    H162888   5.481   0.092  15.705 -0.0110 -0.7946  0.2276
13799TIP3    H262889   5.359   0.006  15.730 -0.6833 -0.0165 -0.2890
13800TIP3   OH262890   4.610   6.007   6.497  0.0860  0.6136 -0.5314
13800TIP3    H162891   4.633   5.914   6.494  2.5374  1.1632 -0.9703
13800TIP3    H262892   4.563   6.017   6.580  1.9466 -0.6295  0.7724
13801TIP3   OH262893   3.710   5.819  16.508 -0.0493  0.6782 -0.0619
13801TIP3    H162894   3.708   5.747  16.572 -0.4368  0.1001 -0.7131
13801TIP3    H262895   3.627   5.865  16.521 -1.5754 -1.2613 -2.1625
13802TIP3   OH262896   5.664   3.632  12.443  0.4052 -0.5602  0.8410
13802TIP3    H162897   5.602   3.567  12.479  0.6402  0.0430  2.4148
13802TIP3    H262898   5.686   3.687  12.518  1.9213 -0.0116  0.0153
13803TIP3   OH262899   6.499   2.597  12.447 -0.5490 -0.0166 -0.4515
13803TIP3    H162900   6.454   2.625  12.527 -0.7964 -1.8123  0.0755
13803TIP3    H262901   6.560   2.529  12.476  2.8068  2.4801 -1.1006
13804TIP3   OH262902   2.270   0.757   0.494  0.1297  0.0788 -0.1139
13804TIP3    H162903   2.335   0.740   0.426 -1.5300 -1.7293 -1.3489
13804TIP3    H262904   2.233   0.671   0.514 -1.6110  0.9823  0.8088
13805TIP3   OH262905   1.722   0.982  13.284 -0.2052 -0.0729 -0.2486
13805TIP3    H162906   1.744   0.964  13.376  0.0123  1.4270  0.0258
13805TIP3    H262907   1.755   0.906  13.236  0.6919 -0.3679  0.7917
13806TIP3   OH262908   2.963   0.228   5.226  0.3161 -0.1790 -0.1264
13806TIP3    H162909   3.000   0.157   5.278 -0.3811 -1.0745 -0.8248
13806TIP3    H262910   2.881   0.192   5.190 -0.5451  1.2905  0.2839
13807TIP3   OH262911   6.366   3.012  10.660 -0.3738 -0.0644  0.1817
13807TIP3    H162912   6.416   3.061  10.594 -0.1123 -0.2171  0.2622
13807TIP3    H262913   6.303   2.961  10.610  0.3423 -0.7774 -0.0163
13808TIP3   OH262914   1.048   0.148  11.816  0.2249 -0.2786  0.1384
13808TIP3    H162915   0.975   0.100  11.855  0.3041 -1.6824 -1.3145
13808TIP3    H262916   1.086   0.086  11.753  2.5007  0.4961  0.6546
13809TIP3   OH262917   0.913   1.491  11.504 -0.3834  0.7081  0.7096
13809TIP3    H162918   0.826   1.458  11.527 -0.3796 -0.9318 -1.2362
13809TIP3    H262919   0.896   1.567  11.448 -0.7009 -0.4816 -0.9075
13810TIP3   OH262920   4.314   0.549   5.199 -0.1644 -0.6424 -0.4207
13810TIP3    H162921   4.341   0.459   5.181 -0.1000 -0.7974  0.4404
13810TIP3    H262922   4.249   0.568   5.131  0.7240 -0.8993 -1.3747
13811TIP3   OH262923   0.891   5.167   0.055  0.7049  0.0355 -0.0955
13811TIP3    H162924   0.833   5.167  -0.021 -0.0739  0.5452  0.4801
13811TIP3    H262925   0.906   5.259   0.074 -3.0626  0.2007  3.2467
13812TIP3   OH262926   4.063   0.142   3.480 -0.0675 -0.2056 -0.3584
13812TIP3    H162927   4.084   0.094   3.399 -3.6084 -0.9125 -1.0395
13812TIP3    H262928   4.133   0.207   3.488  2.3289 -2.3510 -2.0215
13813TIP3   OH262929   0.193   0.156  11.238  0.4815 -0.0012 -0.0199
13813TIP3    H162930   0.266   0.103  11.206 -0.0326  0.3849 -2.0274
13813TIP3    H262931   0.126   0.146  11.171  0.8317  4.1390 -1.2840
13814TIP3   OH262932   3.948   6.254  14.472 -0.0054  0.7603 -0.1301
13814TIP3    H162933   4.019   6.194  14.449 -1.3952 -1.1410  0.2044
13814TIP3    H262934   3.933   6.306  14.393 -0.3217 -1.0495 -1.3264
13815TIP3   OH262935   2.864   5.173  14.595  0.1812  0.3092  0.1957
13815TIP3    H162936   2.916   5.149  14.519 -0.1806  1.0511 -0.2966
13815TIP3    H262937   2.798   5.233  14.561 -0.6321 -0.1462  0.9070
13816TIP3   OH262938   4.884   3.666  13.360  0.4534  0.2414  0.5099
13816TIP3    H162939   4.804   3.711  13.388  0.1013 -0.1558  0.1558
13816TIP3    H262940   4.878   3.663  13.265  0.6258 -0.2615  0.5128
13817TIP3   OH262941   0.273   2.231   2.173  0.1424 -0.3215 -0.6234
13817TIP3    H162942   0.342   2.255   2.235 -1.2098 -0.5824  1.0617
13817TIP3    H262943   0.230   2.315   2.152 -0.2555 -0.3974 -0.1259
13818TIP3   OH262944   6.234   1.141   5.608 -0.0225  0.0249 -0.0367
13818TIP3    H162945   6.179   1.100   5.541  1.2859 -0.2635 -0.9770
13818TIP3    H262946   6.180   1.211   5.645 -1.9338 -1.8601  0.8941
13819TIP3   OH262947   2.837   6.546   4.181 -0.2140 -0.4295 -0.1319
13819TIP3    H162948   2.798   6.634   4.178 -0.8513 -0.6624  0.7887
13819TIP3    H262949   2.762   6.487   4.176 -0.1395 -0.8917  2.5707
13820TIP3   OH262950   4.454   1.227   2.623 -0.1946  0.3975  0.5621
13820TIP3    H162951   4.518   1.182   2.568  0.9702  4.3958 -1.7902
13820TIP3    H262952   4.506   1.290   2.673 -2.0192  2.1254  0.4083
13821TIP3   OH262953   4.092   2.196   4.787  0.2046 -0.2879  0.6219
13821TIP3    H162954   4.180   2.184   4.824  0.0838  0.1102  1.0570
13821TIP3    H262955   4.053   2.109   4.787  0.6272 -0.4823  0.3510
13822TIP3   OH262956   3.065   0.281   0.341  0.1435  0.6495  0.3408
13822TIP3    H162957   3.092   0.193   0.313 -1.4345  0.2662 -0.0763
13822TIP3    H262958   3.036   0.270   0.432  1.3018  1.0539  0.7797
13823TIP3   OH262959   3.496   4.251  13.010 -0.7089 -0.0866  0.1149
13823TIP3    H162960   3.577   4.229  12.965 -0.9577 -1.3060  0.2189
13823TIP3    H262961   3.513   4.336  13.051  0.0734  0.2629 -0.8992
13824TIP3   OH262962   0.148   0.218  14.562  0.3746 -0.1010 -0.4333
13824TIP3    H162963   0.112   0.297  14.521  0.6975 -0.0362 -0.5935
13824TIP3    H262964   0.142   0.151  14.495 -0.4633 -0.3757 -0.1005
13825TIP3   OH262965   6.716   2.571   4.667  0.5373  0.2819 -0.3425
13825TIP3    H162966   6.761   2.626   4.731  1.0223  0.2353 -0.6445
13825TIP3    H262967   6.726   2.482   4.700  3.0833 -0.0542 -1.8133
13826TIP3   OH262968   0.433   3.489  12.882  0.1684  0.0481  0.0298
13826TIP3    H162969   0.524   3.475  12.854  0.6894  1.3152  0.9345
13826TIP3    H262970   0.402   3.560  12.827 -0.1544 -0.1490 -0.0400
13827TIP3   OH262971   5.174   5.340  14.796  0.1201 -1.0391  0.2683
13827TIP3    H162972   5.228   5.419  14.801  1.3248 -1.7202 -1.1075
13827TIP3    H262973   5.230   5.270  14.830 -0.4723 -1.5198  0.2817
13828TIP3   OH262974   3.736   6.646  13.551  0.3075 -0.6185 -0.0159
13828TIP3    H162975   3.824   6.672  13.579  1.4745 -1.8787 -2.2075
13828TIP3    H262976   3.717   6.568  13.603  1.0662 -1.0930 -0.4312
13829TIP3   OH262977   3.721   4.420   6.151  0.2042 -0.0622  0.7195
13829TIP3    H162978   3.757   4.359   6.086  1.6784 -0.0032  1.4464
13829TIP3    H262979   3.626   4.411   6.142  0.3774 -1.9068  0.2904
13830TIP3   OH262980   3.721   2.145   0.147  0.2399  0.2190  0.8319
13830TIP3    H162981   3.734   2.240   0.147  0.5859  0.2732 -2.1619
13830TIP3    H262982   3.634   2.133   0.185  0.0106  1.7669  0.8744
13831TIP3   OH262983   3.517   3.125  12.652  0.2179 -0.3320 -0.5605
13831TIP3    H162984   3.571   3.146  12.729 -0.3955 -0.9626  0.0591
13831TIP3    H262985   3.509   3.207  12.605  1.9888 -0.2706 -0.8486
13832TIP3   OH262986   5.384   1.660  11.701  0.1310 -0.7115  0.0481
13832TIP3    H162987   5.474   1.674  11.732 -0.3087  1.0485  0.6308
13832TIP3    H262988   5.330   1.714  11.758 -1.0802  0.0020 -1.6820
13833TIP3   OH262989   4.942   4.445   3.881 -0.0598 -0.3133 -0.1723
13833TIP3    H162990   4.854   4.411   3.897 -0.7719  1.6659  0.3436
13833TIP3    H262991   4.928   4.536   3.854  1.8632  0.3912  1.0063
13834TIP3   OH262992   0.343   3.574  15.634  0.4534  0.4039 -0.3869
13834TIP3    H162993   0.283   3.522  15.687  0.6792  0.7905  0.2661
13834TIP3    H262994   0.381   3.636  15.696  0.1745  1.3618 -1.1601
13835TIP3   OH262995   3.647   4.980   2.830 -0.0171  0.1697  0.4380
13835TIP3    H162996   3.602   4.989   2.914  0.2585  0.8871  0.5116
13835TIP3    H262997   3.669   5.069   2.804  0.0757 -0.0610 -0.3054
13836TIP3   OH262998   2.011   0.494  11.445 -0.2834 -0.0044 -0.1976
13836TIP3    H162999   2.031   0.510  11.353  0.0695  0.8813  0.0265
13836TIP3    H263000   2.020   0.579  11.487 -0.2232 -0.4390  0.6983
13837TIP3   OH263001   3.967   3.585   2.474 -0.0804 -0.1933 -0.2752
13837TIP3    H163002   4.057   3.584   2.440 -0.6761  0.2838 -1.9591
13837TIP3    H263003   3.953   3.675   2.503 -0.3003 -0.0336 -0.8611
13838TIP3   OH263004   4.361   2.103   4.292  0.4106  0.4372  0.1794
13838TIP3    H163005   4.270   2.125   4.273  0.4922 -0.8959 -2.0677
13838TIP3    H263006   4.363   2.090   4.387 -1.5801  1.0710  0.3576
13839TIP3   OH263007   0.023   0.009   4.182 -0.4432 -0.1433 -0.1899
13839TIP3    H163008   0.021   0.092   4.230 -0.4460 -0.0461 -0.3542
13839TIP3    H263009   0.116  -0.013   4.177 -0.4358 -0.1068 -0.2169
13840TIP3   OH263010   3.160   2.087  13.920  0.5901 -0.5302 -0.4235
13840TIP3    H163011   3.112   2.131  13.850 -0.7911 -0.8808  0.2742
13840TIP3    H263012   3.252   2.096  13.895  0.1250 -2.3966 -3.3417
13841TIP3   OH263013   5.655   5.579   4.464 -0.0704  0.5441 -0.6512
13841TIP3    H163014   5.570   5.545   4.439 -0.0176 -1.0193  1.0488
13841TIP3    H263015   5.642   5.616   4.551  0.8594  0.8440 -0.6188
13842TIP3   OH263016   6.681   1.256  11.107 -0.2593  0.1979  0.0336
13842TIP3    H163017   6.762   1.305  11.103 -0.6386  0.7848 -0.9836
13842TIP3    H263018   6.672   1.217  11.020 -0.0377 -1.5867  0.7680
13843TIP3   OH263019   3.628   1.093  14.179 -0.7201  0.4166  0.4384
13843TIP3    H163020   3.723   1.089  14.167 -0.4540  0.2596  2.2439
13843TIP3    H263021   3.593   1.099  14.091  0.8241 -2.4113 -0.4911
13844TIP3   OH263022   5.361   6.438  14.107  0.7936 -0.1907 -0.1295
13844TIP3    H163023   5.371   6.356  14.058  1.1724 -0.3301  0.1786
13844TIP3    H263024   5.418   6.500  14.061  0.7685 -0.1872 -0.1565
13845TIP3   OH263025   1.103   2.457   5.237 -0.3401 -0.1981  0.0866
13845TIP3    H163026   1.128   2.527   5.298  0.0467  0.0218 -0.3170
13845TIP3    H263027   1.182   2.404   5.226 -0.6595 -0.7589  0.4622
13846TIP3   OH263028   5.695   3.909  16.969 -0.1131 -0.7015  0.8041
13846TIP3    H163029   5.637   3.883  17.041 -0.2384 -0.2089  0.8809
13846TIP3    H263030   5.774   3.942  17.012 -1.1498  1.9649  0.8143
13847TIP3   OH263031   4.653   3.754   2.698 -0.1248  0.2121 -0.3676
13847TIP3    H163032   4.558   3.763   2.694 -0.0474  1.0858 -0.4262
13847TIP3    H263033   4.687   3.834   2.658  0.6362 -0.0167 -0.2054
13848TIP3   OH263034   1.513   1.640   0.033  0.2410 -0.1472  0.1705
13848TIP3    H163035   1.440   1.698   0.010  0.8607  0.4598 -0.3326
13848TIP3    H263036   1.515   1.641   0.129  1.4055  2.2342  0.1969
13849TIP3   OH263037   1.958   4.397   0.591  0.1560 -0.2874  0.1003
13849TIP3    H163038   1.917   4.459   0.532 -1.1009 -1.6213 -0.4782
13849TIP3    H263039   2.030   4.359   0.540 -0.1214 -0.4974 -0.1413
13850TIP3   OH263040   2.199   0.712   5.969  0.6456 -0.7691  0.3782
13850TIP3    H163041   2.266   0.695   6.035  0.5758 -1.0866  0.3672
13850TIP3    H263042   2.248   0.730   5.889  0.7163 -1.0356  0.3622
13851TIP3   OH263043   3.002   1.373  14.784  0.5421 -0.0797 -0.5908
13851TIP3    H163044   3.096   1.380  14.768  0.4104  0.7860 -1.0115
13851TIP3    H263045   2.976   1.459  14.817  0.2908 -0.9671  1.7229
13852TIP3   OH263046   6.593   6.453   0.354  0.6930  0.3804  0.2994
13852TIP3    H163047   6.638   6.450   0.438 -1.7698 -0.6439  1.7006
13852TIP3    H263048   6.543   6.372   0.350 -0.2310  0.9666 -1.6026
13853TIP3   OH263049   5.705   2.366  12.532 -0.0035  0.6572 -0.0852
13853TIP3    H163050   5.696   2.385  12.439 -1.5844  1.6743  0.2569
13853TIP3    H263051   5.618   2.338  12.560  0.9251 -1.7551  0.6605
13854TIP3   OH263052   1.942   6.582  13.370  0.2302  0.1975  0.1413
13854TIP3    H163053   1.914   6.615  13.456  2.5208  0.5306  0.8321
13854TIP3    H263054   1.971   6.493  13.387  0.6794  0.2614 -0.2868
13855TIP3   OH263055   2.761   2.264  10.489  0.7204  0.3685  0.5078
13855TIP3    H163056   2.812   2.206  10.432 -1.3747 -1.6462  0.5532
13855TIP3    H263057   2.740   2.340  10.434 -0.3821 -1.0549 -1.1204
13856TIP3   OH263058   0.890   5.644  12.430  0.1650 -0.0314  0.0938
13856TIP3    H163059   0.808   5.621  12.474 -1.5775  1.1363 -2.2903
13856TIP3    H263060   0.956   5.588  12.470 -1.6239 -0.4458  2.6924
13857TIP3   OH263061   1.919   0.312  11.585  0.7269 -0.1825  0.0552
13857TIP3    H163062   1.951   0.382  11.528 -0.0163  0.9717  1.0033
13857TIP3    H263063   1.964   0.234  11.554  1.9739  0.7925 -0.7134
13858TIP3   OH263064   6.288   5.897   2.363  0.2224 -0.7427  0.0277
13858TIP3    H163065   6.379   5.918   2.344  0.2658 -1.0546 -0.1198
13858TIP3    H263066   6.287   5.802   2.371  0.5137 -0.5811  3.1340
13859TIP3   OH263067   6.640   4.775  11.219  0.0304 -0.3075 -0.3923
13859TIP3    H163068   6.652   4.863  11.255 -3.5282 -0.1632  0.8320
13859TIP3    H263069   6.646   4.717  11.295  0.6391 -0.9650 -0.9240
13860TIP3   OH263070   5.571   5.829  17.052 -0.2843 -0.3656  0.3273
13860TIP3    H163071   5.502   5.851  17.115 -0.2259  1.5133 -0.1963
13860TIP3    H263072   5.651   5.826  17.105 -0.1344  1.8260  0.3337
13861TIP3   OH263073   6.173   5.215  14.288  0.1947 -0.7130 -0.1052
13861TIP3    H163074   6.102   5.241  14.347  0.4568  2.2288 -0.9453
13861TIP3    H263075   6.253   5.230  14.338  0.4315  2.0530 -1.1621
13862TIP3   OH263076   3.078   3.600   0.749 -0.5014  0.6191 -0.4006
13862TIP3    H163077   3.115   3.657   0.816 -1.4541  0.5294  0.2311
13862TIP3    H263078   2.999   3.564   0.789 -0.2813 -0.6333 -1.0255
13863TIP3   OH263079   5.182   2.397  13.882 -0.2772 -0.2521  0.5723
13863TIP3    H163080   5.185   2.335  13.809  0.5567  0.2473  0.1768
13863TIP3    H263081   5.235   2.357  13.950  1.6293  0.7249 -0.2608
13864TIP3   OH263082   5.567   3.284  16.992  0.2983  0.5242  0.3608
13864TIP3    H163083   5.514   3.364  16.985 -2.2580 -1.0996 -0.3675
13864TIP3    H263084   5.557   3.255  17.083 -3.1589 -1.5909 -0.5122
13865TIP3   OH263085   6.565   5.560   6.268 -0.1648  0.0217 -0.2200
13865TIP3    H163086   6.503   5.617   6.222  0.7156  0.1801 -1.2625
13865TIP3    H263087   6.626   5.621   6.311 -0.9462 -0.1269  1.1523
13866TIP3   OH263088   3.944   1.846  17.137  0.3770  0.1458 -0.2033
13866TIP3    H163089   3.865   1.857  17.083  1.0188 -0.7891 -1.3718
13866TIP3    H263090   3.935   1.913  17.205 -1.2890  0.2436 -0.4631
13867TIP3   OH263091   1.219   2.547   5.516 -0.1564  0.6964 -0.0797
13867TIP3    H163092   1.306   2.587   5.518 -0.0248  0.4277 -0.3081
13867TIP3    H263093   1.232   2.464   5.470 -0.3253  0.1229  0.8875
13868TIP3   OH263094   3.178   1.981  16.016  0.1433  0.8079  0.5499
13868TIP3    H163095   3.176   2.061  16.069  0.8191  0.9905  0.3114
13868TIP3    H263096   3.130   1.916  16.068 -0.3031  1.3341  0.8010
13869TIP3   OH263097   0.003   4.193  13.331 -0.9979 -0.4944 -0.2336
13869TIP3    H163098  -0.072   4.251  13.347 -0.7995  0.0435 -1.1994
13869TIP3    H263099  -0.036   4.109  13.308 -1.3294 -0.1047 -1.1574
13870TIP3   OH263100   1.101   3.024  13.636 -0.0100  0.0575  0.4658
13870TIP3    H163101   1.094   3.110  13.677 -1.0867  0.9625 -1.4819
13870TIP3    H263102   1.170   3.034  13.570 -0.9724 -0.1920 -0.6047
13871TIP3   OH263103   3.388   1.392  10.373 -0.0018 -0.3151  0.2689
13871TIP3    H163104   3.401   1.487  10.370 -0.6982 -0.2388 -1.0939
13871TIP3    H263105   3.301   1.378  10.335  0.0601 -1.4928  0.5171
13872TIP3   OH263106   3.916   2.628  12.584 -0.0748 -0.3257 -0.4309
13872TIP3    H163107   3.933   2.628  12.679  0.1425 -2.4204 -0.4121
13872TIP3    H263108   3.981   2.688  12.548  0.4540 -0.2177  0.6603
13873TIP3   OH263109   0.450   2.822   2.584  0.0349  0.0039 -0.5419
13873TIP3    H163110   0.378   2.759   2.592  1.3985 -1.3574  1.7135
13873TIP3    H263111   0.449   2.847   2.491 -2.0086 -1.5490 -1.0056
13874TIP3   OH263112   4.234   3.769   2.102 -0.5872 -0.2831  0.2379
13874TIP3    H163113   4.235   3.807   2.014 -1.3264 -1.7868 -0.4548
13874TIP3    H263114   4.142   3.762   2.125 -0.4698 -1.4412  0.4228
13875TIP3   OH263115   2.578   5.359  14.880  0.0029  0.3479  0.3525
13875TIP3    H163116   2.556   5.374  14.972 -0.8525 -0.9305  0.3804
13875TIP3    H263117   2.494   5.363  14.834  0.4551  1.1990 -0.4135
13876TIP3   OH263118   6.396   4.405   0.704 -0.0525  0.4167 -0.2959
13876TIP3    H163119   6.413   4.478   0.644  1.0174  1.8121  1.6096
13876TIP3    H263120   6.405   4.443   0.791 -1.7595 -1.4996  0.8020
13877TIP3   OH263121   4.043   4.007  14.431 -0.5110  0.7384  0.1712
13877TIP3    H163122   4.051   4.023  14.337  0.3335  1.6199  0.3698
13877TIP3    H263123   3.977   4.070  14.460  0.3383  1.5371  0.4044
13878TIP3   OH263124   6.045   5.024  15.742 -0.0136  0.0542 -0.5929
13878TIP3    H163125   6.133   5.003  15.773 -0.9406 -3.6674 -0.0312
13878TIP3    H263126   6.046   5.004  15.649 -0.4449 -0.8836 -0.4111
13879TIP3   OH263127   0.556   1.385   3.906 -0.2055 -0.2354 -0.1516
13879TIP3    H163128   0.587   1.364   3.817  0.3912  3.6649 -1.0586
13879TIP3    H263129   0.465   1.411   3.894  0.4755  2.3958 -0.0984
13880TIP3   OH263130   2.981   5.637  16.267  0.2419  0.2867  0.1174
13880TIP3    H163131   2.962   5.652  16.360  1.8324 -0.7461  0.6581
13880TIP3    H263132   3.071   5.666  16.256 -0.1993  1.2068 -1.3425
13881TIP3   OH263133   2.994   6.238   0.907 -0.3894 -0.0782  0.1834
13881TIP3    H163134   2.981   6.158   0.857  3.0135 -2.0799  2.1134
13881TIP3    H263135   3.043   6.295   0.848 -2.3842  0.4643 -1.0256
13882TIP3   OH263136   0.608   2.151  15.274 -0.9056  0.0849  0.1622
13882TIP3    H163137   0.617   2.200  15.193 -0.0342  0.7406  0.6333
13882TIP3    H263138   0.575   2.065  15.247  0.3380 -0.0587 -1.0022
13883TIP3   OH263139   6.343   5.821  13.336 -0.2007  0.4058  0.0510
13883TIP3    H163140   6.408   5.767  13.380 -2.8224 -3.5645 -0.4259
13883TIP3    H263141   6.259   5.786  13.365 -2.1013  1.7431 -3.2786
13884TIP3   OH263142   3.095   5.912  16.556  0.3773  0.2250 -0.4339
13884TIP3    H163143   3.116   5.930  16.464  1.5544 -1.3737 -0.5302
13884TIP3    H263144   3.175   5.934  16.603 -0.1044  0.7011  0.1741
13885TIP3   OH263145   5.249   3.716  16.800 -0.0522  0.4774 -0.2786
13885TIP3    H163146   5.316   3.713  16.869  1.3126  0.0519 -1.5649
13885TIP3    H263147   5.245   3.808  16.774  0.3431  0.4419 -0.4760
13886TIP3   OH263148   2.047   3.559  13.372 -0.2041  0.1888 -0.1660
13886TIP3    H163149   2.124   3.556  13.315 -0.3111 -1.9687 -0.2937
13886TIP3    H263150   1.977   3.519  13.320 -0.3697 -1.6243  1.3310
13887TIP3   OH263151   4.190   3.030   3.018 -0.0756  0.5731 -0.2251
13887TIP3    H163152   4.282   3.021   3.045 -0.2729  0.0464  0.2783
13887TIP3    H263153   4.179   2.965   2.948 -0.3798 -0.1964  0.5309
13888TIP3   OH263154   0.195   5.312  17.027  0.2037 -0.2117  0.9890
13888TIP3    H163155   0.264   5.376  17.047 -0.0096  0.5752 -0.5972
13888TIP3    H263156   0.240   5.227  17.028  0.7143  0.0584  2.1255
13889TIP3   OH263157   2.971   5.714  11.604  0.0726  0.3514  0.1229
13889TIP3    H163158   2.962   5.687  11.696 -1.1609 -0.4699 -0.2077
13889TIP3    H263159   3.065   5.709  11.586  0.0146 -3.7370  0.1437
13890TIP3   OH263160   3.045   5.962   0.253 -0.0572 -0.1112  0.1865
13890TIP3    H163161   3.132   5.955   0.292 -0.3997 -2.1908  0.7099
13890TIP3    H263162   3.003   6.031   0.304  1.0852  0.5078  0.3255
13891TIP3   OH263163   1.665   0.700  16.955 -0.1458  0.1766  0.3397
13891TIP3    H163164   1.665   0.653  16.872 -1.7227  1.7119 -0.5919
13891TIP3    H263165   1.756   0.725  16.968  0.5444 -2.0921  0.3120
13892TIP3   OH263166   4.749   4.712  14.705 -0.2057 -0.0878 -0.3993
13892TIP3    H163167   4.697   4.697  14.784  1.8321 -2.4773  0.6264
13892TIP3    H263168   4.722   4.644  14.645 -1.5730  1.5775 -1.7760
13893TIP3   OH263169   3.304   5.099   3.696  0.6625  0.0552  0.0907
13893TIP3    H163170   3.209   5.104   3.687  0.6763  0.8580  0.2798
13893TIP3    H263171   3.319   5.085   3.790  0.7314  0.1045  0.0876
13894TIP3   OH263172   5.290   1.039  16.741  0.4951  0.2742  0.3796
13894TIP3    H163173   5.382   1.032  16.713  0.4518 -2.2419  0.6397
13894TIP3    H263174   5.274   0.958  16.789 -1.8633  0.6930  0.3918
13895TIP3   OH263175   1.932   2.474  13.095  0.4279 -0.2680 -0.0059
13895TIP3    H163176   2.003   2.520  13.051 -0.3718  0.0965 -0.9494
13895TIP3    H263177   1.858   2.479  13.034 -0.0277 -1.7822  0.3620
13896TIP3   OH263178   1.544   1.788   4.886  0.0534  0.4340 -0.2893
13896TIP3    H163179   1.494   1.727   4.941  0.7790 -1.5861 -1.7539
13896TIP3    H263180   1.601   1.835   4.948 -0.6239 -0.2748  0.9070
13897TIP3   OH263181   4.675   5.435   3.033  0.1774 -0.1493  0.3480
13897TIP3    H163182   4.609   5.484   3.081 -0.4008 -0.5769 -0.0025
13897TIP3    H263183   4.719   5.501   2.979 -0.2123  0.0675  0.2958
13898TIP3   OH263184   1.554   2.416  13.013 -0.1593 -0.8169 -0.0040
13898TIP3    H163185   1.489   2.351  12.986 -1.9953  0.5319  0.9724
13898TIP3    H263186   1.537   2.492  12.957 -0.0318 -0.1268  0.8734
13899TIP3   OH263187   5.218   4.343   2.784  0.1882  0.3152  0.4218
13899TIP3    H163188   5.129   4.376   2.785  0.5114  1.2086  0.8099
13899TIP3    H263189   5.255   4.373   2.701  0.5316  1.0763  0.8438
13900TIP3   OH263190   4.440   4.216   4.617  0.1147 -0.3406  0.3148
13900TIP3    H163191   4.434   4.121   4.626 -0.0122 -0.4002 -0.3487
13900TIP3    H263192   4.467   4.229   4.526 -1.3435  0.3007 -0.0529
13901TIP3   OH263193   1.192   3.324   0.241  0.6973  0.0408  0.5758
13901TIP3    H163194   1.106   3.367   0.245  0.6103  0.0231 -0.8412
13901TIP3    H263195   1.172   3.232   0.223  0.9470 -0.4077  2.3639
13902TIP3   OH263196   2.406   1.105   1.941 -0.0807 -0.0484  0.2972
13902TIP3    H163197   2.317   1.127   1.912 -0.0861  0.3428  0.5912
13902TIP3    H263198   2.463   1.163   1.890 -0.0773  0.4962  0.9037
13903TIP3   OH263199   0.395   2.041  10.182 -0.1485  0.0483  0.4739
13903TIP3    H163200   0.300   2.025  10.181 -0.2004  0.1474  1.7132
13903TIP3    H263201   0.404   2.128  10.222  0.4879 -0.2483  0.9897
13904TIP3   OH263202   0.549   5.711   1.115 -0.1066 -0.3906 -0.3631
13904TIP3    H163203   0.532   5.618   1.102  1.0099 -0.5997 -0.4668
13904TIP3    H263204   0.587   5.717   1.202 -0.0656 -0.0555 -0.4026
13905TIP3   OH263205   2.588   4.775  16.761 -0.4522  0.2388 -0.2860
13905TIP3    H163206   2.632   4.787  16.677 -0.0563 -1.1187 -0.3004
13905TIP3    H263207   2.626   4.842  16.818  0.8266 -0.1633 -0.6186
13906TIP3   OH263208   1.510   2.163  12.332 -0.0965 -0.3340 -0.0682
13906TIP3    H163209   1.434   2.135  12.280 -0.6064  0.9372 -0.0360
13906TIP3    H263210   1.559   2.082  12.347 -0.6747 -0.9461 -1.3243
13907TIP3   OH263211   4.319   0.622   1.752 -0.5440  0.0051  0.0255
13907TIP3    H163212   4.306   0.647   1.844 -1.2256  1.1537 -0.3586
13907TIP3    H263213   4.230   0.605   1.720 -0.4074  0.5391 -0.6592
13908TIP3   OH263214   0.779   0.508   6.640  0.1850  0.1888 -0.6670
13908TIP3    H163215   0.821   0.569   6.701  0.7247 -1.3321  0.5739
13908TIP3    H263216   0.851   0.474   6.587 -0.0188  0.1646 -0.9298
13909TIP3   OH263217   0.310   0.292   4.160 -0.0615 -0.5073  0.6561
13909TIP3    H163218   0.373   0.344   4.209 -0.4444  1.2603 -0.6268
13909TIP3    H263219   0.241   0.272   4.222  0.5495 -0.2950  1.4158
13910TIP3   OH263220   2.430   2.780   5.530  0.0554  0.2792  0.7322
13910TIP3    H163221   2.441   2.875   5.541  1.6265  0.0086  1.5994
13910TIP3    H263222   2.376   2.753   5.605 -0.0666  0.4146  0.6951
13911TIP3   OH263223   0.591   0.937  15.762 -0.4032  0.4214  0.0076
13911TIP3    H163224   0.628   0.856  15.727  0.4337  1.0520 -0.5871
13911TIP3    H263225   0.646   0.957  15.838 -0.4542  0.5632  0.0073
13912TIP3   OH263226   4.330   1.887  14.847 -0.2819  0.4841  0.6527
13912TIP3    H163227   4.257   1.863  14.904 -0.4422 -1.5856 -0.3173
13912TIP3    H263228   4.408   1.873  14.899 -0.4338 -1.2388  0.4795
13913TIP3   OH263229   5.073   1.391  13.164 -0.3147 -0.0196 -0.0355
13913TIP3    H163230   5.115   1.365  13.082 -0.7974  1.3748 -0.7378
13913TIP3    H263231   5.022   1.468  13.142 -1.8201 -0.6169  1.2116
13914TIP3   OH263232   2.312   3.800   5.807 -0.0318 -0.1142  0.2162
13914TIP3    H163233   2.246   3.857   5.847 -0.7423 -1.6055  1.2654
13914TIP3    H263234   2.362   3.766   5.882 -0.1486 -1.4930 -0.3106
13915TIP3   OH263235   5.609   3.585   4.984  0.4241 -0.1559  0.8314
13915TIP3    H163236   5.690   3.614   4.942 -0.4679 -2.0329 -2.5992
13915TIP3    H263237   5.601   3.493   4.960 -2.9888  0.0947  0.4804
13916TIP3   OH263238   1.160   5.393  11.752 -0.1896 -0.8507 -0.4079
13916TIP3    H163239   1.173   5.355  11.838  2.5557  1.8914  0.5776
13916TIP3    H263240   1.226   5.351  11.697 -0.5490 -1.1089 -0.6464
13917TIP3   OH263241   0.559   0.658  16.760  0.5967  0.5290  0.2214
13917TIP3    H163242   0.620   0.600  16.715  0.8566  0.9756 -0.0047
13917TIP3    H263243   0.472   0.625  16.736  0.5990  2.4759 -3.0379
13918TIP3   OH263244   1.586   4.536   3.465  0.3874  0.3932  0.0466
13918TIP3    H163245   1.646   4.505   3.398 -1.2810 -0.8587 -0.9435
13918TIP3    H263246   1.641   4.585   3.526  2.1707  0.4357 -1.5058
13919TIP3   OH263247   6.399   0.689   0.338  0.0260 -0.4186 -0.5079
13919TIP3    H163248   6.353   0.721   0.261  0.0355 -0.4876 -0.5420
13919TIP3    H263249   6.364   0.601   0.353  0.8369 -0.8621 -1.1076
13920TIP3   OH263250   0.777   1.634  16.715 -0.3126 -0.1030 -0.0437
13920TIP3    H163251   0.792   1.552  16.762 -2.1434 -1.1316 -1.1809
13920TIP3    H263252   0.704   1.676  16.762  0.0279  0.4598 -0.0028
13921TIP3   OH263253   4.503   4.825  10.805 -0.2102 -0.0912  0.0425
13921TIP3    H163254   4.459   4.899  10.846  3.0874  1.4496  1.2071
13921TIP3    H263255   4.581   4.811  10.858  0.4271 -3.0202 -1.4404
13922TIP3   OH263256   4.352   1.958  13.003  0.1257  0.1465 -0.3038
13922TIP3    H163257   4.369   2.047  12.971 -2.4085  0.7658 -0.1528
13922TIP3    H263258   4.272   1.930  12.957 -0.1041 -1.3664  0.9107
13923TIP3   OH263259   5.923   6.623  16.218  0.1122  0.4887 -0.0461
13923TIP3    H163260   5.972   6.545  16.195  0.1314  1.0549 -2.0599
13923TIP3    H263261   5.983   6.696  16.200 -0.1508  1.0237  1.1174
13924TIP3   OH263262   0.790   6.206  12.687  0.1199 -0.2564  0.5589
13924TIP3    H163263   0.704   6.179  12.656 -0.2417  1.9641 -0.5865
13924TIP3    H263264   0.851   6.146  12.644 -0.6941 -0.1343 -0.8321
13925TIP3   OH263265   0.555   3.167  14.621  0.5953 -0.2687 -0.5090
13925TIP3    H163266   0.562   3.113  14.542 -0.4407 -0.8703 -0.2152
13925TIP3    H263267   0.469   3.208  14.614  0.7908  0.2321 -0.0328
13926TIP3   OH263268   1.079   5.702   4.961 -0.3101 -0.2535 -0.2029
13926TIP3    H163269   1.029   5.688   4.881 -2.3297 -0.6269  1.0338
13926TIP3    H263270   1.014   5.730   5.025  1.5885  2.3854  0.7473
13927TIP3   OH263271   0.320   0.158  16.135  0.5900  0.0463 -0.7811
13927TIP3    H163272   0.286   0.134  16.049 -1.3980  0.7890 -0.2614
13927TIP3    H263273   0.404   0.112  16.141  0.1734 -1.0684 -2.5661
13928TIP3   OH263274   5.855   1.678  13.290 -0.0017 -0.0895 -0.2236
13928TIP3    H163275   5.835   1.758  13.242 -0.3603  0.5244  0.9164
13928TIP3    H263276   5.802   1.683  13.369  2.7373  0.3950  1.7336
13929TIP3   OH263277   0.025   1.505  13.031 -0.4041 -0.5643  0.5279
13929TIP3    H163278   0.112   1.482  13.062 -0.0059 -0.2653 -0.3279
13929TIP3    H263279  -0.034   1.478  13.101  0.3782 -0.7544  1.1220
13930TIP3   OH263280   5.389   1.218  10.503 -0.0271  0.6346 -0.0873
13930TIP3    H163281   5.367   1.138  10.551  0.1591  1.0335  0.6968
13930TIP3    H263282   5.448   1.190  10.434  0.0995  0.1026  0.2339
13931TIP3   OH263283   0.882   2.140   0.755  0.3571  0.2577 -0.1406
13931TIP3    H163284   0.856   2.070   0.815  2.3297  0.1341  0.6539
13931TIP3    H263285   0.948   2.190   0.804  1.3243  0.7449 -1.8536
13932TIP3   OH263286   1.396   5.390   5.819  0.8638  0.3128  0.2170
13932TIP3    H163287   1.454   5.420   5.749  2.4149 -0.5903  1.0462
13932TIP3    H263288   1.359   5.470   5.856  1.3815  0.9031 -0.5102
13933TIP3   OH263289   3.414   2.626   0.711  0.5080 -0.3757  0.6264
13933TIP3    H163290   3.356   2.666   0.776  0.5186 -0.2910  0.5837
13933TIP3    H263291   3.358   2.566   0.662  0.7938 -1.5018  1.6308
13934TIP3   OH263292   6.463   0.537  15.558 -0.2510 -0.4853 -0.3684
13934TIP3    H163293   6.411   0.464  15.525 -1.4905  0.2295 -0.0463
13934TIP3    H263294   6.453   0.606  15.493  0.3440 -0.3522 -0.3242
13935TIP3   OH263295   4.363   5.891  16.933 -0.3034 -0.2490 -0.1285
13935TIP3    H163296   4.316   5.973  16.950 -1.1180 -0.9998  1.3735
13935TIP3    H263297   4.353   5.878  16.838 -0.4331  1.2053 -0.3449
13936TIP3   OH263298   1.879   5.014   1.254 -0.2992  0.6105  0.0098
13936TIP3    H163299   1.824   4.996   1.178  0.3587 -0.6753 -0.1953
13936TIP3    H263300   1.884   4.931   1.300 -0.2496  1.2450  1.1790
13937TIP3   OH263301   2.244   4.885  13.806 -0.3975 -0.2151 -0.1539
13937TIP3    H163302   2.200   4.808  13.842  0.9832 -0.7028  0.5570
13937TIP3    H263303   2.332   4.883  13.846  0.4961  0.3561 -2.0028
13938TIP3   OH263304   0.853   5.761   5.132  0.1713  0.3542  0.2353
13938TIP3    H163305   0.804   5.690   5.172  3.1571 -0.9868  1.8402
13938TIP3    H263306   0.846   5.833   5.194  1.5650 -0.4232  1.3550
13939TIP3   OH263307   6.284   6.593   4.703  0.2861 -0.0274 -0.0235
13939TIP3    H163308   6.286   6.681   4.664  1.1990  0.1188  0.3281
13939TIP3    H263309   6.371   6.582   4.741  0.2648 -1.1879 -0.2744
13940TIP3   OH263310   2.638   2.456  10.346  1.0180  0.5463  0.8317
13940TIP3    H163311   2.623   2.417  10.260  2.5413 -0.7037  1.0891
13940TIP3    H263312   2.560   2.509  10.362  0.0250 -0.3866 -0.6533
13941TIP3   OH263313   1.032   2.817   1.948  0.4433  0.3361 -0.3066
13941TIP3    H163314   0.978   2.869   1.889 -1.0890 -0.5338  0.2695
13941TIP3    H263315   0.988   2.732   1.952  2.2594 -0.6661 -0.3625
13942TIP3   OH263316   5.683   3.296  13.035  0.0325  0.0298  0.0270
13942TIP3    H163317   5.748   3.228  13.055  0.0390  0.1714  0.5131
13942TIP3    H263318   5.612   3.279  13.097 -0.9203 -0.8254 -1.2432
13943TIP3   OH263319   6.611   6.650  13.275  0.4015  0.3019 -0.4711
13943TIP3    H163320   6.668   6.683  13.344  0.1180  1.9726 -0.9923
13943TIP3    H263321   6.669   6.639  13.199  0.2153  1.0628 -0.7249
13944TIP3   OH263322   4.128   2.649  15.472 -0.0589  0.3823  0.3461
13944TIP3    H163323   4.123   2.630  15.566 -2.8844  2.8369  0.8525
13944TIP3    H263324   4.067   2.586  15.433  1.2648 -0.7703  0.0624
13945TIP3   OH263325   2.418   3.198   2.252 -0.5429 -0.7028  0.4078
13945TIP3    H163326   2.336   3.210   2.204  0.5815 -0.0469 -1.4539
13945TIP3    H263327   2.430   3.103   2.255  0.1310 -0.7811 -2.1357
13946TIP3   OH263328   3.911   1.360   0.083  0.3504 -0.1681 -0.5256
13946TIP3    H163329   3.965   1.438   0.089  0.6748 -0.3389 -1.1931
13946TIP3    H263330   3.861   1.360   0.165 -1.0148  1.7424 -1.2747
13947TIP3   OH263331   3.665   3.509  11.692 -0.3851  0.1688 -0.2014
13947TIP3    H163332   3.698   3.428  11.654 -1.2088 -0.5476  0.5666
13947TIP3    H263333   3.642   3.486  11.782 -1.1004  1.1315 -0.1217
13948TIP3   OH263334   6.071   2.492  15.544 -0.1425  0.8715 -0.3426
13948TIP3    H163335   5.995   2.457  15.591 -0.8523 -0.0002 -2.0340
13948TIP3    H263336   6.032   2.537  15.468  0.9336  2.5224  0.0246
13949TIP3   OH263337   1.575   1.737   3.107 -0.1292  0.3832 -0.3147
13949TIP3    H163338   1.601   1.786   3.185 -0.0296 -0.5227  0.2381
13949TIP3    H263339   1.590   1.798   3.034  1.2707  0.7094  0.2138
13950TIP3   OH263340   3.377   3.971  14.650 -0.1521 -0.2420  0.2503
13950TIP3    H163341   3.340   3.998  14.566  2.4677  2.3305 -0.2125
13950TIP3    H263342   3.340   4.033  14.713 -1.7755 -1.8997  1.0177
13951TIP3   OH263343   5.727   3.015   1.653 -0.0350 -0.4349 -0.6466
13951TIP3    H163344   5.733   3.110   1.643 -1.8992 -0.1803  0.3610
13951TIP3    H263345   5.713   2.983   1.564 -0.2321  0.3099 -0.8909
13952TIP3   OH263346   2.725   1.157  13.502 -0.1315 -0.0228  0.4492
13952TIP3    H163347   2.752   1.236  13.549  2.2424 -0.5272  0.0508
13952TIP3    H263348   2.655   1.187  13.444  1.6446  2.2075 -0.7407
13953TIP3   OH263349   3.458   3.762   1.078 -0.0949  0.1978  0.0966
13953TIP3    H163350   3.522   3.718   1.134 -1.2230 -1.9364 -0.1634
13953TIP3    H263351   3.465   3.854   1.100  1.9410 -0.1785  1.1997
13954TIP3   OH263352   0.328   0.007  15.549  0.1899  0.2117  0.4307
13954TIP3    H163353   0.268   0.028  15.477  0.5431  1.5372  0.5038
13954TIP3    H263354   0.291  -0.072  15.588 -2.4540  1.8663  1.4862
13955TIP3   OH263355   3.621   4.108   5.198  0.1194 -0.6503  0.0377
13955TIP3    H163356   3.622   4.102   5.103 -2.8329 -0.0413 -0.1167
13955TIP3    H263357   3.583   4.194   5.217 -0.0498 -1.0620  1.7320
13956TIP3   OH263358   5.141   6.040   3.477 -0.2875 -0.3795 -0.6994
13956TIP3    H163359   5.120   6.133   3.485  0.5226  0.0841 -3.2474
13956TIP3    H263360   5.089   6.009   3.403 -0.8877 -2.1237  0.3683
13957TIP3   OH263361   0.834   6.070   5.503 -0.4053  0.3876 -0.4447
13957TIP3    H163362   0.762   6.127   5.532 -0.5814  0.4104 -0.9218
13957TIP3    H263363   0.909   6.129   5.496 -0.6507  0.6256 -1.1961
13958TIP3   OH263364   0.130   2.245  15.853  0.3289 -0.7476 -0.3890
13958TIP3    H163365   0.149   2.178  15.918  0.8976  0.2114  0.4740
13958TIP3    H263366   0.041   2.273  15.871  0.9700  0.5452  0.9831
13959TIP3   OH263367   1.266   4.060  10.459 -0.1957  0.1535 -0.3631
13959TIP3    H163368   1.278   4.035  10.368 -0.4063 -0.7422 -0.1510
13959TIP3    H263369   1.288   4.153  10.461 -1.5010  0.5292 -1.5863
13960TIP3   OH263370   4.350   3.548  14.739 -0.2151 -0.1219  0.3355
13960TIP3    H163371   4.421   3.512  14.791 -0.2068  1.5705  1.5613
13960TIP3    H263372   4.271   3.506  14.772  0.2130 -2.8198 -1.7483
13961TIP3   OH263373   6.280   5.877   4.087  0.2118 -0.2776 -0.6029
13961TIP3    H163374   6.258   5.960   4.044  3.0837  0.2770 -1.1977
13961TIP3    H263375   6.333   5.903   4.162  0.6625 -1.5647 -0.4597
13962TIP3   OH263376   0.559   2.779  15.645 -0.0816  0.0196 -0.6784
13962TIP3    H163377   0.513   2.856  15.614  0.5452  0.7061  0.0445
13962TIP3    H263378   0.501   2.706  15.623 -2.1038  0.9261  1.2358
13963TIP3   OH263379   6.645   0.270  16.265 -0.1706 -0.1847  0.1730
13963TIP3    H163380   6.695   0.224  16.198 -1.0479  0.4670 -0.9674
13963TIP3    H263381   6.558   0.232  16.261 -0.8196  1.3048 -0.5597
13964TIP3   OH263382   6.330   6.515  14.799 -0.1324  0.4132  0.4456
13964TIP3    H163383   6.333   6.608  14.777 -0.7093  0.1444 -0.8960
13964TIP3    H263384   6.391   6.474  14.737  0.4951 -0.0569  1.3531
13965TIP3   OH263385   1.530   4.868  15.002 -0.3792 -1.0466  0.4294
13965TIP3    H163386   1.580   4.852  15.082  0.4642 -1.0576 -0.0940
13965TIP3    H263387   1.558   4.800  14.941 -0.2779 -0.4417 -0.2141
13966TIP3   OH263388   6.235   0.578   2.537 -0.4767  0.3332  0.0348
13966TIP3    H163389   6.210   0.557   2.447 -2.0429  0.4589  0.4109
13966TIP3    H263390   6.152   0.600   2.580  0.4314  1.9442  1.0662
13967TIP3   OH263391   3.432   1.936  17.071 -0.4299  0.6630  0.2808
13967TIP3    H163392   3.427   1.901  17.160  0.4338  1.1872  0.5417
13967TIP3    H263393   3.454   1.861  17.016 -0.7340  0.3840  0.5405
13968TIP3   OH263394   1.540   1.311  12.259 -0.3266 -0.3220 -0.0511
13968TIP3    H163395   1.632   1.295  12.277 -0.5522 -3.0422 -0.8055
13968TIP3    H263396   1.534   1.309  12.163 -1.1552 -0.0162 -0.0121
13969TIP3   OH263397   6.562   5.630  11.930 -0.0881 -0.3101  0.5046
13969TIP3    H163398   6.644   5.644  11.978  0.7046  1.1872 -1.1577
13969TIP3    H263399   6.519   5.716  11.931 -1.1285 -0.8070  0.4004
13970TIP3   OH263400   6.124   5.592  12.193 -0.5467 -0.6501 -0.5031
13970TIP3    H163401   6.051   5.584  12.254  0.5799  1.7981  1.3656
13970TIP3    H263402   6.200   5.561  12.242  0.3286  1.0581 -0.6916
13971TIP3   OH263403   4.969   1.291   1.471 -0.7207  0.1347 -0.3039
13971TIP3    H163404   4.932   1.302   1.559  2.1270  3.6713  0.6902
13971TIP3    H263405   4.920   1.352   1.416 -0.7789 -0.1649 -0.5914
13972TIP3   OH263406   0.849   4.589   3.002 -0.0013 -0.4227  0.2630
13972TIP3    H163407   0.828   4.612   3.093  1.2154 -0.9230  0.6893
13972TIP3    H263408   0.775   4.535   2.973  0.5339 -1.9919  1.6505
13973TIP3   OH263409   5.761   6.646  15.369 -0.5013 -0.5845 -0.1465
13973TIP3    H163410   5.827   6.581  15.346 -1.9250 -1.5989 -1.5871
13973TIP3    H263411   5.739   6.689  15.286 -0.2747  1.1196  0.6232
13974TIP3   OH263412   3.056   6.495  15.997 -0.3690 -0.2091  0.0238
13974TIP3    H163413   3.038   6.557  15.927  0.5185 -1.8516 -1.7475
13974TIP3    H263414   2.975   6.446  16.006 -0.7953  0.6133  0.8479
13975TIP3   OH263415   2.071   4.502  12.461  0.3737 -0.0315  0.2983
13975TIP3    H163416   2.015   4.476  12.534 -0.2060 -1.0508 -0.4949
13975TIP3    H263417   2.159   4.502  12.498 -0.1532  2.1254  1.7057
13976TIP3   OH263418   4.004   5.422   3.731 -0.1096  0.3069 -0.1013
13976TIP3    H163419   4.057   5.431   3.653  1.7947  1.0603  1.2128
13976TIP3    H263420   3.949   5.346   3.713 -1.2684  1.6666 -2.9586
13977TIP3   OH263421   4.663   2.404   0.948  0.1960 -0.4099 -0.1403
13977TIP3    H163422   4.734   2.456   0.911 -0.2173 -0.3586 -0.8781
13977TIP3    H263423   4.694   2.314   0.944 -0.8578 -0.7497 -3.1531
13978TIP3   OH263424   0.916   1.488   3.542 -0.0860 -0.3861 -0.1188
13978TIP3    H163425   0.981   1.528   3.484 -1.7624  1.8082 -0.5897
13978TIP3    H263426   0.868   1.428   3.485  0.3750 -0.6854 -0.1972
13979TIP3   OH263427   1.027   1.012  11.078 -0.5037 -0.3863  0.2841
13979TIP3    H163428   1.044   0.917  11.080  0.4359 -0.2154  1.7114
13979TIP3    H263429   0.953   1.021  11.017 -1.4411 -2.1712  1.0560
13980TIP3   OH263430   1.386   2.562  11.498 -0.2094  0.5377 -0.0428
13980TIP3    H163431   1.450   2.582  11.430 -0.8767 -0.3528 -0.9592
13980TIP3    H263432   1.387   2.639  11.555  3.4290 -0.3800  1.4038
13981TIP3   OH263433   3.843   6.587  12.751  0.3062  0.1231 -0.2201
13981TIP3    H163434   3.902   6.660  12.737 -1.8889  1.9864 -0.3156
13981TIP3    H263435   3.825   6.588  12.845  2.0138 -1.8106  0.1999
13982TIP3   OH263436   5.103   2.005  13.235  0.3951 -0.2825  0.1056
13982TIP3    H163437   5.154   2.087  13.236 -1.0154  0.6737 -1.3906
13982TIP3    H263438   5.106   1.973  13.325  0.8116  1.5368  0.7714
13983TIP3   OH263439   4.632   6.115  17.058 -0.8352  0.4120  0.2865
13983TIP3    H163440   4.694   6.187  17.046 -0.9881  0.3640 -0.9269
13983TIP3    H263441   4.601   6.125  17.148  1.3396  0.0972  1.1470
13984TIP3   OH263442   5.303   0.172   1.236  0.0745 -0.7235 -0.0602
13984TIP3    H163443   5.341   0.084   1.246  2.0759 -0.5205 -4.0061
13984TIP3    H263444   5.223   0.157   1.186 -0.2846 -0.3706  0.4022
13985TIP3   OH263445   5.092   3.785   5.168 -0.3888  0.0589  0.2539
13985TIP3    H163446   5.081   3.815   5.258  1.6231 -0.4873  0.7281
13985TIP3    H263447   5.164   3.722   5.172 -0.4040 -0.1557 -1.7052
13986TIP3   OH263448   0.714   1.099   1.926  0.0970 -1.0062  0.2354
13986TIP3    H163449   0.762   1.099   1.843  0.6664 -2.1646  0.5464
13986TIP3    H263450   0.714   1.191   1.953 -1.3201 -0.3409 -1.7076
13987TIP3   OH263451   1.663   6.502   5.074  0.2041 -0.7127  0.1224
13987TIP3    H163452   1.711   6.420   5.086  4.0275  1.3917  0.6577
13987TIP3    H263453   1.674   6.548   5.156 -1.8786  0.4030 -0.1671
13988TIP3   OH263454   2.618   3.640   5.447  0.6042 -0.0915  0.4797
13988TIP3    H163455   2.695   3.668   5.397 -1.0172  0.5904 -1.7999
13988TIP3    H263456   2.584   3.720   5.486 -0.4503  0.0933 -0.7755
13989TIP3   OH263457   5.149   1.564  14.154  0.8196  0.5654 -0.6478
13989TIP3    H163458   5.161   1.516  14.236  0.3297 -0.0982 -0.9534
13989TIP3    H263459   5.176   1.503  14.086 -1.6132 -0.0335 -1.1815
13990TIP3   OH263460   3.649   5.744  13.577  0.1902 -0.3502  0.1973
13990TIP3    H163461   3.584   5.733  13.507 -0.9518 -0.6495  1.2708
13990TIP3    H263462   3.683   5.833  13.565 -0.3647 -0.2170 -0.4205
13991TIP3   OH263463   2.435   4.767  14.686 -0.4225 -0.0290 -0.2907
13991TIP3    H163464   2.374   4.825  14.641 -0.6876 -0.5974 -0.6881
13991TIP3    H263465   2.521   4.803  14.665 -0.5806  0.1972 -0.5704
13992TIP3   OH263466   5.636   6.841  11.390 -0.0800  0.0816  0.5091
13992TIP3    H163467   5.677   6.785  11.324  0.0624  0.9536 -0.1435
13992TIP3    H263468   5.691   6.830  11.467  0.1824 -0.3587  0.2655
13993TIP3   OH263469   2.449   3.582   4.448 -0.1836 -0.0187 -0.4556
13993TIP3    H163470   2.407   3.614   4.368  0.5862 -0.0328 -0.8701
13993TIP3    H263471   2.415   3.640   4.517 -0.5045  0.2784 -0.8566
13994TIP3   OH263472   4.908   3.812   0.119  0.5288 -0.3825  0.5123
13994TIP3    H163473   4.957   3.887   0.153 -1.3712  1.1522  0.0953
13994TIP3    H263474   4.892   3.757   0.196 -0.2787  0.9971  1.3814
13995TIP3   OH263475   3.649   1.849   2.493  0.4528 -0.0026  0.2946
13995TIP3    H163476   3.704   1.883   2.423  0.2128  1.8227  0.9499
13995TIP3    H263477   3.670   1.755   2.497  2.0230  0.2745 -0.7806
13996TIP3   OH263478   6.652   1.701  16.192  0.3427  0.2695  0.5476
13996TIP3    H163479   6.731   1.743  16.226  0.6537 -0.2654  0.4913
13996TIP3    H263480   6.679   1.661  16.109  0.0761 -0.1289  0.6509
13997TIP3   OH263481   1.906   0.446  13.046 -0.1294  0.7046  0.3394
13997TIP3    H163482   1.883   0.472  12.957 -0.5645 -0.0216  0.2363
13997TIP3    H263483   1.909   0.351  13.044 -1.2463  0.6192  1.3547
13998TIP3   OH263484   1.827   2.669   2.208  0.9114  0.4618  0.3589
13998TIP3    H163485   1.853   2.578   2.218  0.0129  0.1975  0.3904
13998TIP3    H263486   1.865   2.696   2.124  0.5250 -0.1757 -0.0279
13999TIP3   OH263487   1.267   1.117  10.985  0.6749 -0.2149 -0.6626
13999TIP3    H163488   1.219   1.073  11.055  0.3099  1.0136 -0.1153
13999TIP3    H263489   1.346   1.151  11.027  0.0188  1.3181 -0.5984
14000TIP3   OH263490   4.575   3.404   4.682 -0.0125  0.2959 -0.6289
14000TIP3    H163491   4.543   3.314   4.674  2.7417 -0.8241 -0.4685
14000TIP3    H263492   4.622   3.405   4.766  2.0663  1.1183 -1.7387
14001TIP3   OH263493   5.740   1.329   5.676  0.0226 -0.1694  0.4489
14001TIP3    H163494   5.774   1.323   5.765  0.7511 -1.4436  0.1134
14001TIP3    H263495   5.673   1.261   5.670  0.1000 -0.2120 -0.0199
14002TIP3   OH263496   5.788   1.974  11.734  0.0770 -0.1519 -0.1761
14002TIP3    H163497   5.791   2.062  11.772 -0.5369 -0.1061 -0.2221
14002TIP3    H263498   5.875   1.938  11.750 -0.2996 -0.3195  1.7295
14003TIP3   OH263499   6.136   2.524   4.663 -0.0634  0.2526 -0.2652
14003TIP3    H163500   6.208   2.461   4.657 -1.1464 -0.8990 -2.1511
14003TIP3    H263501   6.161   2.582   4.735  1.1697 -2.0676  1.2884
14004TIP3   OH263502   3.343   5.883  15.470 -0.4260 -0.9076  0.5353
14004TIP3    H163503   3.273   5.894  15.534 -0.3059 -1.6556  0.8066
14004TIP3    H263504   3.302   5.840  15.395 -0.8149  0.9279 -0.3763
14005TIP3   OH263505   6.563   0.426   1.358  0.2226  0.1558 -0.5007
14005TIP3    H163506   6.530   0.481   1.287 -2.3281 -0.1285  0.3716
14005TIP3    H263507   6.646   0.467   1.383  0.0072  1.6508 -2.0469
14006TIP3   OH263508   2.128   1.330  16.195 -0.6046 -0.3544  0.3540
14006TIP3    H163509   2.054   1.387  16.214 -0.9481 -1.0021  1.0378
14006TIP3    H263510   2.135   1.329  16.100 -0.7931  0.5608  0.3260
14007TIP3   OH263511   3.214   0.597   6.730 -0.0762  0.0055  0.0159
14007TIP3    H163512   3.256   0.541   6.796 -0.1805 -2.0244 -1.5312
14007TIP3    H263513   3.282   0.612   6.664  0.6940  3.7537  1.4208
14008TIP3   OH263514   3.357   6.286   0.182  0.2681 -0.5500 -0.4754
14008TIP3    H163515   3.400   6.371   0.188  0.2404 -0.6504  2.7720
14008TIP3    H263516   3.265   6.306   0.169  0.5400 -0.2037 -2.0799
14009TIP3   OH263517   1.241   6.258  15.393  0.0653 -0.5321 -0.0388
14009TIP3    H163518   1.323   6.209  15.387 -1.0752 -2.3875 -1.5246
14009TIP3    H263519   1.178   6.195  15.428 -1.0050  0.4835 -0.0853
14010TIP3   OH263520   2.370   4.950   1.007 -0.3060  0.1237  0.0210
14010TIP3    H163521   2.350   4.913   1.092 -0.6161 -0.0144 -0.1097
14010TIP3    H263522   2.288   4.942   0.958 -0.2100  0.4525 -0.1967
14011TIP3   OH263523   4.564   1.859  15.920  0.4087  0.1704 -0.1102
14011TIP3    H163524   4.611   1.777  15.939  0.7672  0.7070  1.5277
14011TIP3    H263525   4.537   1.891  16.006 -0.7930  1.1727 -0.8251
14012TIP3   OH263526   0.952   3.392  16.405  0.4796  0.2760  0.0084
14012TIP3    H163527   0.868   3.437  16.406  1.4120  2.2812  3.0197
14012TIP3    H263528   0.929   3.299  16.409 -1.5498  0.7009 -0.5449
14013TIP3   OH263529   1.156   5.245   5.665 -0.8136  0.1666 -0.2197
14013TIP3    H163530   1.163   5.256   5.760  1.6249  2.3183 -0.5040
14013TIP3    H263531   1.073   5.287   5.642 -1.2325  0.0011  0.9153
14014TIP3   OH263532   5.267   4.286  11.775  0.4968 -0.8769  0.5862
14014TIP3    H163533   5.234   4.259  11.861  1.3319 -2.5435  0.4239
14014TIP3    H263534   5.336   4.224  11.756  0.9529  0.0463 -0.9024
14015TIP3   OH263535   3.019   0.109  16.853  0.2988  0.0314  0.0559
14015TIP3    H163536   3.083   0.046  16.887  1.6315  1.2197 -0.1668
14015TIP3    H263537   3.032   0.187  16.907 -0.1237  0.6958 -0.7822
14016TIP3   OH263538   6.539   4.267  13.939 -0.2681 -0.2914 -0.3339
14016TIP3    H163539   6.551   4.172  13.936  1.2922 -0.1149 -0.8377
14016TIP3    H263540   6.542   4.289  14.032  0.3212 -0.6377 -0.2659
14017TIP3   OH263541   5.224   2.211   0.736 -0.0425 -0.3577 -0.3557
14017TIP3    H163542   5.131   2.230   0.723  0.0995 -0.6328 -1.9988
14017TIP3    H263543   5.226   2.119   0.762 -0.1993 -0.4979 -0.8375
14018TIP3   OH263544   0.043   2.515   5.441 -0.3456  0.3889 -0.0256
14018TIP3    H163545  -0.043   2.499   5.479 -0.7264 -0.2338 -1.1190
14018TIP3    H263546   0.080   2.427   5.426  1.0459  0.6399  1.6497
14019TIP3   OH263547   4.407   6.635   2.521 -0.2513  0.5586 -0.6416
14019TIP3    H163548   4.493   6.640   2.562 -0.5347  0.0816  0.0385
14019TIP3    H263549   4.418   6.679   2.436  0.6404  0.5532 -0.5413
14020TIP3   OH263550   0.483   5.892   5.077 -0.3324  0.0023  0.4371
14020TIP3    H163551   0.528   5.906   4.993 -1.1209 -2.6373 -0.5439
14020TIP3    H263552   0.399   5.852   5.052 -1.1899  0.4816  2.4388
14021TIP3   OH263553   5.139   1.882  10.831  0.0091 -0.2704  0.1062
14021TIP3    H163554   5.203   1.811  10.835 -1.2923 -1.4824  0.2037
14021TIP3    H263555   5.061   1.846  10.873 -0.6799  1.2405  0.1803
14022TIP3   OH263556   2.667   0.363   4.934 -0.4048 -0.2740  0.5151
14022TIP3    H163557   2.580   0.335   4.908 -0.8138  1.1478  0.2462
14022TIP3    H263558   2.717   0.367   4.852  0.1887 -1.9262  0.7732
14023TIP3   OH263559   1.013   0.526   2.244 -0.1564 -0.0706  0.2071
14023TIP3    H163560   0.941   0.569   2.289 -0.1383  1.1146 -0.8392
14023TIP3    H263561   0.983   0.518   2.153  1.4167  1.4599 -0.5032
14024TIP3   OH263562   5.678   1.078   0.382 -0.0637 -0.6349  0.1676
14024TIP3    H163563   5.748   1.143   0.387  1.3627 -2.0646 -0.2245
14024TIP3    H263564   5.610   1.119   0.328  0.6453  0.6409  0.2167
14025TIP3   OH263565   3.703   5.769   4.881  0.9605 -0.1768  0.0421
14025TIP3    H163566   3.689   5.862   4.863  0.8450  0.0644  1.3068
14025TIP3    H263567   3.796   5.762   4.903  0.2891  0.3282  3.5811
14026TIP3   OH263568   4.954   2.736  14.810  0.6194 -0.5358 -0.4717
14026TIP3    H163569   4.938   2.668  14.744 -0.2524  0.3459 -1.2091
14026TIP3    H263570   4.934   2.818  14.765  0.2242  0.1093  0.8296
14027TIP3   OH263571   2.682   6.782   4.599 -0.3499 -0.2814 -0.4110
14027TIP3    H163572   2.638   6.837   4.534  1.3105 -0.5308 -1.8133
14027TIP3    H263573   2.688   6.696   4.558 -0.0103 -0.6684  0.4269
14028TIP3   OH263574   3.446   6.304  14.356 -0.0016 -0.1649  0.3845
14028TIP3    H163575   3.401   6.370  14.409 -0.8458 -0.7841  0.4708
14028TIP3    H263576   3.528   6.288  14.402 -0.3125 -0.0251  1.0045
14029TIP3   OH263577   6.696   0.281   2.319 -0.7347 -0.2106  0.0338
14029TIP3    H163578   6.609   0.320   2.313 -0.9674 -0.1267  2.8395
14029TIP3    H263579   6.696   0.233   2.402  1.1881 -2.0777 -0.9209
14030TIP3   OH263580   6.670   2.564   1.382  0.4418 -0.3296  0.3476
14030TIP3    H163581   6.650   2.650   1.347 -0.9515 -0.7305  0.0688
14030TIP3    H263582   6.635   2.565   1.472  0.4800 -0.5761  0.3678
14031TIP3   OH263583   5.142   6.446   1.565 -0.0339 -0.2766 -0.2003
14031TIP3    H163584   5.222   6.492   1.538  0.1873 -1.1111 -1.0236
14031TIP3    H263585   5.095   6.510   1.619  0.3264  0.8748 -1.1846
14032TIP3   OH263586   5.332   5.337   4.524 -0.0382 -0.4363 -0.4004
14032TIP3    H163587   5.334   5.358   4.618 -1.3258 -0.6617 -0.3123
14032TIP3    H263588   5.331   5.242   4.520  3.6490 -0.5950 -0.7675
14033TIP3   OH263589   1.943   0.082  12.416 -0.5304 -0.6542  0.6171
14033TIP3    H163590   1.954   0.073  12.321 -0.0384 -2.2780  0.8003
14033TIP3    H263591   1.865   0.137  12.426  0.1255  0.5722 -0.7105
14034TIP3   OH263592   6.791   3.806  14.129 -0.1395 -0.2892  0.6150
14034TIP3    H163593   6.843   3.787  14.051  0.3335  0.4267  0.7463
14034TIP3    H263594   6.855   3.834  14.195 -0.5485 -0.7292  1.2113
14035TIP3   OH263595   4.068   2.448   1.547  0.1814  0.2241 -0.1239
14035TIP3    H163596   4.163   2.449   1.533  0.5746 -0.5793  2.1169
14035TIP3    H263597   4.043   2.357   1.536 -0.4357  0.4962 -1.1160
14036TIP3   OH263598   6.221   4.536  15.114  0.4520  0.2419  0.0887
14036TIP3    H163599   6.302   4.495  15.085 -0.3089 -0.2993 -1.3751
14036TIP3    H263600   6.208   4.503  15.203  1.4720 -0.2217  0.0784
14037TIP3   OH263601   5.978   2.011  14.307 -0.1339 -0.9048  0.3604
14037TIP3    H163602   6.021   1.926  14.302  0.7122 -0.5238  0.9668
14037TIP3    H263603   5.982   2.046  14.218  2.8068  0.0654  0.7800
14038TIP3   OH263604   3.253   1.310   2.166 -0.7867  0.1084  0.2637
14038TIP3    H163605   3.180   1.355   2.124  0.5746  2.7162  0.4563
14038TIP3    H263606   3.331   1.342   2.121  0.3665 -1.4876  0.9956
14039TIP3   OH263607   0.590   3.511   1.011 -0.6612 -0.0407 -0.0626
14039TIP3    H163608   0.629   3.423   1.008  1.1679  0.7260 -0.8478
14039TIP3    H263609   0.515   3.506   0.952  0.1418 -0.7787 -1.0609
14040TIP3   OH263610   6.364   1.581   3.857 -0.2315 -0.0770 -0.6251
14040TIP3    H163611   6.390   1.586   3.949 -0.5759 -2.1524 -0.3698
14040TIP3    H263612   6.337   1.670   3.836  2.1363  1.0352  0.5536
14041TIP3   OH263613   5.542   2.573  13.765  0.0516 -0.6791  0.1440
14041TIP3    H163614   5.607   2.506  13.786 -1.2658 -1.1684  3.1352
14041TIP3    H263615   5.492   2.535  13.693  1.3421 -1.4444 -0.3890
14042TIP3   OH263616   3.651   1.497   3.968 -0.0371 -0.0030 -0.2732
14042TIP3    H163617   3.589   1.487   4.040  2.1111 -1.8111  1.4688
14042TIP3    H263618   3.627   1.428   3.906 -1.8767  1.5435 -1.3915
14043TIP3   OH263619   6.657   0.662  11.946  0.0791 -0.2819 -0.1090
14043TIP3    H163620   6.740   0.695  11.982  0.7958 -2.1374  0.0192
14043TIP3    H263621   6.591   0.694  12.008  0.9299 -0.5358  0.9645
14044TIP3   OH263622   1.600   0.289   3.677  0.5098 -0.1261 -0.5611
14044TIP3    H163623   1.586   0.334   3.594  2.4905 -0.2743 -1.0108
14044TIP3    H263624   1.695   0.279   3.684  0.3332 -0.9730  1.2715
14045TIP3   OH263625   3.136   4.283  15.273 -0.1160  0.3717 -0.3141
14045TIP3    H163626   3.138   4.375  15.300 -2.1504 -0.1435  1.9112
14045TIP3    H263627   3.180   4.236  15.344  0.5347 -0.4455 -1.2335
14046TIP3   OH263628   5.051   3.430  16.890  0.3571  0.4114 -0.3939
14046TIP3    H163629   4.962   3.460  16.872 -1.6731 -4.0293  0.6869
14046TIP3    H263630   5.074   3.378  16.813  0.0816 -1.9751  1.0277
14047TIP3   OH263631   2.648   5.660   3.700  0.0967 -0.7334  0.4900
14047TIP3    H163632   2.681   5.620   3.780  0.5885 -0.7455  0.2822
14047TIP3    H263633   2.714   5.640   3.633 -1.2399 -2.4346 -0.4022
14048TIP3   OH263634   0.128   3.511  14.579  0.4659  0.1792  0.6024
14048TIP3    H163635   0.074   3.570  14.632  1.4608  2.6514 -0.9868
14048TIP3    H263636   0.064   3.459  14.530 -0.4388 -0.0005  1.9067
14049TIP3   OH263637   4.810   5.219   0.035 -0.0676  0.0892 -0.4031
14049TIP3    H163638   4.861   5.185   0.110 -0.6906 -0.2960 -0.1433
14049TIP3    H263639   4.767   5.297   0.070 -0.8353 -0.4271 -0.1705
14050TIP3   OH263640   1.478   5.188  13.602  0.2353 -0.5674 -0.5285
14050TIP3    H163641   1.559   5.178  13.551  0.7955  1.1984 -0.0593
14050TIP3    H263642   1.415   5.131  13.558  1.7114 -1.9934 -0.9065
14051TIP3   OH263643   0.402   5.197   4.645  0.3390 -0.0993  0.4796
14051TIP3    H163644   0.496   5.211   4.632  0.2398 -0.0075 -0.1726
14051TIP3    H263645   0.362   5.219   4.561 -0.1112 -1.6710  0.2446
14052TIP3   OH263646   5.903   2.805   5.003  0.7064  0.4197 -0.2483
14052TIP3    H163647   5.965   2.844   5.065  0.5047 -0.6693  0.6657
14052TIP3    H263648   5.852   2.879   4.970  1.8818  1.2187 -0.3409
14053TIP3   OH263649   3.135   6.681   1.633  0.6171 -0.5237  0.7988
14053TIP3    H163650   3.199   6.614   1.609  0.8951 -0.2971  0.9057
14053TIP3    H263651   3.067   6.633   1.681  0.3477 -0.8826  0.0867
14054TIP3   OH263652   2.392   6.583   0.954  0.2422  0.6896 -0.3764
14054TIP3    H163653   2.444   6.513   0.914  1.7640  1.2307  0.5785
14054TIP3    H263654   2.391   6.653   0.888  0.2364  0.4563 -0.6252
14055TIP3   OH263655   1.427   1.472  15.827  0.2168 -0.0048  0.1661
14055TIP3    H163656   1.384   1.548  15.787  0.9780  0.4753  0.2285
14055TIP3    H263657   1.372   1.449  15.901  1.3364  2.1692  1.7829
14056TIP3   OH263658   6.574   2.585   5.160 -0.1596 -0.0219 -0.3782
14056TIP3    H163659   6.558   2.526   5.087 -1.7836  0.0661 -0.1420
14056TIP3    H263660   6.669   2.597   5.162  0.3667 -3.4298  0.2141
14057TIP3   OH263661   5.196   4.202   1.010  0.3002 -0.3693 -0.3042
14057TIP3    H163662   5.234   4.142   1.075  2.0293  1.2984  0.3259
14057TIP3    H263663   5.205   4.288   1.050 -0.0274  0.5510 -2.1479
14058TIP3   OH263664   5.098   0.555  14.079  0.2159  0.0239  0.5086
14058TIP3    H163665   5.095   0.494  14.005 -1.3860  0.9824 -0.2623
14058TIP3    H263666   5.106   0.499  14.156 -0.8426 -1.1410 -0.1994
14059TIP3   OH263667   0.338   2.795   4.316 -0.2794 -0.0315 -0.5183
14059TIP3    H163668   0.313   2.728   4.252  1.0208 -1.6176  0.5487
14059TIP3    H263669   0.420   2.762   4.354 -1.5177  0.2805  2.7413
14060TIP3   OH263670   0.843   2.178  17.063 -0.3648 -0.0997  0.7449
14060TIP3    H163671   0.799   2.262  17.070 -0.3912 -0.2099  2.0608
14060TIP3    H263672   0.925   2.198  17.018 -0.8521  0.4354  0.0769
14061TIP3   OH263673   4.527   5.520   6.454  0.3127 -0.2054  0.0855
14061TIP3    H163674   4.453   5.468   6.423  0.6601 -0.4248 -0.3914
14061TIP3    H263675   4.591   5.515   6.383 -0.1530  1.9436 -0.5921
14062TIP3   OH263676   4.852   5.945  16.696 -0.4390 -0.1237 -0.6187
14062TIP3    H163677   4.790   5.900  16.754 -1.4756  0.8093 -0.9620
14062TIP3    H263678   4.923   5.883  16.684 -1.3363 -1.2530 -0.2514
14063TIP3   OH263679   1.110   6.213   3.359 -0.1583 -0.0765 -0.1023
14063TIP3    H163680   1.086   6.218   3.267  0.3510  0.4244 -0.2161
14063TIP3    H263681   1.116   6.119   3.378  0.8860 -0.1758 -0.8855
14064TIP3   OH263682   5.041   0.863   0.026 -0.0052  0.0677 -0.0500
14064TIP3    H163683   5.061   0.783  -0.022 -2.5581  0.7886 -2.6044
14064TIP3    H263684   5.115   0.921   0.010  1.0899 -1.1689  0.4413
14065TIP3   OH263685   5.704   2.801  15.149  0.1786  0.6603 -0.1440
14065TIP3    H163686   5.616   2.822  15.118  0.9401  2.5099 -1.2645
14065TIP3    H263687   5.712   2.849  15.231 -0.3593 -0.7773  0.7834
14066TIP3   OH263688   2.895   2.992   2.728  0.4275 -0.1175 -0.2348
14066TIP3    H163689   2.974   3.026   2.685  0.9356 -0.6951  0.2319
14066TIP3    H263690   2.927   2.949   2.807 -0.4334  0.3191  0.3660
14067TIP3   OH263691   2.493   0.721  11.615 -0.1444 -0.0148  0.1653
14067TIP3    H163692   2.497   0.690  11.525 -0.1786  0.4315  0.0050
14067TIP3    H263693   2.482   0.816  11.607  0.5440  0.1130  0.6399
14068TIP3   OH263694   1.849   2.883   4.201  0.0675  0.3804 -0.4071
14068TIP3    H163695   1.866   2.816   4.135 -0.7907  0.0731 -0.3300
14068TIP3    H263696   1.753   2.887   4.207  0.0970  1.7336 -0.5336
14069TIP3   OH263697   1.096   3.427  14.117  0.0667  0.2433 -0.1241
14069TIP3    H163698   1.063   3.517  14.117  0.0122  0.2770 -2.5007
14069TIP3    H263699   1.023   3.374  14.088 -0.0856 -0.7216  1.8259
14070TIP3   OH263700   3.159   6.749  12.947  0.1727  0.0902 -0.1115
14070TIP3    H163701   3.215   6.678  12.915  0.4398 -0.7841  2.1389
14070TIP3    H263702   3.142   6.803  12.869  1.9496 -1.0789 -1.3846
14071TIP3   OH263703   0.771   2.104   2.967 -0.0681  0.0341  0.2903
14071TIP3    H163704   0.862   2.088   2.990 -0.0342  2.1405  1.8977
14071TIP3    H263705   0.769   2.195   2.938 -1.6934  0.1226  0.5583
14072TIP3   OH263706   0.269   6.367  14.381  0.1547  0.3157 -0.3183
14072TIP3    H163707   0.200   6.336  14.440 -0.6938  0.9204 -0.9664
14072TIP3    H263708   0.301   6.288  14.338 -0.4070  0.0679 -0.2900
14073TIP3   OH263709   0.926   2.975  16.957  0.2406 -0.0524  0.0926
14073TIP3    H163710   0.970   2.894  16.983  1.7145  1.0176  1.0751
14073TIP3    H263711   0.987   3.044  16.981 -0.9815  1.3666 -0.7361
14074TIP3   OH263712   2.955   2.078  16.595 -0.2411 -0.0294 -0.0438
14074TIP3    H163713   2.867   2.114  16.582 -0.4987 -0.2542  0.9913
14074TIP3    H263714   3.009   2.121  16.528 -1.0505  0.4147 -0.4260
14075TIP3   OH263715   3.993   6.023  12.996 -0.1651  0.4304 -0.3875
14075TIP3    H163716   3.936   6.096  13.019  0.3214  1.9535 -3.4789
14075TIP3    H263717   4.076   6.042  13.040 -0.1178  1.6228 -0.9806
14076TIP3   OH263718   0.253   2.408   0.828 -0.1352  0.6039 -0.1235
14076TIP3    H163719   0.185   2.434   0.765 -0.4057  0.3849  0.0732
14076TIP3    H263720   0.232   2.316   0.848 -1.0717  1.1392  1.5755
14077TIP3   OH263721   0.299   2.744   0.542 -1.0691 -0.2731 -0.1731
14077TIP3    H163722   0.211   2.757   0.507 -1.0826 -0.1550 -0.0945
14077TIP3    H263723   0.313   2.819   0.600 -0.8735 -0.2314 -0.2747
14078TIP3   OH263724   2.187   1.449  17.065 -0.0238  0.0055 -0.0419
14078TIP3    H163725   2.265   1.394  17.074 -0.7462 -0.8089  1.7427
14078TIP3    H263726   2.116   1.386  17.049 -0.5440  0.6218 -0.1727
14079TIP3   OH263727   5.479   6.659  15.743  0.1738 -0.5732 -0.3468
14079TIP3    H163728   5.429   6.642  15.663  0.2624 -1.8742 -0.1475
14079TIP3    H263729   5.565   6.686  15.713 -0.4489  1.1725 -0.6904
14080TIP3   OH263730   2.030   3.792  11.545 -0.4235  0.4266  0.9307
14080TIP3    H163731   2.013   3.699  11.556 -0.5335  0.2755 -0.3200
14080TIP3    H263732   2.118   3.796  11.507  0.3129  0.9383  2.6242
14081TIP3   OH263733   1.014   5.208   1.940  0.3211  0.0613  0.2206
14081TIP3    H163734   1.071   5.139   1.973 -0.7313 -0.3830  1.2124
14081TIP3    H263735   1.022   5.279   2.004 -0.2869 -0.0397  0.4147
14082TIP3   OH263736   0.708   6.706   1.538  0.4805  0.0875  0.0883
14082TIP3    H163737   0.652   6.708   1.616  0.0270 -1.7145 -0.1558
14082TIP3    H263738   0.795   6.685   1.572  0.9290  2.1680  0.3843
14083TIP3   OH263739   3.496   0.835  16.911 -0.0690  0.1580  0.3549
14083TIP3    H163740   3.523   0.927  16.908 -0.6476  0.3970  1.5745
14083TIP3    H263741   3.556   0.790  16.852  1.3302  1.0600  1.0278
14084TIP3   OH263742   3.721   6.583   4.760  0.7530 -0.0347 -0.5115
14084TIP3    H163743   3.693   6.653   4.700 -0.3598 -1.4848 -1.7468
14084TIP3    H263744   3.763   6.519   4.703  0.9347 -0.7937  0.4717
14085TIP3   OH263745   5.302   4.012  13.194 -0.3567  0.1755  0.5011
14085TIP3    H163746   5.270   4.060  13.271  0.3644 -0.8096  1.4507
14085TIP3    H263747   5.358   3.943  13.231 -0.9584 -1.0763 -0.8552
14086TIP3   OH263748   3.378   3.850  11.545  0.0735 -0.6191  0.0883
14086TIP3    H163749   3.377   3.805  11.460  0.8390 -0.0510 -0.2303
14086TIP3    H263750   3.395   3.780  11.608  1.8483 -0.7384 -0.4608
14087TIP3   OH263751   1.842   4.319  16.896 -0.3367 -0.0497  0.0792
14087TIP3    H163752   1.909   4.287  16.837  2.4966  1.9489  1.9550
14087TIP3    H263753   1.811   4.401  16.856  0.9061  0.8174  0.8354
14088TIP3   OH263754   4.372   1.542   2.805 -0.7495  0.1496 -0.4743
14088TIP3    H163755   4.339   1.455   2.829  0.3093 -0.3711 -0.8035
14088TIP3    H263756   4.466   1.527   2.788 -0.2611  1.6140  0.7733
14089TIP3   OH263757   0.031   3.301  15.265 -0.2475 -0.2754 -0.5864
14089TIP3    H163758  -0.057   3.336  15.256 -0.4183 -0.2726  0.7846
14089TIP3    H263759   0.082   3.374  15.301  0.1409 -0.4908 -0.6974
14090TIP3   OH263760   5.981   2.457   0.657 -0.5721 -0.2555 -0.1074
14090TIP3    H163761   6.053   2.509   0.623  2.0653 -2.7607  1.2387
14090TIP3    H263762   5.953   2.404   0.582 -1.5035  1.1324 -0.7869
14091TIP3   OH263763   3.319   2.398   5.750 -0.0233 -0.1178 -0.6159
14091TIP3    H163764   3.376   2.324   5.772 -0.2426  0.1934  1.1025
14091TIP3    H263765   3.272   2.369   5.672  1.9018 -0.6825 -1.6378
14092TIP3   OH263766   1.955   2.007  11.901 -0.6088  0.1707 -0.3175
14092TIP3    H163767   1.893   1.971  11.838 -1.5576 -0.1992  0.8032
14092TIP3    H263768   1.935   2.101  11.903  0.2656  0.4074 -1.4632
14093TIP3   OH263769   4.640   5.817   4.821  0.1142 -0.0780  0.1564
14093TIP3    H163770   4.697   5.894   4.824 -2.0818  1.6255  0.1396
14093TIP3    H263771   4.558   5.846   4.859 -1.2312 -2.0451 -1.0607
14094TIP3   OH263772   3.794   0.864   1.328  0.0388 -0.0364  0.0170
14094TIP3    H163773   3.843   0.840   1.406 -0.5937 -0.5051  0.2819
14094TIP3    H263774   3.759   0.951   1.347  0.6385  0.2388 -0.1173
14095TIP3   OH263775   2.439   2.520   1.386 -0.4340 -0.1689  0.5525
14095TIP3    H163776   2.522   2.479   1.411 -0.6684 -1.1510 -0.2290
14095TIP3    H263777   2.401   2.461   1.322 -1.2433  0.8140  0.0941
14096TIP3   OH263778   5.915   3.766  11.978  0.3009 -0.2511 -0.5728
14096TIP3    H163779   5.860   3.809  11.912  1.2734 -1.6843 -2.3898
14096TIP3    H263780   5.855   3.750  12.051 -0.5791  2.2529 -0.6264
14097TIP3   OH263781   5.442   0.506  13.762  0.2822 -0.0897  0.0461
14097TIP3    H163782   5.519   0.545  13.721  1.5316 -1.0800  1.3299
14097TIP3    H263783   5.452   0.412  13.745 -0.0041 -0.3445  1.2430
14098TIP3   OH263784   5.855   4.546   0.883 -0.5342 -0.1348 -0.2236
14098TIP3    H163785   5.890   4.568   0.970 -0.9096 -0.7201  0.0862
14098TIP3    H263786   5.931   4.550   0.825 -0.3034  0.4052  0.1049
14099TIP3   OH263787   4.426   1.947   4.090 -0.0009 -0.8477  0.7896
14099TIP3    H163788   4.383   1.991   4.164 -0.3282  1.8954 -0.8985
14099TIP3    H263789   4.397   1.995   4.013  3.0442 -1.3425 -0.8271
14100TIP3   OH263790   5.011   4.140  13.850  0.4298  0.0471 -0.4201
14100TIP3    H163791   4.943   4.204  13.872 -0.1308 -1.0510  1.1989
14100TIP3    H263792   5.005   4.073  13.919  2.5360 -0.5676 -0.7561
14101TIP3   OH263793   6.193   0.590  15.781  0.2035  1.0270 -0.2013
14101TIP3    H163794   6.220   0.506  15.745 -0.4873  1.2017 -1.1793
14101TIP3    H263795   6.108   0.607  15.740 -1.4940  0.4352  2.7852
14102TIP3   OH263796   5.321   1.117  11.928  0.5098  0.1283  0.7703
14102TIP3    H163797   5.237   1.155  11.953 -0.0362  0.7635 -1.7359
14102TIP3    H263798   5.382   1.191  11.929 -0.1844  0.8925 -2.4521
14103TIP3   OH263799   4.223   1.863   5.467  0.1765 -0.2454  0.4440
14103TIP3    H163800   4.275   1.924   5.520  0.8860 -1.7857  1.6205
14103TIP3    H263801   4.136   1.865   5.505  0.5037 -0.8086  1.2670
14104TIP3   OH263802   3.605   0.847   6.512 -0.5572  0.8224 -0.2002
14104TIP3    H163803   3.664   0.806   6.574 -0.5087 -1.1366 -1.4676
14104TIP3    H263804   3.622   0.941   6.522  0.6749  0.4731  1.4717
14105TIP3   OH263805   0.746   6.493  13.395 -0.0590 -0.1607  0.3677
14105TIP3    H163806   0.807   6.455  13.331 -0.5924  0.3003 -0.4318
14105TIP3    H263807   0.764   6.445  13.476 -0.4966 -1.9433 -0.5255
14106TIP3   OH263808   4.532   2.226  16.612  0.3715  0.1317 -0.1038
14106TIP3    H163809   4.465   2.253  16.549  0.8708  0.4701 -0.5074
14106TIP3    H263810   4.611   2.215  16.558  1.4432  2.7648  0.7444
14107TIP3   OH263811   4.803   3.238  14.567 -0.3830  0.3538  0.2560
14107TIP3    H163812   4.713   3.220  14.538  0.2934 -3.2093 -0.0703
14107TIP3    H263813   4.845   3.277  14.491 -0.6905 -1.6985 -1.0702
14108TIP3   OH263814   6.823   3.664   3.712 -0.0918 -0.1806  0.0103
14108TIP3    H163815   6.901   3.689   3.763 -1.0387  0.4342  1.2231
14108TIP3    H263816   6.845   3.579   3.675  1.0290 -0.1814  0.6331
14109TIP3   OH263817   4.810   3.633   2.465 -0.1552 -0.0133  0.0662
14109TIP3    H163818   4.737   3.598   2.517  0.0580  0.3698  0.6318
14109TIP3    H263819   4.875   3.657   2.530  0.6492 -0.7312 -0.4540
14110TIP3   OH263820   1.571   4.645  17.088 -0.2715  0.0423 -0.0096
14110TIP3    H163821   1.570   4.560  17.044 -1.4958  0.0982 -0.1378
14110TIP3    H263822   1.499   4.694  17.048 -0.0759  0.8602  0.6002
14111TIP3   OH263823   3.719   2.696  10.317  0.0295  0.0262  0.2616
14111TIP3    H163824   3.741   2.653  10.400  0.5855  0.4142  0.3242
14111TIP3    H263825   3.751   2.785  10.328  1.1551 -0.2189 -0.7943
14112TIP3   OH263826   0.494   6.755  12.809  1.0033 -0.3241  0.0804
14112TIP3    H163827   0.462   6.837  12.847  2.8297  0.2727  0.4448
14112TIP3    H263828   0.416   6.699  12.803 -0.0606  0.9896  0.9814
14113TIP3   OH263829   2.207   0.712   6.293  0.3872 -0.4158  1.0440
14113TIP3    H163830   2.149   0.655   6.343 -0.6761 -0.9127 -0.6682
14113TIP3    H263831   2.264   0.652   6.245  0.4046  0.0027  0.5360
14114TIP3   OH263832   2.603   2.063   2.794  0.1361  0.2938 -0.4164
14114TIP3    H163833   2.662   1.990   2.815 -0.6252  0.3820  2.5251
14114TIP3    H263834   2.541   2.065   2.868 -1.4212  2.3621 -1.6755
14115TIP3   OH263835   6.266   2.754   3.188  0.5540  0.6350 -0.6510
14115TIP3    H163836   6.311   2.832   3.218  1.3270 -0.3564  0.9071
14115TIP3    H263837   6.335   2.689   3.175 -0.2149 -0.2638 -0.3670
14116TIP3   OH263838   3.277   0.910  13.806 -0.4197 -0.1601  0.9416
14116TIP3    H163839   3.321   0.942  13.885 -0.7651  0.1892  0.9941
14116TIP3    H263840   3.309   0.967  13.737 -0.7984  0.1024  0.9818
14117TIP3   OH263841   4.274   4.840   1.032  0.1246  0.1676  0.0900
14117TIP3    H163842   4.245   4.931   1.023 -0.2786  0.1083  0.7658
14117TIP3    H263843   4.289   4.811   0.942  0.9928  1.1372 -0.1026
14118TIP3   OH263844   3.196   1.487   4.719 -0.2488  0.0254 -0.0248
14118TIP3    H163845   3.221   1.569   4.762 -1.4606 -0.0761  0.9284
14118TIP3    H263846   3.103   1.477   4.739 -0.7180 -0.3722 -2.1377
14119TIP3   OH263847   2.803   6.663  13.332 -0.3923 -0.1762  0.1795
14119TIP3    H163848   2.861   6.633  13.402 -1.8306 -1.3194  0.9472
14119TIP3    H263849   2.715   6.645  13.365 -1.1245 -2.0471 -2.4622
14120TIP3   OH263850   2.943   6.219   3.730 -0.1920 -0.9074 -0.1867
14120TIP3    H163851   2.886   6.196   3.656 -0.3898 -0.1026 -0.2850
14120TIP3    H263852   2.883   6.247   3.798  0.1378  1.7455 -0.9034
14121TIP3   OH263853   3.530   5.303   2.283 -0.1826  0.1502 -0.3170
14121TIP3    H163854   3.601   5.240   2.268  0.5868  1.0671 -0.6137
14121TIP3    H263855   3.572   5.378   2.324 -0.9862  0.7141 -0.4926
14122TIP3   OH263856   0.122   3.829  13.883 -0.0807  0.0449  0.3692
14122TIP3    H163857   0.115   3.743  13.841  1.8009 -0.3350  0.7614
14122TIP3    H263858   0.211   3.832  13.916 -0.2406  2.0080  0.7109
14123TIP3   OH263859   3.850   2.623   1.499  0.5781  0.2359 -0.1422
14123TIP3    H163860   3.860   2.659   1.411  0.9548 -0.8735 -0.5727
14123TIP3    H263861   3.927   2.567   1.511  0.0028 -0.4381  0.4897
14124TIP3   OH263862   3.965   1.915  11.467 -0.4535  0.8821  0.0031
14124TIP3    H163863   3.900   1.908  11.397 -0.3285 -0.9591  0.0187
14124TIP3    H263864   4.048   1.931  11.422 -0.5066  0.5480 -0.2159
14125TIP3   OH263865   0.809   4.083   2.067  0.1673 -0.6263 -0.5538
14125TIP3    H163866   0.896   4.080   2.026  0.6153  2.0479  0.0261
14125TIP3    H263867   0.750   4.107   1.995  0.4661  0.9192 -0.3093
14126TIP3   OH263868   6.272   5.994   0.089 -0.4144  0.3053  0.2049
14126TIP3    H163869   6.352   5.944   0.075 -0.5336 -0.3935  1.7784
14126TIP3    H263870   6.303   6.077   0.126 -0.2760  1.1111 -1.6143
14127TIP3   OH263871   5.108   6.597   3.957 -0.2224 -0.1308  0.6215
14127TIP3    H163872   5.175   6.666   3.960  0.2241 -0.5529  0.4938
14127TIP3    H263873   5.139   6.530   4.018 -0.1161 -0.6846 -0.0152
14128TIP3   OH263874   2.545   4.925   1.993 -0.0325 -0.3165 -0.5423
14128TIP3    H163875   2.516   4.960   1.909 -0.5115 -1.1214 -0.7236
14128TIP3    H263876   2.640   4.919   1.985 -0.0831 -0.4625 -1.0554
14129TIP3   OH263877   6.809   6.228   3.588  0.1534  0.7957  0.0325
14129TIP3    H163878   6.898   6.256   3.567  0.3064  0.5829  0.3946
14129TIP3    H263879   6.756   6.307   3.575  0.5399  1.1829  0.7596
14130TIP3   OH263880   4.071   5.670  12.258 -0.1266 -0.0478  0.6075
14130TIP3    H163881   4.082   5.765  12.264 -1.5615  0.1035  1.2750
14130TIP3    H263882   3.991   5.658  12.207 -1.0109 -0.8123  2.0888
14131TIP3   OH263883   6.040   3.470   3.619 -0.3345  0.2941 -0.6091
14131TIP3    H163884   6.030   3.426   3.535 -0.6021 -0.4665 -0.1912
14131TIP3    H263885   6.119   3.523   3.610 -0.2799  0.1001 -1.2880
14132TIP3   OH263886   2.654   2.715  12.840  0.2480 -0.0122  0.2043
14132TIP3    H163887   2.589   2.667  12.789 -0.9431 -0.9195  2.4320
14132TIP3    H263888   2.734   2.663  12.831  0.3337  0.3490 -1.4122
14133TIP3   OH263889   0.516   5.659   5.433  0.2070 -0.1585  0.3767
14133TIP3    H163890   0.588   5.614   5.477  1.4680  1.0335 -0.3890
14133TIP3    H263891   0.544   5.750   5.429 -0.9763  0.1801 -0.6861
14134TIP3   OH263892   4.891   6.590  14.299  0.5783  0.3112  0.2513
14134TIP3    H163893   4.805   6.567  14.332  0.3229 -1.4467 -1.4517
14134TIP3    H263894   4.877   6.669  14.247 -0.0763 -0.1095 -0.2274
14135TIP3   OH263895   0.928   2.129  14.732  0.5752  0.0058 -0.0250
14135TIP3    H163896   0.997   2.181  14.690  0.3912  1.5339  1.4478
14135TIP3    H263897   0.958   2.117  14.822 -0.6288 -0.1322  0.3801
14136TIP3   OH263898   3.098   0.455   2.241  0.4854 -0.3106  0.3725
14136TIP3    H163899   3.107   0.533   2.186 -0.2993  1.0676  2.0914
14136TIP3    H263900   3.183   0.412   2.236  1.1244  0.9594 -0.1903
14137TIP3   OH263901   3.278   0.492   5.021  0.3922 -0.1317 -0.2171
14137TIP3    H163902   3.199   0.443   4.995  0.0305 -0.3713  1.2860
14137TIP3    H263903   3.244   0.571   5.062  0.9693  0.3809 -0.7095
14138TIP3   OH263904   2.659   1.652  16.499  0.4032 -0.6213  0.3411
14138TIP3    H163905   2.655   1.611  16.412 -1.7311 -0.5126  0.3331
14138TIP3    H263906   2.610   1.592  16.555 -1.8401  1.2700  0.5640
14139TIP3   OH263907   0.910   6.184  13.421  0.2408 -0.0465  0.5395
14139TIP3    H163908   0.842   6.118  13.436  0.4973 -0.3350  0.4467
14139TIP3    H263909   0.993   6.135  13.425  0.3420 -0.2249 -2.0857
14140TIP3   OH263910   5.298   3.310   0.197  0.4835  0.9686  0.3153
14140TIP3    H163911   5.221   3.302   0.141  1.2295  0.4639 -0.6630
14140TIP3    H263912   5.354   3.236   0.171  0.5668  0.3183  2.1708
14141TIP3   OH263913   0.722   5.528   4.895 -0.0385 -0.2655 -0.1261
14141TIP3    H163914   0.740   5.514   4.988  0.0323  0.4180 -0.0309
14141TIP3    H263915   0.630   5.504   4.884 -0.3243  0.5961  0.3258
14142TIP3   OH263916   2.992   3.172  14.574 -0.2835 -0.3117  0.0967
14142TIP3    H163917   3.028   3.250  14.616  0.0876 -0.9179  0.9237
14142TIP3    H263918   2.982   3.108  14.645 -4.4394  0.2579  0.2741
14143TIP3   OH263919   3.987   0.171  14.949 -0.2105  0.1848 -0.5208
14143TIP3    H163920   3.967   0.161  14.856 -0.8472  0.3714 -0.4068
14143TIP3    H263921   3.903   0.191  14.990  0.2993  1.6599 -0.1249
14144TIP3   OH263922   0.730   5.304   0.350  0.3222 -0.0108 -0.1624
14144TIP3    H163923   0.669   5.242   0.391  0.2247  1.6344  2.3879
14144TIP3    H263924   0.814   5.286   0.392  1.6454 -1.8842 -3.2494
14145TIP3   OH263925   4.570   4.677  16.260  0.1598  0.0701  0.3715
14145TIP3    H163926   4.482   4.661  16.225 -0.1741  1.2122  0.6519
14145TIP3    H263927   4.629   4.639  16.195 -0.5329 -1.2658  0.4747
14146TIP3   OH263928   2.148   0.418   2.696  0.1428  0.0686  0.3452
14146TIP3    H163929   2.168   0.505   2.730  1.9385 -0.8713  1.8796
14146TIP3    H263930   2.095   0.377   2.766  0.2723 -0.4540  0.1423
14147TIP3   OH263931   3.473   1.298  12.441  0.4982 -0.1005 -0.3381
14147TIP3    H163932   3.534   1.323  12.371  0.7101 -0.0782 -0.1459
14147TIP3    H263933   3.428   1.220  12.407 -1.7565  1.7233 -1.8970
14148TIP3   OH263934   4.351   3.291   3.336  0.3281  0.5431  0.5253
14148TIP3    H163935   4.299   3.232   3.281  0.6388  2.2058 -1.7252
14148TIP3    H263936   4.441   3.263   3.321  0.3284  0.0148  1.4704
14149TIP3   OH263937   5.275   1.137   5.220  0.0046  0.2748 -0.4777
14149TIP3    H163938   5.312   1.076   5.283  3.2811  1.7500 -0.7692
14149TIP3    H263939   5.310   1.110   5.136  1.9400  2.6484 -0.5586
14150TIP3   OH263940   6.488   4.635  16.935 -0.4399  0.0285  0.8425
14150TIP3    H163941   6.478   4.637  17.030 -0.3658  1.9053  0.8529
14150TIP3    H263942   6.527   4.720  16.914 -1.3027  0.0141 -0.9489
14151TIP3   OH263943   3.466   3.540   2.758 -0.4138  0.2610  0.2621
14151TIP3    H163944   3.471   3.633   2.778  0.1110 -0.0441  1.6354
14151TIP3    H263945   3.557   3.510   2.758 -0.5657 -0.2236 -0.3670
14152TIP3   OH263946   1.516   5.436  16.148  0.2996  0.1640  0.2521
14152TIP3    H163947   1.505   5.368  16.214 -0.6110  0.9119  0.9172
14152TIP3    H263948   1.464   5.406  16.073  1.1000 -0.5503 -0.0255
14153TIP3   OH263949   0.617   1.486   0.766  0.2854  0.7302  0.1879
14153TIP3    H163950   0.617   1.564   0.710  0.7085 -0.1352 -1.0688
14153TIP3    H263951   0.569   1.513   0.844 -0.3740  1.9734 -0.6005
14154TIP3   OH263952   1.659   0.269   2.932  0.3320  0.2433  0.0897
14154TIP3    H163953   1.657   0.174   2.917 -0.5965 -0.5644  4.0733
14154TIP3    H263954   1.582   0.302   2.886  0.7479 -0.8572 -1.4770
14155TIP3   OH263955   4.747   6.729  16.772  0.3193  0.4084 -0.5521
14155TIP3    H163956   4.779   6.675  16.700 -0.3805 -0.5881 -0.1208
14155TIP3    H263957   4.826   6.770  16.807  0.8550 -0.3128 -0.8954
14156TIP3   OH263958   1.237   3.483   0.795 -0.1359 -0.1299 -1.1383
14156TIP3    H163959   1.231   3.573   0.825 -1.9971 -0.9712  1.3627
14156TIP3    H263960   1.329   3.460   0.807 -0.1056  0.7289  0.5417
14157TIP3   OH263961   2.463   6.634   0.442  0.5605  0.4655  0.3181
14157TIP3    H163962   2.558   6.636   0.447  0.5519 -0.2260  1.0485
14157TIP3    H263963   2.442   6.541   0.429  0.0450  0.8023 -1.4881
14158TIP3   OH263964   5.090   0.737  11.603  0.7102 -0.3358 -0.1377
14158TIP3    H163965   5.014   0.787  11.635  2.1449  2.2907 -0.5470
14158TIP3    H263966   5.073   0.724  11.510 -0.2600 -1.8563  0.2120
14159TIP3   OH263967   6.184   2.152  16.494 -0.3658  0.4340 -0.2925
14159TIP3    H163968   6.215   2.133  16.583  0.8065  1.8532 -0.3494
14159TIP3    H263969   6.261   2.138  16.438 -0.6011  1.2309 -0.8352
14160TIP3   OH263970   5.085   6.410   0.589 -0.2800  0.4046 -0.8456
14160TIP3    H163971   5.168   6.453   0.568 -1.1633  3.4114  1.1662
14160TIP3    H263972   5.065   6.357   0.512  2.6884  0.8035 -2.0408
14161TIP3   OH263973   5.130   4.009   5.431 -0.2131 -0.3358 -0.1910
14161TIP3    H163974   5.134   4.078   5.498  1.3906 -1.1624  0.6435
14161TIP3    H263975   5.127   3.927   5.481 -1.3729 -0.9179 -1.1627
14162TIP3   OH263976   3.261   2.138   3.851 -0.4270  0.0880 -0.5098
14162TIP3    H163977   3.208   2.194   3.794  0.1163  1.9486  0.7369
14162TIP3    H263978   3.278   2.191   3.929 -0.5637 -2.1153  1.1307
14163TIP3   OH263979   0.455   3.115   2.730 -0.5459  0.3173  0.0008
14163TIP3    H163980   0.412   3.200   2.735 -1.8196 -0.2934 -0.0059
14163TIP3    H263981   0.439   3.085   2.640 -0.9072 -0.3062  0.2604
14164TIP3   OH263982   6.481   0.126   3.397 -0.1440 -0.0467  0.2656
14164TIP3    H163983   6.525   0.174   3.327  1.2700 -0.5633  0.7683
14164TIP3    H263984   6.483   0.035   3.368  0.9464 -0.3415  1.1936
14165TIP3   OH263985   5.798   5.560  12.225 -0.0538 -0.0501 -0.5613
14165TIP3    H163986   5.833   5.634  12.274  0.6002 -0.1336 -0.8953
14165TIP3    H263987   5.722   5.595  12.179  1.2932  0.8964 -2.1653
14166TIP3   OH263988   5.745   0.174   0.549  0.2380  0.0027 -0.3360
14166TIP3    H163989   5.774   0.096   0.597 -0.5640 -0.1070 -0.0067
14166TIP3    H263990   5.691   0.139   0.479 -0.9516  0.2927  0.4065
14167TIP3   OH263991   0.386   3.840  13.949 -0.1790 -0.1723  0.9302
14167TIP3    H163992   0.431   3.919  13.921  1.7792 -1.3511  0.5573
14167TIP3    H263993   0.423   3.821  14.035  0.1297 -1.2031  0.5859
14168TIP3   OH263994   1.651   0.497   3.227 -0.2837  0.3793  0.6262
14168TIP3    H163995   1.573   0.492   3.172 -0.1595 -0.2121  0.4873
14168TIP3    H263996   1.681   0.587   3.220 -0.7596  0.5202  0.4075
14169TIP3   OH263997   5.452   1.812   5.227 -0.4657  0.6247 -0.4298
14169TIP3    H163998   5.406   1.830   5.145  0.9569  1.4254 -1.0853
14169TIP3    H263999   5.501   1.732   5.210 -1.0564  0.1525  0.0394
14170TIP3   OH264000   0.824   1.599   1.665  0.0843 -0.1583 -0.2842
14170TIP3    H164001   0.888   1.596   1.594 -0.3443 -2.3644 -0.6413
14170TIP3    H264002   0.739   1.594   1.622 -0.2354  0.0435  0.3078
14171TIP3   OH264003   3.166   5.230  16.496  0.0188 -0.5093 -0.0613
14171TIP3    H164004   3.209   5.148  16.470 -1.0098 -1.4849  1.1550
14171TIP3    H264005   3.174   5.231  16.591  1.1062  1.4697 -0.1319
14172TIP3   OH264006   1.278   5.703  16.079  0.0909  0.4641 -0.1255
14172TIP3    H164007   1.302   5.617  16.044  0.4607  0.2231  0.6913
14172TIP3    H264008   1.307   5.700  16.170 -0.1395  1.3599 -0.0173
14173TIP3   OH264009   2.802   2.878   0.501  0.4002  0.6224 -0.2457
14173TIP3    H164010   2.895   2.898   0.492  0.1614  1.8806 -0.0789
14173TIP3    H264011   2.787   2.808   0.437  1.6367 -0.2303  0.3572
14174TIP3   OH264012   1.678   1.680  11.469 -0.6746  0.5908 -0.5130
14174TIP3    H164013   1.769   1.654  11.456 -1.2987 -1.4543 -1.2724
14174TIP3    H264014   1.664   1.753  11.408 -0.0392 -0.3457 -1.8134
14175TIP3   OH264015   1.186   4.637   4.029  0.2071  0.2578  0.1919
14175TIP3    H164016   1.230   4.722   4.027 -2.5136  1.8704 -3.3818
14175TIP3    H264017   1.111   4.649   4.088 -0.1705  0.3779 -0.3034
14176TIP3   OH264018   4.457   3.837   1.510  0.8838  0.0005  0.3104
14176TIP3    H164019   4.490   3.747   1.516 -2.7404 -1.6726 -1.3918
14176TIP3    H264020   4.490   3.869   1.426  0.1529 -0.7585 -0.2832
14177TIP3   OH264021   4.066   6.712   6.554  0.9174 -0.2848  0.0764
14177TIP3    H164022   4.084   6.661   6.633 -1.7455  0.0236  1.0098
14177TIP3    H264023   4.011   6.654   6.501  0.9750  0.2582 -0.5860
14178TIP3   OH264024   3.947   2.502   4.838 -0.3868  0.0944  0.7369
14178TIP3    H164025   3.856   2.520   4.862 -0.4178 -0.6553  1.1993
14178TIP3    H264026   3.977   2.583   4.796 -1.7696 -0.2057 -0.9510
14179TIP3   OH264027   3.415   5.259  14.035  0.4961 -0.5406 -0.0983
14179TIP3    H164028   3.424   5.281  14.127 -1.3691 -2.2083  0.5568
14179TIP3    H264029   3.320   5.251  14.022  0.5952  1.1187 -2.5527
14180TIP3   OH264030   1.238   5.376   2.971  0.3343  0.3060 -0.4482
14180TIP3    H164031   1.285   5.304   3.014 -0.8531  1.3198  2.8452
14180TIP3    H264032   1.296   5.404   2.900  2.0444 -2.0796 -0.1052
14181TIP3   OH264033   3.994   3.697  15.016 -0.3266  0.2752 -0.8522
14181TIP3    H164034   3.919   3.646  14.985  0.5129 -0.7387 -1.2434
14181TIP3    H264035   4.069   3.639  15.007  0.4902  1.1991 -0.2514
14182TIP3   OH264036   3.416   1.654   0.382 -0.3267 -0.1524 -0.0197
14182TIP3    H164037   3.397   1.560   0.374 -2.6586  0.1892  0.8512
14182TIP3    H264038   3.423   1.669   0.476  1.1898  0.3870 -0.1909
14183TIP3   OH264039   2.485   5.911   3.118  0.0167 -0.0495  0.1821
14183TIP3    H164040   2.457   6.002   3.123 -1.3801 -0.3538 -1.2025
14183TIP3    H264041   2.445   5.878   3.037  0.5460 -1.8685  0.6141
14184TIP3   OH264042   6.770   0.088  11.739  0.7942  0.0494  0.3133
14184TIP3    H164043   6.730   0.002  11.754 -2.8576  1.2650 -1.4083
14184TIP3    H264044   6.784   0.092  11.645  1.5430  1.1122  0.4565
14185TIP3   OH264045   1.541   4.723   3.760 -0.4872 -0.1191 -0.0480
14185TIP3    H164046   1.469   4.669   3.791  0.2070 -1.4652 -0.6414
14185TIP3    H264047   1.503   4.778   3.692 -1.3612  0.6645  1.0524
14186TIP3   OH264048   4.086   0.911   3.278 -0.1494  0.1057 -0.0864
14186TIP3    H164049   4.133   0.961   3.344 -0.3830  1.0913 -0.6432
14186TIP3    H264050   4.018   0.970   3.247  0.2526 -0.1421 -1.5411
14187TIP3   OH264051   4.794   6.222  12.424  0.1190  0.5272 -0.0870
14187TIP3    H164052   4.871   6.210  12.478 -0.7780  0.6981  1.2828
14187TIP3    H264053   4.723   6.183  12.474 -0.9374  1.7188 -0.5859
14188TIP3   OH264054   5.572   0.363   2.591 -0.2529  0.4496  0.7805
14188TIP3    H164055   5.654   0.317   2.609 -1.1007 -0.5706  2.3539
14188TIP3    H264056   5.539   0.322   2.511  0.5496  0.5548  0.3871
14189TIP3   OH264057   6.341   1.442  15.156 -0.4702 -0.4989 -0.1447
14189TIP3    H164058   6.338   1.377  15.086 -2.5931 -0.0801 -0.4936
14189TIP3    H264059   6.370   1.523  15.112  1.1305 -0.9071  0.0884
14190TIP3   OH264060   2.957   6.442  16.425 -0.5927 -0.0442  0.1404
14190TIP3    H164061   2.964   6.532  16.393  1.8704 -0.1506  0.1957
14190TIP3    H264062   2.947   6.451  16.520 -1.5085  0.1628  0.0353
14191TIP3   OH264063   1.801   4.632  15.062 -0.7287  0.4534  0.7982
14191TIP3    H164064   1.796   4.574  14.987  0.1785  1.6588 -0.2224
14191TIP3    H264065   1.831   4.716  15.027 -1.0355  1.2788  2.3776
14192TIP3   OH264066   3.469   0.824   4.507  0.2352 -0.2547 -0.0590
14192TIP3    H164067   3.530   0.759   4.540  0.9426  0.8811  0.9409
14192TIP3    H264068   3.475   0.897   4.569 -2.5590 -0.3195  0.4115
14193TIP3   OH264069   3.713   4.658  16.332 -0.1625  0.0954  0.2504
14193TIP3    H164070   3.720   4.574  16.285 -1.0788  0.1751 -0.0311
14193TIP3    H264071   3.671   4.636  16.414 -1.7352  0.4876 -0.4227
14194TIP3   OH264072   5.255   1.199   3.166 -0.0204 -0.1711 -0.7072
14194TIP3    H164073   5.220   1.286   3.146 -0.5121  0.5916  2.7156
14194TIP3    H264074   5.215   1.176   3.250  2.2991 -2.4400 -0.0798
14195TIP3   OH264075   5.627   0.826  15.849  0.4015  0.3553  0.0796
14195TIP3    H164076   5.687   0.758  15.878 -1.1582 -0.5429  1.3956
14195TIP3    H264077   5.683   0.903  15.835  2.2339 -1.1632 -1.6343
14196TIP3   OH264078   3.273   3.906  13.299 -0.0111  0.1751  0.0078
14196TIP3    H164079   3.301   3.869  13.215 -0.0471 -0.2313  0.1749
14196TIP3    H264080   3.184   3.937  13.282 -0.2445 -0.4467  0.0504
14197TIP3   OH264081   0.945   3.664  12.213 -0.0356 -0.2872  0.6220
14197TIP3    H164082   0.953   3.633  12.303  0.8003 -2.6131 -0.1831
14197TIP3    H264083   0.986   3.596  12.160 -0.3640  1.0840 -1.5329
14198TIP3   OH264084   3.347   2.787   0.980 -0.2795  0.5696 -0.6772
14198TIP3    H164085   3.315   2.874   0.956  0.2065  0.8520 -0.3216
14198TIP3    H264086   3.270   2.740   1.012 -0.3072  1.3095  0.3682
14199TIP3   OH264087   3.252   5.524  12.305 -0.1109 -0.7910  0.4414
14199TIP3    H164088   3.232   5.615  12.284  1.7745 -0.6671 -1.0797
14199TIP3    H264089   3.181   5.474  12.264 -1.5528 -0.0403  1.8789
14200TIP3   OH264090   3.924   4.570   5.703  0.6757 -0.0027  0.6039
14200TIP3    H164091   3.841   4.557   5.748  0.1260 -1.6824 -0.7997
14200TIP3    H264092   3.943   4.486   5.661  2.4657  0.7066 -0.1437
14201TIP3   OH264093   3.382   4.255   4.279  0.3257  0.2805 -0.1861
14201TIP3    H164094   3.448   4.298   4.334  0.0690  0.6234 -0.1383
14201TIP3    H264095   3.373   4.167   4.317 -1.2509  1.1261  1.5762
14202TIP3   OH264096   6.286   2.339  12.625  0.3595  0.3773  0.1789
14202TIP3    H164097   6.231   2.275  12.669  0.1462  0.8878  0.6727
14202TIP3    H264098   6.352   2.287  12.578 -0.3955 -0.2273 -0.2198
14203TIP3   OH264099   1.493   6.392  14.409 -0.2241  0.1327 -0.1675
14203TIP3    H164100   1.528   6.441  14.484 -0.3443  1.3293 -0.8716
14203TIP3    H264101   1.404   6.369  14.435  0.1014 -0.4365  0.4914
14204TIP3   OH264102   0.911   2.727   4.833  0.2204  0.1303 -0.7644
14204TIP3    H164103   0.924   2.681   4.750  0.0775  1.2696 -1.4406
14204TIP3    H264104   0.937   2.664   4.900  0.2710 -0.8339 -1.6687
14205TIP3   OH264105   6.448   6.076  16.941  0.1922  0.2946 -0.0655
14205TIP3    H164106   6.497   6.072  17.023  1.8111 -0.5147 -1.0330
14205TIP3    H264107   6.358   6.055  16.966  0.9271 -1.4449  1.2933
14206TIP3   OH264108   4.820   1.371  11.972 -0.5103 -0.5140  0.4285
14206TIP3    H164109   4.905   1.402  12.002 -0.4034 -0.1940 -0.1822
14206TIP3    H264110   4.757   1.435  12.007 -0.1669  1.3103 -1.9998
14207TIP3   OH264111   1.509   0.857  13.167 -0.1057 -0.1662  0.1370
14207TIP3    H164112   1.524   0.884  13.258 -1.1066 -1.7274  0.8062
14207TIP3    H264113   1.569   0.785  13.152  0.2413  0.2486 -0.5558
14208TIP3   OH264114   0.766   1.760  16.270  0.1175  0.0198  0.7371
14208TIP3    H164115   0.852   1.797  16.249  0.8197 -1.7505  0.3650
14208TIP3    H264116   0.718   1.763  16.187  0.8790 -1.6637  0.1883
14209TIP3   OH264117   3.563   1.298   5.488 -0.5303 -0.4425  0.2033
14209TIP3    H164118   3.589   1.215   5.448  0.9356 -0.1908  0.5768
14209TIP3    H264119   3.570   1.282   5.582  0.2590  0.2433  0.2694
14210TIP3   OH264120   5.519   1.273   5.411 -0.0886 -0.0653 -0.3542
14210TIP3    H164121   5.503   1.360   5.449 -0.6818 -0.4469  0.2964
14210TIP3    H264122   5.438   1.252   5.364  0.0756 -0.2413 -0.5601
14211TIP3   OH264123   1.330   2.878   5.110 -0.6615  0.2220  1.5142
14211TIP3    H164124   1.405   2.838   5.154  2.1246  1.1021 -1.9564
14211TIP3    H264125   1.331   2.969   5.139 -0.1341  0.3143  1.2233
14212TIP3   OH264126   5.323   6.488  16.314  0.0224  0.0232  0.2611
14212TIP3    H164127   5.277   6.453  16.391  0.2978 -1.1145 -0.0771
14212TIP3    H264128   5.327   6.414  16.253  1.0823  0.5003 -0.2651
14213TIP3   OH264129   5.800   6.078  14.842 -0.1349 -0.1777  0.7084
14213TIP3    H164130   5.803   6.070  14.938  0.9112  1.1530  0.8220
14213TIP3    H264131   5.875   6.134  14.821 -0.4740 -0.2837 -0.8796
14214TIP3   OH264132   0.900   5.914  11.983  0.5782 -0.0290  0.4813
14214TIP3    H164133   0.921   5.828  12.019  1.5499 -0.4401 -0.9605
14214TIP3    H264134   0.948   5.917  11.900 -1.5299  0.8566 -0.7738
14215TIP3   OH264135   3.541   3.875  13.676  0.2111 -0.1839  0.1369
14215TIP3    H164136   3.587   3.843  13.598 -0.1833 -1.2402  0.3190
14215TIP3    H264137   3.450   3.848  13.664 -0.0099  0.3229  0.6052
14216TIP3   OH264138   6.239   1.610   2.003 -0.1146 -0.1275  0.5305
14216TIP3    H164139   6.192   1.687   1.971 -2.1697 -0.8602  1.5554
14216TIP3    H264140   6.248   1.553   1.927 -2.8335 -0.8395  0.6213
14217TIP3   OH264141   3.071   1.478   3.186 -0.4750 -0.0192  0.2675
14217TIP3    H164142   3.138   1.489   3.253  1.1334 -1.0835 -1.0686
14217TIP3    H264143   3.064   1.564   3.144 -0.0059  0.1258  0.4822
14218TIP3   OH264144   6.790   4.152  12.551 -0.1291  0.1049  0.9081
14218TIP3    H164145   6.842   4.136  12.472 -0.4150  1.0373  0.5100
14218TIP3    H264146   6.854   4.149  12.623  0.5986  1.6848  0.3830
14219TIP3   OH264147   4.020   0.163  16.202  0.0833 -0.0415 -0.1664
14219TIP3    H164148   3.945   0.170  16.260  0.3279  2.0337 -0.0222
14219TIP3    H264149   3.982   0.144  16.116 -0.4838 -0.4092  0.1603
14220TIP3   OH264150   4.185   0.210   4.895  0.1098  0.1759  0.1692
14220TIP3    H164151   4.261   0.261   4.922  0.2862 -0.3280  0.6504
14220TIP3    H264152   4.222   0.127   4.863 -0.2656 -0.3484  1.0608
14221TIP3   OH264153   3.131   5.180   6.362  0.2550 -0.0167 -0.0761
14221TIP3    H164154   3.196   5.161   6.294 -0.2918 -0.0859 -0.5834
14221TIP3    H264155   3.155   5.123   6.434  1.0093  0.2539 -0.1007
14222TIP3   OH264156   3.237   4.083   1.471  0.1895 -0.2802 -0.0870
14222TIP3    H164157   3.264   4.174   1.468 -0.6547  0.0732  1.7029
14222TIP3    H264158   3.195   4.067   1.387 -0.7065  1.3457  0.0229
14223TIP3   OH264159   3.057   2.192   3.403 -0.4714 -0.1070 -0.3335
14223TIP3    H164160   3.107   2.130   3.351 -0.2511 -1.0052  0.9012
14223TIP3    H264161   2.976   2.207   3.353  0.1432 -0.1986 -1.3664
14224TIP3   OH264162   4.448   6.418  11.256  0.0470 -0.4279 -0.6460
14224TIP3    H164163   4.497   6.352  11.208  1.0386  1.0837 -1.8261
14224TIP3    H264164   4.512   6.487  11.274 -0.6779 -0.2325  1.5366
14225TIP3   OH264165   1.583   6.324  11.832 -0.5692  0.4758 -0.4336
14225TIP3    H164166   1.548   6.257  11.891 -0.1065 -1.4146 -2.2257
14225TIP3    H264167   1.628   6.385  11.890 -0.2822 -1.2095  1.1919
14226TIP3   OH264168   0.943   4.677   3.613 -0.2410 -0.1822 -0.2615
14226TIP3    H164169   0.992   4.638   3.685  1.1749  1.5196 -0.2301
14226TIP3    H264170   0.981   4.638   3.534 -0.5565 -0.6949 -0.1671
14227TIP3   OH264171   2.499   1.041  12.220 -0.2818  0.2938 -0.0800
14227TIP3    H164172   2.496   1.124  12.267 -2.8416  0.4361 -0.3243
14227TIP3    H264173   2.592   1.019  12.215  0.3756  2.5064  1.0682
14228TIP3   OH264174   3.668   1.485  17.106  0.6557  0.0351  1.2075
14228TIP3    H164175   3.757   1.449  17.111  0.3328 -0.6439  2.6607
14228TIP3    H264176   3.629   1.445  17.029  1.2198 -0.5784  1.2356
14229TIP3   OH264177   1.143   3.689   3.237  0.0826  0.3483 -0.5438
14229TIP3    H164178   1.147   3.594   3.225 -1.4484  0.2645 -0.6491
14229TIP3    H264179   1.165   3.703   3.329  0.2702 -0.1153 -0.5188
14230TIP3   OH264180   6.085   2.597  12.594 -0.1719  0.1036  0.4949
14230TIP3    H164181   6.086   2.636  12.507  0.9142  0.0223  0.4560
14230TIP3    H264182   6.175   2.566  12.607 -0.3649 -0.0313  1.5769
14231TIP3   OH264183   2.294   0.735   0.048 -0.8335  0.0942  0.1000
14231TIP3    H164184   2.248   0.719  -0.034  0.7521 -2.2357 -0.4187
14231TIP3    H264185   2.298   0.649   0.090 -0.1399  0.9302  1.8361
14232TIP3   OH264186   0.897   0.286  14.028 -0.2904  0.0778  0.2805
14232TIP3    H164187   0.958   0.352  13.995 -1.5818  0.4170 -1.5453
14232TIP3    H264188   0.889   0.222  13.958 -0.5119 -1.0534  1.2899
14233TIP3   OH264189   0.515   2.968   5.012 -0.0990 -0.3268  0.7352
14233TIP3    H164190   0.552   3.044   4.967 -0.6611 -0.5654 -0.1580
14233TIP3    H264191   0.591   2.917   5.040  0.2636 -0.3028 -0.1837
14234TIP3   OH264192   2.655   5.984  13.228 -0.0847 -0.3937 -0.3552
14234TIP3    H164193   2.657   5.947  13.139  2.5431 -0.2710 -0.4517
14234TIP3    H264194   2.706   5.922  13.280  1.1977  1.1208  0.2991
14235TIP3   OH264195   5.392   4.530   5.598 -0.1325  0.1891  0.1985
14235TIP3    H164196   5.337   4.608   5.607 -1.1033 -0.5651  1.1232
14235TIP3    H264197   5.476   4.556   5.635  0.3243  1.4931 -1.6043
14236TIP3   OH264198   6.280   6.348  17.103 -0.7119  0.0776 -0.6195
14236TIP3    H164199   6.280   6.319  17.012 -0.3842 -0.4613 -0.4575
14236TIP3    H264200   6.219   6.289  17.147 -0.6530  0.1487 -0.4413
14237TIP3   OH264201   3.901   0.724   1.531  0.1708 -0.0369 -0.2352
14237TIP3    H164202   3.971   0.661   1.514  0.6929  0.3553  0.4228
14237TIP3    H264203   3.857   0.690   1.610  0.3346  0.3182  0.0092
14238TIP3   OH264204   2.936   4.791   0.307 -0.0771  0.0522 -0.3449
14238TIP3    H164205   2.908   4.834   0.387 -1.1709 -0.6528 -0.3296
14238TIP3    H264206   2.876   4.822   0.240 -0.7189 -1.2070 -0.3853
14239TIP3   OH264207   3.212   2.897   3.855  0.2752  0.6067 -0.2972
14239TIP3    H164208   3.265   2.899   3.934  1.6743 -0.5781 -1.1553
14239TIP3    H264209   3.132   2.850   3.881  1.0836 -0.5264  0.2212
14240TIP3   OH264210   6.743   0.770   3.945 -0.4992 -0.0736  0.0464
14240TIP3    H164211   6.829   0.794   3.912 -0.3437 -1.8231 -0.9149
14240TIP3    H264212   6.739   0.675   3.937 -2.5950 -0.0261 -0.1438
14241TIP3   OH264213   4.623   3.560  11.677  0.4301 -0.2295  0.5800
14241TIP3    H164214   4.550   3.602  11.722  0.0474 -0.1983 -0.0531
14241TIP3    H264215   4.582   3.489  11.627  0.3325  1.6757 -2.2627
14242TIP3   OH264216   0.109   0.851   2.256 -0.3505 -1.3930  0.0441
14242TIP3    H164217   0.038   0.817   2.311  0.6977 -1.6863  1.2723
14242TIP3    H264218   0.146   0.774   2.213 -1.0350 -1.1880 -0.9497
14243TIP3   OH264219   1.961   3.759   2.442  0.3829 -0.3150 -0.0171
14243TIP3    H164220   1.984   3.824   2.508  0.1238 -0.5175  0.2755
14243TIP3    H264221   2.039   3.753   2.386  0.4378  0.1852 -0.0021
14244TIP3   OH264222   0.308   4.528  15.664 -0.0532  0.4067 -0.1199
14244TIP3    H164223   0.273   4.454  15.713 -1.2670  1.6759  0.9813
14244TIP3    H264224   0.232   4.581  15.641  0.7934  1.3639 -0.8411
14245TIP3   OH264225   0.543   3.865  11.294  0.0468 -0.5693  0.3151
14245TIP3    H164226   0.597   3.942  11.280 -0.8696 -0.1058 -0.8458
14245TIP3    H264227   0.552   3.845  11.387  0.5762  0.7097  0.5504
14246TIP3   OH264228   6.100   5.360   4.181 -0.9751  0.3688  0.3645
14246TIP3    H164229   6.118   5.442   4.226  1.2297 -0.7058  1.5926
14246TIP3    H264230   6.009   5.339   4.204 -0.6263  0.9978  2.4576
14247TIP3   OH264231   6.254   4.841   0.627  0.2180 -0.1730  0.6887
14247TIP3    H164232   6.256   4.913   0.564 -0.9763 -0.0578  0.7746
14247TIP3    H264233   6.313   4.869   0.697  0.1184  0.5198  0.5052
14248TIP3   OH264234   2.263   6.511  12.196  0.0358 -0.8748  0.5974
14248TIP3    H164235   2.215   6.495  12.115 -2.7522  0.5948  1.8209
14248TIP3    H264236   2.332   6.572  12.171 -1.3590  0.3104 -0.5694
14249TIP3   OH264237   3.724   1.746   4.617 -0.3290  0.4534  0.2340
14249TIP3    H164238   3.800   1.793   4.582  0.6103 -2.0579 -1.3817
14249TIP3    H264239   3.658   1.752   4.549 -0.0937 -0.7112 -0.1302
14250TIP3   OH264240   5.900   4.902   0.523 -0.1333  0.0380  0.7210
14250TIP3    H164241   5.913   4.835   0.456 -1.0547 -0.0096  0.5677
14250TIP3    H264242   5.983   4.948   0.528 -0.3669  0.8134 -1.3184
14251TIP3   OH264243   0.529   2.322   2.026  0.1147  0.6599  0.0949
14251TIP3    H164244   0.465   2.261   1.989 -0.1405  1.5825 -1.0188
14251TIP3    H264245   0.611   2.301   1.981 -0.2220  1.8598 -1.1463
14252TIP3   OH264246   0.815   4.657   0.024 -0.3279  0.8230 -0.0333
14252TIP3    H164247   0.791   4.733   0.077 -1.6026  1.9606 -2.0873
14252TIP3    H264248   0.741   4.596   0.034 -0.9119  1.3484 -1.0028
14253TIP3   OH264249   0.564   5.548  12.395  0.2134 -0.4305  0.0677
14253TIP3    H164250   0.577   5.643  12.392 -0.1380 -0.4130 -1.7139
14253TIP3    H264251   0.615   5.514  12.322  0.2763 -1.6230  0.6464
14254TIP3   OH264252   0.694   5.949  15.417  0.3389  0.5041  0.7138
14254TIP3    H164253   0.636   5.921  15.347  0.8690  0.9822  0.0670
14254TIP3    H264254   0.782   5.943  15.379  0.5325  2.2197  0.8252
14255TIP3   OH264255   0.840   2.313  14.504 -0.2803  0.0444  0.1952
14255TIP3    H164256   0.925   2.272  14.520  0.6403  0.4395 -2.9188
14255TIP3    H264257   0.790   2.246  14.457 -0.7364  0.6777 -0.2342
14256TIP3   OH264258   4.052   1.028  14.783 -0.0457 -0.1111 -0.4537
14256TIP3    H164259   4.086   1.069  14.703  0.1837 -1.5831 -1.1371
14256TIP3    H264260   4.104   1.068  14.854 -0.1114  1.0542 -1.0365
14257TIP3   OH264261   6.779   3.611   0.262 -0.2574 -0.2493 -0.1349
14257TIP3    H164262   6.791   3.690   0.315  1.5434  0.1615 -1.0671
14257TIP3    H264263   6.771   3.541   0.326 -2.0727  0.6581  0.7214
14258TIP3   OH264264   0.269   4.819   4.507 -0.2832  0.1118 -0.9112
14258TIP3    H164265   0.345   4.766   4.531  0.0433  1.0259  0.1521
14258TIP3    H264266   0.240   4.782   4.424  2.3289  0.8063 -2.2449
14259TIP3   OH264267   0.334   1.590  15.529  0.1843 -0.4089 -0.0663
14259TIP3    H164268   0.260   1.648  15.549  1.4200  1.7157 -1.2816
14259TIP3    H264269   0.317   1.559  15.440  1.5621  1.5286 -1.0571
14260TIP3   OH264270   5.975   6.777  12.065 -0.3134  0.4733  0.4874
14260TIP3    H164271   6.060   6.799  12.026 -0.1352  0.4459  0.8579
14260TIP3    H264272   5.972   6.682  12.063  0.1053  0.4295  1.3923
14261TIP3   OH264273   1.302   1.945  13.884  0.0144 -0.1902  0.0514
14261TIP3    H164274   1.283   1.942  13.790  0.0702  1.0118 -0.0051
14261TIP3    H264275   1.390   1.982  13.890 -0.0174 -0.1966  0.5793
14262TIP3   OH264276   5.919   4.648   2.844 -0.0266  0.6081  0.2190
14262TIP3    H164277   5.873   4.730   2.826  0.6165  0.7055 -1.1322
14262TIP3    H264278   6.012   4.671   2.840  0.1600 -0.1488 -0.0445
14263TIP3   OH264279   2.298   1.329   1.287  0.4593  0.2267  0.6323
14263TIP3    H164280   2.203   1.331   1.300  0.3669  3.2505  0.0713
14263TIP3    H264281   2.309   1.314   1.193  0.5322  0.3756  0.6176
14264TIP3   OH264282   1.919   2.399   2.168  0.4095  0.3010 -0.1010
14264TIP3    H164283   2.004   2.432   2.197  1.3193 -1.2153 -0.9133
14264TIP3    H264284   1.915   2.310   2.204 -0.1346 -0.2012 -1.3554
14265TIP3   OH264285   5.621   3.365   2.770 -0.7997 -0.1632  0.2908
14265TIP3    H164286   5.560   3.296   2.795  0.2943 -1.3122 -0.0678
14265TIP3    H264287   5.681   3.323   2.708  0.3123  0.9191  0.5744
14266TIP3   OH264288   0.919   0.124  16.016 -0.1798  0.2761 -0.4533
14266TIP3    H164289   0.990   0.073  16.056  0.6904  0.0888 -2.1523
14266TIP3    H264290   0.923   0.102  15.923 -3.9414 -1.4845 -0.3456
14267TIP3   OH264291   5.868   2.594  16.721 -0.0699 -0.1922 -0.5787
14267TIP3    H164292   5.933   2.527  16.701 -1.4824 -1.6595 -0.4206
14267TIP3    H264293   5.920   2.670  16.748  1.6322 -2.4263  3.2061
14268TIP3   OH264294   5.541   2.648   3.779  0.6530  0.5852 -0.0423
14268TIP3    H164295   5.619   2.616   3.824 -0.7030 -1.5697  0.9828
14268TIP3    H264296   5.509   2.720   3.833  0.9568  0.2790  0.5541
14269TIP3   OH264297   0.851   4.005  17.060 -0.0972 -0.1779  0.0499
14269TIP3    H164298   0.817   4.047  17.139 -2.4967 -1.1706 -0.3947
14269TIP3    H264299   0.860   3.913  17.084  2.5506  0.0244  0.1725
14270TIP3   OH264300   3.243   5.308  13.751 -0.2185  0.2063  0.3837
14270TIP3    H164301   3.195   5.389  13.764  0.5360  0.6682  0.3461
14270TIP3    H264302   3.335   5.332  13.764 -0.0834 -0.9449  1.8460
14271TIP3   OH264303   4.124   3.234  16.038 -0.0022 -0.4919  0.1921
14271TIP3    H164304   4.056   3.302  16.033 -0.6038 -1.1006  0.0158
14271TIP3    H264305   4.204   3.278  16.007 -0.8801 -0.5270 -2.3240
14272TIP3   OH264306   3.445   3.845  15.906  0.0785 -0.1961  1.0859
14272TIP3    H164307   3.392   3.917  15.872  2.1216  0.2182 -1.6092
14272TIP3    H264308   3.531   3.884  15.921  0.4839 -1.5025  2.3365
14273TIP3   OH264309   3.851   5.905   2.948  0.1271  0.0759 -0.7495
14273TIP3    H164310   3.934   5.950   2.963  0.8762 -1.2630 -0.6422
14273TIP3    H264311   3.827   5.869   3.033  0.1952 -0.7413 -1.0633
14274TIP3   OH264312   5.333   5.057   4.296 -0.3341  0.0459  0.3049
14274TIP3    H164313   5.246   5.096   4.306  0.2582  1.0646  1.9817
14274TIP3    H264314   5.363   5.087   4.211 -0.9344  1.1802  0.4686
14275TIP3   OH264315   4.095   6.657  14.071 -0.3689 -0.3179 -0.2145
14275TIP3    H164316   4.096   6.612  13.987  1.5081 -0.1669 -0.3193
14275TIP3    H264317   4.145   6.599  14.129  1.3932  1.1757 -0.1462
14276TIP3   OH264318   3.916   1.127  14.196  0.9877  0.3879 -0.0707
14276TIP3    H164319   3.958   1.074  14.264  0.5081 -0.5385 -0.4694
14276TIP3    H264320   3.955   1.096  14.114  1.1642  1.1081 -0.2615
14277TIP3   OH264321   3.440   6.080  13.572  0.1206  0.6123 -0.6392
14277TIP3    H164322   3.406   6.096  13.484 -1.8993 -1.6308 -0.3843
14277TIP3    H264323   3.368   6.104  13.630  0.3028 -0.7183  0.1849
14278TIP3   OH264324   1.532   6.475  15.202 -0.3467  0.1582  0.3406
14278TIP3    H164325   1.459   6.532  15.178 -0.7433 -0.5239 -0.1126
14278TIP3    H264326   1.577   6.522  15.272 -0.0164  1.5319 -0.7405
14279TIP3   OH264327   3.652   2.582  16.736  0.3593  0.3964  0.2176
14279TIP3    H164328   3.619   2.624  16.815  2.1651  0.4798  0.9806
14279TIP3    H264329   3.746   2.599  16.737  0.7235 -1.2488 -0.9417
14280TIP3   OH264330   6.256   0.471  13.878  0.0513  0.3511 -0.1797
14280TIP3    H164331   6.230   0.415  13.951 -1.6874 -0.1372 -1.1250
14280TIP3    H264332   6.246   0.416  13.801 -1.3174  1.7972 -1.1010
14281TIP3   OH264333   4.676   3.305  16.845 -0.1959 -0.2839  0.0912
14281TIP3    H164334   4.642   3.337  16.929  0.4604  0.5281  0.0575
14281TIP3    H264335   4.725   3.226  16.867 -2.6507 -1.9448  0.0608
14282TIP3   OH264336   0.227   1.603  10.103  0.4126  0.2228 -0.0656
14282TIP3    H164337   0.189   1.685  10.071  0.6645  0.7183  0.8708
14282TIP3    H264338   0.170   1.577  10.175 -0.5894 -1.2776 -1.3314
14283TIP3   OH264339   2.537   3.789   1.196  0.1500  0.2182 -0.3556
14283TIP3    H164340   2.533   3.859   1.260  3.3244  0.3757 -0.2135
14283TIP3    H264341   2.540   3.708   1.248  0.7324  0.2345 -0.3589
14284TIP3   OH264342   3.477   3.346   0.968 -0.3691 -0.9204 -0.2586
14284TIP3    H164343   3.489   3.309   0.880 -0.0539 -0.4212 -0.4263
14284TIP3    H264344   3.424   3.424   0.954  0.7253 -0.1331 -0.1680
14285TIP3   OH264345   6.329   1.477  16.068  0.2105 -0.6039  0.0062
14285TIP3    H164346   6.251   1.474  16.013  0.3182 -1.9135 -0.1193
14285TIP3    H264347   6.296   1.474  16.158  0.1047 -0.9949 -0.0448
14286TIP3   OH264348   5.617   2.040   5.962 -0.2394 -0.3540 -0.6017
14286TIP3    H164349   5.712   2.034   5.955 -0.2845  0.1659 -1.7996
14286TIP3    H264350   5.591   1.960   6.009  0.6916 -0.9937 -1.1622
14287TIP3   OH264351   6.310   6.507  16.222  0.2222  0.0833 -0.4330
14287TIP3    H164352   6.366   6.439  16.186  0.8007 -0.2049  0.9687
14287TIP3    H264353   6.294   6.480  16.312 -1.4571  0.6190 -0.5377
14288TIP3   OH264354   3.825   5.616   2.020  0.4042  0.6595 -0.0720
14288TIP3    H164355   3.766   5.692   2.026 -0.6273  0.0437 -1.8369
14288TIP3    H264356   3.819   5.575   2.106  0.8500  2.4453  0.8757
14289TIP3   OH264357   0.289   4.799   4.114  0.1664 -0.0455 -0.0381
14289TIP3    H164358   0.224   4.868   4.127  0.1837 -0.1371  0.5701
14289TIP3    H264359   0.361   4.842   4.068  0.2200  0.3714  0.4261
14290TIP3   OH264360   1.025   0.820   0.855 -0.5789 -0.7134  0.3438
14290TIP3    H164361   0.958   0.887   0.871 -2.0846 -2.6143  3.0346
14290TIP3    H264362   0.994   0.773   0.778 -0.4561  0.5465 -0.4940
14291TIP3   OH264363   5.185   1.375   4.456 -0.0910  0.2442  0.2668
14291TIP3    H164364   5.181   1.300   4.517 -2.1421  0.9309  1.0795
14291TIP3    H264365   5.234   1.441   4.504 -2.0368  0.9256  1.4506
14292TIP3   OH264366   4.323   0.742  11.983 -0.0169  0.2216  0.3761
14292TIP3    H164367   4.246   0.735  11.927 -0.3032 -0.1028  0.8079
14292TIP3    H264368   4.303   0.687  12.059  0.2221  0.9368  0.9650
14293TIP3   OH264369   5.402   1.379  10.724  0.1452 -0.0837  0.3311
14293TIP3    H164370   5.368   1.460  10.687  0.5105  0.1082  0.4106
14293TIP3    H264371   5.399   1.316  10.651  1.4121  0.4462 -0.2154
14294TIP3   OH264372   3.615   2.379   1.611 -0.0941  0.0060  0.3679
14294TIP3    H164373   3.694   2.431   1.629 -1.1588  1.5807  0.6651
14294TIP3    H264374   3.552   2.406   1.678 -1.2524 -0.4081 -0.5157
14295TIP3   OH264375   5.297   3.242  11.600  0.2176  0.4826 -0.3620
14295TIP3    H164376   5.373   3.289  11.566  1.3616 -1.6199 -0.9087
14295TIP3    H264377   5.295   3.161  11.549 -0.9824 -0.5517  1.2490
14296TIP3   OH264378   5.353   0.929   4.343  0.0666  0.0608  0.0853
14296TIP3    H164379   5.304   0.886   4.413  1.3657 -1.8965 -0.1287
14296TIP3    H264380   5.287   0.979   4.295 -1.3538 -0.8618  0.9981
14297TIP3   OH264381   2.414   0.532   2.766  0.0014 -0.2436 -0.0160
14297TIP3    H164382   2.398   0.458   2.824 -3.0877  1.0470  0.9910
14297TIP3    H264383   2.442   0.603   2.824  1.5696 -0.1862 -0.7838
14298TIP3   OH264384   2.760   0.942   4.809  0.4020 -0.2539  0.3403
14298TIP3    H164385   2.833   0.893   4.770  1.4933  0.0547  1.8849
14298TIP3    H264386   2.801   1.019   4.848 -0.4602 -0.8736  2.6647
14299TIP3   OH264387   2.631   3.210  14.742 -0.3167  0.3335  0.0072
14299TIP3    H164388   2.679   3.270  14.684  1.6388  0.8134  1.9520
14299TIP3    H264389   2.617   3.132  14.689 -0.0505  1.3090 -1.5886
14300TIP3   OH264390   6.258   5.565   1.125  0.2730 -0.2393 -0.7585
14300TIP3    H164391   6.217   5.612   1.052 -1.0350  0.7982  0.5882
14300TIP3    H264392   6.229   5.474   1.114 -0.3604  0.0116 -1.2270
14301TIP3   OH264393   2.787   5.691  14.960 -0.4767  0.2949 -0.1890
14301TIP3    H164394   2.765   5.783  14.944  1.5713  1.1087  1.2947
14301TIP3    H264395   2.870   5.678  14.913  0.7806  0.0956  1.9737
14302TIP3   OH264396   3.296   1.018  11.362 -0.5611  0.8974  0.0583
14302TIP3    H164397   3.347   1.099  11.366  1.2060 -0.1232 -0.6017
14302TIP3    H264398   3.340   0.960  11.425 -1.8299  0.4425  0.5571
14303TIP3   OH264399   4.052   6.186   4.935 -0.6154  0.2947  0.2386
14303TIP3    H164400   4.071   6.211   5.025 -1.3595 -0.9269  0.7705
14303TIP3    H264401   3.995   6.109   4.944 -1.2683  0.5774 -1.2698
14304TIP3   OH264402   5.045   3.633  12.965 -0.1786 -0.0336 -0.3372
14304TIP3    H164403   5.093   3.603  12.888  0.6692  0.7056 -0.1209
14304TIP3    H264404   5.087   3.588  13.038  0.9563  1.4502 -0.0360
14305TIP3   OH264405   6.686   2.352   5.519  0.3363  0.4170  0.5494
14305TIP3    H164406   6.619   2.288   5.494  1.9324 -1.0400 -0.1691
14305TIP3    H264407   6.695   2.342   5.614  1.7324 -1.7166  0.2690
14306TIP3   OH264408   4.616   3.203   5.079  0.3496  0.2268  0.1724
14306TIP3    H164409   4.630   3.142   5.151  0.3789 -1.3028 -1.0776
14306TIP3    H264410   4.703   3.224   5.047  0.2823 -1.8746 -1.6011
14307TIP3   OH264411   1.573   5.954   5.763  0.0261 -1.2821 -0.1628
14307TIP3    H164412   1.585   6.008   5.841  2.0449  1.0392 -1.9204
14307TIP3    H264413   1.478   5.950   5.750 -0.2448  0.5895  0.9111
14308TIP3   OH264414   4.702   5.000   1.929  0.6234 -0.5128 -0.0038
14308TIP3    H164415   4.626   5.009   1.986  1.2523  3.2067  0.5419
14308TIP3    H264416   4.771   4.967   1.986  0.7676  1.4275  1.0420
14309TIP3   OH264417   5.807   5.930  14.551 -0.8669 -0.1807 -0.1938
14309TIP3    H164418   5.833   6.018  14.525 -0.2217  0.2379  1.6685
14309TIP3    H264419   5.783   5.939  14.644  1.3161 -2.3269  0.6914
14310TIP3   OH264420   2.263   0.919   5.757 -0.1941 -0.4556 -0.3134
14310TIP3    H164421   2.184   0.944   5.805 -0.8531  0.3543 -1.7557
14310TIP3    H264422   2.333   0.970   5.797 -0.7964  0.4970 -0.4515
14311TIP3   OH264423   5.059   6.648   2.453 -0.0969 -0.1117 -0.4776
14311TIP3    H164424   5.057   6.674   2.545 -1.1922 -1.1696 -0.1777
14311TIP3    H264425   5.020   6.721   2.406 -1.3573 -0.3627  0.1335
14312TIP3   OH264426   3.084   6.294   1.635 -0.1020 -0.6680  0.6007
14312TIP3    H164427   2.990   6.304   1.623  0.0265 -1.5807 -1.5538
14312TIP3    H264428   3.103   6.341   1.716 -2.2615  0.2809  0.6154
14313TIP3   OH264429   1.916   1.022   2.828 -0.0177  0.4882  0.3975
14313TIP3    H164430   1.940   1.093   2.887  1.9789  0.4855 -0.3371
14313TIP3    H264431   1.957   1.045   2.745 -0.7615 -0.7007 -0.3340
14314TIP3   OH264432   3.754   6.795  14.582 -0.4216  0.1990 -0.0150
14314TIP3    H164433   3.746   6.755  14.669 -0.9863 -1.0040 -0.5857
14314TIP3    H264434   3.695   6.743  14.527 -1.4435  2.0450 -0.7561
14315TIP3   OH264435   4.420   1.974  10.475 -0.0667  0.1113 -0.0797
14315TIP3    H164436   4.379   1.912  10.535  1.6102 -0.0423  0.9898
14315TIP3    H264437   4.376   1.960  10.391  0.7688 -3.1501 -0.1124
14316TIP3   OH264438   2.216   3.143   4.933  0.3807  0.0676 -0.4078
14316TIP3    H164439   2.215   3.229   4.890  0.9399  0.7414  0.8697
14316TIP3    H264440   2.299   3.141   4.981 -0.2245 -0.6361  0.6533
14317TIP3   OH264441   4.853   3.122   0.818  0.1737  0.0148  0.1400
14317TIP3    H164442   4.757   3.117   0.819  0.1584 -0.1321 -0.9795
14317TIP3    H264443   4.876   3.129   0.726  1.1018  2.9955  0.4887
14318TIP3   OH264444   0.829   0.316  13.287 -0.1525 -0.8092  0.0911
14318TIP3    H164445   0.835   0.313  13.383  0.7380 -1.5814  0.0229
14318TIP3    H264446   0.829   0.409  13.266  3.4468 -0.5595  0.6475
14319TIP3   OH264447   2.572   4.456   0.743  0.0288  0.3199 -0.0833
14319TIP3    H164448   2.557   4.546   0.772 -0.5226  0.5417 -1.0311
14319TIP3    H264449   2.662   4.457   0.709 -0.2909  0.7397 -0.9273
14320TIP3   OH264450   3.639   2.837  11.080 -0.1230 -0.3123 -0.2004
14320TIP3    H164451   3.562   2.869  11.126 -0.6079 -0.6336 -0.7638
14320TIP3    H264452   3.694   2.914  11.067 -1.2436  0.3085 -1.4975
14321TIP3   OH264453   0.980   0.757  13.603 -0.6287 -0.0324 -0.3547
14321TIP3    H164454   1.051   0.733  13.544 -1.5736  0.7276 -1.8487
14321TIP3    H264455   0.956   0.846  13.578 -1.2836  0.1913  0.9683
14322TIP3   OH264456   1.260   1.049  12.582 -0.0354 -0.4719 -0.6198
14322TIP3    H164457   1.262   1.081  12.492  0.1784 -0.9202 -0.7768
14322TIP3    H264458   1.321   1.105  12.630  0.2482 -0.5720 -0.8665
14323TIP3   OH264459   0.441   1.420  11.911  0.2152 -0.1872  0.1415
14323TIP3    H164460   0.536   1.412  11.924  0.4230  1.0830 -0.3839
14323TIP3    H264461   0.402   1.382  11.989  1.1931  0.0810  0.7675
14324TIP3   OH264462   3.706   5.455   5.746  0.0819  0.2460  0.4332
14324TIP3    H164463   3.615   5.483   5.747 -0.1100 -0.0292 -2.0751
14324TIP3    H264464   3.713   5.398   5.669  2.2751 -0.0837  0.7998
14325TIP3   OH264465   6.653   4.274   1.264 -0.7139  0.0412  0.1321
14325TIP3    H164466   6.641   4.180   1.250  0.9107 -0.3880  1.2955
14325TIP3    H264467   6.631   4.288   1.356  2.2626  0.1112  0.9296
14326TIP3   OH264468   5.910   5.417  11.519 -0.3507 -0.5641 -0.2171
14326TIP3    H164469   5.900   5.505  11.556 -1.1630 -0.1756 -1.3018
14326TIP3    H264470   5.833   5.370  11.550  0.1943 -0.9870  0.5446
14327TIP3   OH264471   0.964   3.040  15.610  0.2161  0.1077  0.3140
14327TIP3    H164472   1.035   3.043  15.546 -0.9437 -0.5571 -1.0541
14327TIP3    H264473   0.889   3.078  15.564 -0.2016  1.3031  1.9114
14328TIP3   OH264474   6.476   3.635   2.793  0.7543 -0.6044  0.0022
14328TIP3    H164475   6.446   3.618   2.704  0.5080  0.1152 -0.0600
14328TIP3    H264476   6.425   3.711   2.821  0.6418 -0.9798  0.8497
14329TIP3   OH264477   5.859   4.155  11.730  0.0113 -0.1369  0.0660
14329TIP3    H164478   5.863   4.246  11.698  0.3211  0.5588  1.9585
14329TIP3    H264479   5.884   4.161  11.822  0.2835 -2.1986  0.1725
14330TIP3   OH264480   1.458   3.551  15.032  0.5217 -0.5801 -0.4425
14330TIP3    H164481   1.532   3.596  15.072  0.5423  0.4647 -1.6027
14330TIP3    H264482   1.497   3.477  14.986  0.6250 -1.1069  0.4751
14331TIP3   OH264483   0.769   2.133   4.355 -0.0125  0.2091  0.3540
14331TIP3    H164484   0.780   2.046   4.392 -1.8808  0.9871  3.0867
14331TIP3    H264485   0.839   2.185   4.394  0.8551  0.0498 -0.9542
14332TIP3   OH264486   0.279   6.342  16.563  0.6739 -0.1859  0.0616
14332TIP3    H164487   0.318   6.257  16.540  0.3646 -0.3958  0.2895
14332TIP3    H264488   0.247   6.329  16.653  1.7477  0.5708  0.5817
14333TIP3   OH264489   4.000   1.172   0.967  0.2515 -0.4955  0.3595
14333TIP3    H164490   3.968   1.239   1.027 -0.0650 -0.4714  0.1654
14333TIP3    H264491   3.943   1.097   0.983  0.8002 -0.8274  0.7981
14334TIP3   OH264492   1.325   1.238  11.400  0.2000 -0.0637  0.2706
14334TIP3    H164493   1.237   1.233  11.436 -0.6133  1.2199 -1.3910
14334TIP3    H264494   1.374   1.171  11.447 -1.2137  0.3116  2.3965
14335TIP3   OH264495   1.339   6.210   4.839  0.5731 -0.4572  0.0856
14335TIP3    H164496   1.285   6.267   4.783 -1.5540 -0.5123  1.9154
14335TIP3    H264497   1.339   6.126   4.794  0.4695 -0.0256 -0.7394
14336TIP3   OH264498   1.716   3.567  14.038 -0.1474 -0.2655 -0.2141
14336TIP3    H164499   1.792   3.607  14.081 -1.0111 -0.3694  1.4640
14336TIP3    H264500   1.734   3.577  13.945  0.2479  2.9262  0.1049
14337TIP3   OH264501   0.688   0.461  12.959 -0.3193 -0.7815 -0.1223
14337TIP3    H164502   0.746   0.527  12.921 -0.8520  0.0520  0.4784
14337TIP3    H264503   0.728   0.377  12.935  0.1534 -0.2598 -1.2430
14338TIP3   OH264504   6.497   1.016   1.454  0.2529  0.3506  0.0915
14338TIP3    H164505   6.545   1.062   1.523  1.7431  0.6449 -1.1108
14338TIP3    H264506   6.405   1.024   1.480  0.7360  1.0039  1.7009
14339TIP3   OH264507   6.258   6.006   0.798  0.8107 -0.1047 -0.1858
14339TIP3    H164508   6.246   6.012   0.892 -2.2458 -3.6945 -0.0795
14339TIP3    H264509   6.190   6.063   0.761  0.3382 -0.6092 -0.1137
14340TIP3   OH264510   2.072   2.003   2.558 -0.1330  0.1483  0.3955
14340TIP3    H164511   2.005   2.031   2.620  0.2708 -0.9427  1.3781
14340TIP3    H264512   2.153   2.005   2.608  0.5090  1.0428 -0.6578
14341TIP3   OH264513   5.844   4.058   3.760 -0.6479  0.1526  0.3396
14341TIP3    H164514   5.762   4.092   3.725  0.7444  2.5198 -0.8106
14341TIP3    H264515   5.852   4.099   3.846 -1.7497 -1.9675  1.5448
14342TIP3   OH264516   1.218   2.005  10.280  0.4466 -0.2587  0.3334
14342TIP3    H164517   1.181   2.088  10.309  0.2433  0.1431 -1.0091
14342TIP3    H264518   1.199   1.944  10.351 -2.9087 -0.1296 -0.3058
14343TIP3   OH264519   4.647   6.180  14.020  0.3604  0.2528  0.0626
14343TIP3    H164520   4.718   6.217  13.967  0.0829  3.4954  1.6947
14343TIP3    H264521   4.691   6.132  14.090  0.8324  0.0032 -0.3961
14344TIP3   OH264522   5.609   5.329   6.175 -0.2602  0.1467 -0.7848
14344TIP3    H164523   5.659   5.325   6.257 -1.0538 -2.7929 -0.3255
14344TIP3    H264524   5.518   5.321   6.202 -0.6187  0.2197 -1.9220
14345TIP3   OH264525   6.753   6.399  14.186 -0.0532 -0.6710  0.1713
14345TIP3    H164526   6.762   6.491  14.211 -0.1337 -0.6218  0.0176
14345TIP3    H264527   6.659   6.383  14.183 -0.0397 -0.7567  0.1935
14346TIP3   OH264528   2.136   1.781   2.423  0.2403  0.2845 -0.3014
14346TIP3    H164529   2.117   1.868   2.458  2.2015  1.2395 -1.4161
14346TIP3    H264530   2.150   1.727   2.501 -1.2996  0.8620  0.4148
14347TIP3   OH264531   4.123   4.547   4.613  0.1932  0.3722 -0.3719
14347TIP3    H164532   4.038   4.528   4.574 -0.0757 -0.6781  0.6587
14347TIP3    H264533   4.149   4.631   4.576 -0.8812  0.2819 -1.3711
14348TIP3   OH264534   1.212   3.880   5.645  0.1437 -0.1298  0.1656
14348TIP3    H164535   1.254   3.913   5.565  0.6525  1.6871  1.1188
14348TIP3    H264536   1.223   3.785   5.640 -0.0256 -0.1005 -2.0033
14349TIP3   OH264537   2.851   5.777   2.685 -0.0596  0.1331  0.1047
14349TIP3    H164538   2.921   5.719   2.713 -0.2341 -0.9321 -1.5321
14349TIP3    H264539   2.774   5.720   2.678 -0.6273  0.8946  0.0119
14350TIP3   OH264540   2.168   3.624  15.852  0.0886  0.3929  0.5550
14350TIP3    H164541   2.194   3.625  15.944  0.6812 -1.1057  0.4461
14350TIP3    H264542   2.251   3.618  15.804 -0.2691 -0.3778  0.0115
14351TIP3   OH264543   1.706   6.630  15.069 -0.7229 -0.3857 -0.5314
14351TIP3    H164544   1.719   6.602  14.979  0.1453 -1.3347 -0.1247
14351TIP3    H264545   1.635   6.575  15.102 -0.7564 -0.3228 -0.4960
14352TIP3   OH264546   5.471   0.582   1.482 -0.3061 -0.4417  0.7542
14352TIP3    H164547   5.438   0.502   1.441  0.1850 -0.2564 -0.0127
14352TIP3    H264548   5.410   0.598   1.554 -1.2455 -0.7003  0.0367
14353TIP3   OH264549   6.134   5.210  16.356  0.4774 -0.0461 -0.0420
14353TIP3    H164550   6.217   5.216  16.308  0.4878 -1.1328 -0.1778
14353TIP3    H264551   6.079   5.153  16.302 -1.1558  2.3403 -1.0462
14354TIP3   OH264552   4.300   1.364  12.379  1.0879  0.6602  1.0637
14354TIP3    H164553   4.374   1.344  12.323  1.3217  1.5188  1.0479
14354TIP3    H264554   4.270   1.450  12.350 -1.6704 -0.7675 -0.8129
14355TIP3   OH264555   5.097   5.242  16.989 -0.0453 -0.6019  0.2622
14355TIP3    H164556   5.171   5.194  17.026  1.3346  1.4081  0.2904
14355TIP3    H264557   5.059   5.182  16.925 -1.1688 -3.3524  3.2578
14356TIP3   OH264558   2.844   4.306   1.767  0.1599  0.5107 -0.1560
14356TIP3    H164559   2.890   4.345   1.692  0.1606 -0.2427 -0.5523
14356TIP3    H264560   2.913   4.287   1.830  0.0078  2.5738  0.7209
14357TIP3   OH264561   4.748   2.953  13.624  0.1753 -0.6662 -0.5064
14357TIP3    H164562   4.722   3.045  13.616  3.2881  0.5934  1.6578
14357TIP3    H264563   4.698   2.920  13.698  0.3928 -0.0889 -0.0887
14358TIP3   OH264564   3.690   3.832   2.699  0.2454  0.0496 -0.4855
14358TIP3    H164565   3.613   3.882   2.729  1.9227  2.2671  0.4347
14358TIP3    H264566   3.721   3.789   2.778  0.7613  0.3450 -0.5254
14359TIP3   OH264567   1.891   3.490  14.710  0.0509 -0.1464  0.2584
14359TIP3    H164568   1.949   3.492  14.785 -0.1320 -3.3319  0.6570
14359TIP3    H264569   1.813   3.444  14.742 -1.2840  1.0679 -1.1269
14360TIP3   OH264570   1.908   1.557   0.530  0.1890 -1.0739 -0.4759
14360TIP3    H164571   1.862   1.604   0.599  0.7229 -0.2267 -0.6726
14360TIP3    H264572   1.892   1.610   0.451  1.5768 -0.6728 -0.5215
14361TIP3   OH264573   4.670   0.120  16.030 -0.0265  1.3129 -0.5681
14361TIP3    H164574   4.697   0.210  16.044 -2.2167  1.9623 -0.1377
14361TIP3    H264575   4.641   0.117  15.939  3.5678 -0.0244 -1.8655
14362TIP3   OH264576   1.562   1.143  11.507 -0.1272 -0.4217  0.2045
14362TIP3    H164577   1.589   1.235  11.504  1.5899 -0.9081 -0.9293
14362TIP3    H264578   1.576   1.111  11.417 -0.1179 -1.9454  0.7209
14363TIP3   OH264579   6.740   1.662  15.532 -0.2720  0.0476  0.3247
14363TIP3    H164580   6.781   1.577  15.518  0.3938  0.4939 -0.5065
14363TIP3    H264581   6.812   1.722  15.552 -0.2096  1.1537 -2.5789
14364TIP3   OH264582   4.950   4.405   1.148  0.3786  0.2348  0.2881
14364TIP3    H164583   5.026   4.402   1.208  0.4258  0.0647  0.2207
14364TIP3    H264584   4.985   4.443   1.067  0.8792 -1.6762 -0.4400
14365TIP3   OH264585   5.170   1.588   4.069  0.3813 -0.4308  0.5394
14365TIP3    H164586   5.219   1.639   4.004  1.4302 -0.8906  0.9399
14365TIP3    H264587   5.200   1.622   4.153 -0.6746 -0.1087  0.7989
14366TIP3   OH264588   1.233   4.853  13.563  0.6783  0.4643  0.3764
14366TIP3    H164589   1.184   4.928  13.599 -0.3956  0.6434 -1.3282
14366TIP3    H264590   1.322   4.865  13.596  0.5885  2.6368  0.0237
14367TIP3   OH264591   5.557   4.847  11.578 -0.5497  0.9396  0.3894
14367TIP3    H164592   5.626   4.912  11.565 -1.5427  1.8096 -0.8952
14367TIP3    H264593   5.511   4.876  11.657  0.9400 -0.0521  1.6736
14368TIP3   OH264594   0.829   0.616   5.175  1.0294 -0.0385  0.3279
14368TIP3    H164595   0.821   0.705   5.141  1.8778  0.3764  1.1550
14368TIP3    H264596   0.765   0.611   5.245  0.0149 -0.5535 -0.5990
14369TIP3   OH264597   1.176   6.516   4.445 -0.6955 -0.5535  0.0184
14369TIP3    H164598   1.206   6.607   4.437 -1.1637 -0.5340 -2.2740
14369TIP3    H264599   1.225   6.469   4.377  0.2162 -2.2597  1.7511
14370TIP3   OH264600   2.474   0.432   3.197  0.2336  0.9321  0.3021
14370TIP3    H164601   2.556   0.481   3.205  0.0078  0.9278  4.1334
14370TIP3    H264602   2.501   0.343   3.176  1.0965  1.2214  0.1350
14371TIP3   OH264603   0.567   1.552  14.705 -0.0780 -0.3679  0.3019
14371TIP3    H164604   0.582   1.493  14.631 -0.3638  0.9508 -0.8529
14371TIP3    H264605   0.491   1.605  14.678 -1.4378 -1.1371  2.3675
14372TIP3   OH264606   5.750   0.450   5.042  0.0771  0.3324 -0.5078
14372TIP3    H164607   5.730   0.360   5.015 -0.9714  0.6433 -0.7900
14372TIP3    H264608   5.826   0.474   4.989 -0.1347 -0.1160 -1.0192
14373TIP3   OH264609   4.363   0.325  10.564 -0.3876 -0.0576  0.3800
14373TIP3    H164610   4.305   0.256  10.597  0.4432 -0.6467  0.6429
14373TIP3    H264611   4.443   0.279  10.540 -0.6827  0.4708 -1.7547
14374TIP3   OH264612   2.180   3.187   2.121 -0.0435  0.1809  0.3020
14374TIP3    H164613   2.134   3.108   2.093 -1.0886  1.3159 -1.3886
14374TIP3    H264614   2.114   3.255   2.120  0.5451  0.8993  2.9660
14375TIP3   OH264615   0.175   2.124  11.260  0.0373  0.3962 -0.2101
14375TIP3    H164616   0.255   2.073  11.267 -0.7221 -0.8578 -0.3444
14375TIP3    H264617   0.120   2.093  11.332 -0.4536  1.0063 -0.3084
14376TIP3   OH264618   2.780   2.982  10.589 -0.3281  0.1431 -0.1838
14376TIP3    H164619   2.757   3.029  10.509 -0.2097  1.0177  0.2823
14376TIP3    H264620   2.709   3.003  10.650  0.1333  0.3727  0.2848
14377TIP3   OH264621   1.524   6.201  12.424  0.0434 -0.0998 -0.3510
14377TIP3    H164622   1.496   6.291  12.443 -0.7812  0.4722 -3.7036
14377TIP3    H264623   1.452   6.147  12.456  1.3403  0.0626  3.4495
14378TIP3   OH264624   5.407   5.160   1.883 -0.6593  0.1179  0.5769
14378TIP3    H164625   5.440   5.157   1.793 -1.0595 -0.8457  0.4485
14378TIP3    H264626   5.369   5.248   1.891  0.4614  0.6548  0.2145
14379TIP3   OH264627   0.364   5.001   2.406  0.7242  0.4901 -0.1123
14379TIP3    H164628   0.409   4.918   2.394 -0.4377 -0.1892  0.0110
14379TIP3    H264629   0.359   5.012   2.501 -1.6610 -0.8050 -0.0083
14380TIP3   OH264630   1.937   1.463   0.169 -0.1028  0.1407  0.0620
14380TIP3    H164631   2.030   1.454   0.186  0.0299  0.2931 -0.5485
14380TIP3    H264632   1.894   1.408   0.234  0.3872  0.5090  0.7029
14381TIP3   OH264633   4.033   5.180   3.339 -0.1251  0.4905  0.0525
14381TIP3    H164634   4.026   5.165   3.245  0.4040 -0.5864  0.1694
14381TIP3    H264635   4.102   5.120   3.368 -0.6427  0.4254  1.2051
14382TIP3   OH264636   2.762   4.572   4.798  0.0763  0.5359 -0.2856
14382TIP3    H164637   2.785   4.497   4.853 -2.4317  0.1541  0.4066
14382TIP3    H264638   2.834   4.633   4.809  0.9717 -0.7039  1.2346
14383TIP3   OH264639   2.647   6.485  11.875  0.3641  0.9859  0.0391
14383TIP3    H164640   2.588   6.450  11.808 -0.6936  0.9150  0.9865
14383TIP3    H264641   2.631   6.579  11.875  0.9220  1.0867 -0.3231
14384TIP3   OH264642   5.006   4.582   1.737  0.2587  0.2884 -0.1230
14384TIP3    H164643   4.951   4.606   1.811  0.6972  1.4449 -0.1394
14384TIP3    H264644   4.964   4.622   1.661 -0.1919 -0.8950 -0.5168
14385TIP3   OH264645   1.911   0.312   3.712  0.6211  0.3856 -0.2375
14385TIP3    H164646   1.965   0.389   3.725  1.5857 -0.1575 -0.8923
14385TIP3    H264647   1.931   0.282   3.623 -1.5379  0.7443 -0.9183
14386TIP3   OH264648   5.689   5.094  14.142  0.1306 -0.0319  0.3096
14386TIP3    H164649   5.700   5.052  14.227  1.7862  0.8064  0.5453
14386TIP3    H264650   5.707   5.186  14.158 -0.5360  0.3049 -0.7730
14387TIP3   OH264651   6.683   4.018   0.224  0.4510 -0.8656 -0.6446
14387TIP3    H164652   6.609   3.973   0.183 -1.3592  1.1651  0.2198
14387TIP3    H264653   6.682   4.106   0.187  0.6457  0.0785  1.4392
14388TIP3   OH264654   5.249   3.521  16.618  0.0341 -0.0460  0.1959
14388TIP3    H164655   5.318   3.551  16.561 -0.5327  0.2391 -0.3505
14388TIP3    H264656   5.243   3.588  16.686  0.8147 -0.4659  0.7002
14389TIP3   OH264657   3.104   5.970  17.078 -0.6864  0.2394 -0.4893
14389TIP3    H164658   3.034   5.919  17.036  0.0108 -0.1551 -1.2031
14389TIP3    H264659   3.062   6.010  17.155 -1.2677 -1.3543  0.0560
14390TIP3   OH264660   6.713   3.839  14.466  0.3004  0.4177  0.2536
14390TIP3    H164661   6.685   3.778  14.398  0.8231  0.7117 -0.2372
14390TIP3    H264662   6.741   3.784  14.539 -0.1766  0.0976  0.1934
14391TIP3   OH264663   6.487   6.320  15.057 -0.2079  0.1508 -0.0473
14391TIP3    H164664   6.565   6.278  15.022 -1.5227 -1.7694 -0.8312
14391TIP3    H264665   6.423   6.316  14.985 -1.6421 -0.0936  1.1995
14392TIP3   OH264666   3.995   5.650   0.135 -0.1357  0.2346  0.0860
14392TIP3    H164667   4.006   5.732   0.088  0.5768 -0.3972 -0.8775
14392TIP3    H264668   4.026   5.669   0.224 -2.2714  1.6567  0.5789
14393TIP3   OH264669   2.472   4.574  14.120  0.3496  0.4373  0.1496
14393TIP3    H164670   2.394   4.524  14.098 -0.2839  0.9377  1.1518
14393TIP3    H264671   2.518   4.519  14.184  0.6807  0.2614 -0.2396
14394TIP3   OH264672   4.478   0.623   1.464  0.1874 -0.0205  0.2647
14394TIP3    H164673   4.514   0.536   1.445 -0.2576 -0.1498 -0.0129
14394TIP3    H264674   4.537   0.660   1.530  1.1630  0.0084 -0.5907
14395TIP3   OH264675   4.424   1.466   4.337  0.5564 -0.1383  0.2458
14395TIP3    H164676   4.448   1.533   4.273 -0.4160  0.6845  0.7215
14395TIP3    H264677   4.444   1.383   4.293 -0.0309  0.4043 -1.1059
14396TIP3   OH264678   5.828   1.208  14.959 -0.3997  0.3335 -0.3257
14396TIP3    H164679   5.853   1.274  15.023 -0.4913  0.7588 -0.7228
14396TIP3    H264680   5.838   1.124  15.005 -0.7298  0.6462  0.3244
14397TIP3   OH264681   5.911   4.225  10.663  0.5336  0.1034  0.0908
14397TIP3    H164682   5.886   4.133  10.676  1.2684  0.0403  1.1626
14397TIP3    H264683   6.003   4.220  10.636  0.1936  0.4695 -1.2115
14398TIP3   OH264684   2.740   4.302   2.114  0.0793  0.4310 -0.5843
14398TIP3    H164685   2.804   4.373   2.126 -0.1401  0.6750 -0.8412
14398TIP3    H264686   2.794   4.225   2.093  0.4545  0.0759  1.4936
14399TIP3   OH264687   2.177   2.512   2.275 -0.0280  0.1616 -0.2865
14399TIP3    H164688   2.154   2.446   2.340  0.7880  0.7244  0.5866
14399TIP3    H264689   2.241   2.568   2.318 -0.0825  1.0384 -1.2971
14400TIP3   OH264690   2.377   0.482   0.269 -0.0321 -0.0384  0.7530
14400TIP3    H164691   2.404   0.397   0.302 -2.0621 -0.9466  0.2261
14400TIP3    H264692   2.318   0.516   0.337 -0.6501  0.1170  0.1462
14401TIP3   OH264693   1.585   6.840  11.233  0.4756  0.5820 -0.2637
14401TIP3    H164694   1.671   6.859  11.271 -0.5682  0.7638  2.1801
14401TIP3    H264695   1.545   6.776  11.292 -0.2927 -1.1601 -2.5187
14402TIP3   OH264696   1.346   5.911   5.595 -0.3015  0.1584 -0.1312
14402TIP3    H164697   1.275   5.924   5.658  0.0687  2.3704 -0.0917
14402TIP3    H264698   1.352   5.994   5.548  0.1210 -1.0886 -2.4211
14403TIP3   OH264699   4.240   1.211   1.282 -0.4651 -0.1262 -0.2581
14403TIP3    H164700   4.282   1.272   1.221  2.8061  1.9815  3.6542
14403TIP3    H264701   4.181   1.266   1.333  1.1084 -0.4660  2.0800
14404TIP3   OH264702   5.055   3.441  16.093 -0.2840 -0.5760  0.5815
14404TIP3    H164703   5.103   3.502  16.037  1.0026 -1.4928  0.6210
14404TIP3    H264704   5.057   3.481  16.180 -0.7087  0.0022  0.3300
14405TIP3   OH264705   6.456   3.677  15.939  0.1857  0.1493  0.1211
14405TIP3    H164706   6.386   3.721  15.892  1.2016  0.8413 -0.7847
14405TIP3    H264707   6.536   3.714  15.903  1.0214 -0.3657  1.3855
14406TIP3   OH264708   6.286   1.816   1.233 -0.4213 -0.2011  0.1243
14406TIP3    H164709   6.249   1.866   1.160  0.0537 -0.2824 -0.1806
14406TIP3    H264710   6.229   1.739   1.241 -1.0771  0.3202  0.5125
14407TIP3   OH264711   1.593   4.459   2.848 -0.5108  0.1007 -0.0847
14407TIP3    H164712   1.641   4.412   2.916 -1.4060  0.3039  0.7092
14407TIP3    H264713   1.548   4.391   2.798 -0.5185  0.0113  0.0443
14408TIP3   OH264714   2.655   5.522   5.451  0.1122 -0.1502 -0.2900
14408TIP3    H164715   2.700   5.554   5.529 -1.0056 -1.5150  0.9781
14408TIP3    H264716   2.591   5.590   5.431  1.2717  0.8179 -0.8448
14409TIP3   OH264717   5.791   3.542  16.496 -0.2294 -0.2655  0.1777
14409TIP3    H164718   5.748   3.532  16.580  0.6671 -1.0209  0.5732
14409TIP3    H264719   5.808   3.452  16.467  0.0705 -0.0015 -0.4815
14410TIP3   OH264720   3.641   3.586  12.782  0.0147 -0.3588 -0.1717
14410TIP3    H164721   3.604   3.663  12.738  1.1090  0.0792 -0.3831
14410TIP3    H264722   3.725   3.617  12.817 -0.9363 -0.6091  2.5485
14411TIP3   OH264723   3.530   0.637  15.238 -0.1947 -0.0571  0.5817
14411TIP3    H164724   3.620   0.604  15.242 -0.0088  0.1115 -1.1540
14411TIP3    H264725   3.496   0.627  15.327  2.5036  2.6696  2.1093
14412TIP3   OH264726   2.846   2.015   0.380 -0.2557 -0.1469  0.1186
14412TIP3    H164727   2.900   2.046   0.307 -0.5978  1.9789  0.7018
14412TIP3    H264728   2.867   1.922   0.387 -0.3195 -0.4713 -2.7408
14413TIP3   OH264729   3.569   1.339   2.397  0.1321  0.3441  0.2688
14413TIP3    H164730   3.580   1.434   2.398 -0.7397  0.4949 -1.3076
14413TIP3    H264731   3.475   1.325   2.408  0.4029 -0.4374  2.0402
14414TIP3   OH264732   5.560   2.020  11.583 -0.0506  0.2696 -0.4796
14414TIP3    H164733   5.604   1.940  11.554 -0.6628 -0.3770  0.3352
14414TIP3    H264734   5.592   2.034  11.672  0.7955  1.4978 -0.9487
14415TIP3   OH264735   5.752   1.437  12.194 -0.5106  0.2727 -0.3615
14415TIP3    H164736   5.847   1.432  12.185 -0.3455  2.8910 -1.1442
14415TIP3    H264737   5.721   1.452  12.105 -1.4261  1.3206  0.1071
14416TIP3   OH264738   5.692   2.705   3.413  0.1896  0.3309  0.2156
14416TIP3    H164739   5.625   2.642   3.438  1.6435 -0.8343  1.3834
14416TIP3    H264740   5.648   2.789   3.412 -1.6118 -0.5723 -0.5331
14417TIP3   OH264741   2.391   3.595   0.988  0.2903  0.6293 -0.3859
14417TIP3    H164742   2.456   3.664   0.978 -1.6498  2.6986  0.2840
14417TIP3    H264743   2.431   3.533   1.049  1.1573  2.5633  1.1538
14418TIP3   OH264744   0.255   5.726  13.773  0.1321 -0.1061  0.1287
14418TIP3    H164745   0.217   5.757  13.691 -1.3166  0.6060  1.0314
14418TIP3    H264746   0.332   5.676  13.746  1.0413  2.0398 -1.5303
14419TIP3   OH264747   3.582   1.953  15.155  0.3126  0.4510 -0.0043
14419TIP3    H164748   3.651   1.913  15.208  1.6304  1.8386 -0.5936
14419TIP3    H264749   3.608   1.936  15.064 -1.5014 -1.2160 -0.2782
14420TIP3   OH264750   4.725   0.855  13.425  0.4728 -0.2025  0.1316
14420TIP3    H164751   4.706   0.866  13.332 -1.9971 -1.8368  0.3424
14420TIP3    H264752   4.662   0.912  13.469  2.3762  1.4357  0.8414
14421TIP3   OH264753   1.372   0.032  12.354  0.8820  0.0187 -0.2660
14421TIP3    H164754   1.347  -0.052  12.317 -1.3343  0.5840 -0.1909
14421TIP3    H264755   1.354   0.095  12.284 -0.6403  0.7688  0.7447
14422TIP3   OH264756   1.896   5.550   3.185  0.5828 -0.0282  0.1946
14422TIP3    H164757   1.904   5.543   3.089 -1.1182  0.1336  0.0182
14422TIP3    H264758   1.891   5.459   3.215  3.1179 -0.1823  0.3791
14423TIP3   OH264759   2.727   4.518  14.036 -0.4123 -0.5267  0.4607
14423TIP3    H164760   2.635   4.543  14.025 -0.1487  1.0462  1.5303
14423TIP3    H264761   2.764   4.587  14.091  1.7526 -0.4084 -1.0397
14424TIP3   OH264762   4.834   2.854   3.166  0.1328 -0.4988 -0.4634
14424TIP3    H164763   4.744   2.829   3.188  0.5845 -2.3345 -0.5465
14424TIP3    H264764   4.830   2.875   3.073 -0.5963  1.5032 -0.0269
14425TIP3   OH264765   5.561   6.197   3.714 -0.3790  0.0358  0.2894
14425TIP3    H164766   5.507   6.276   3.711 -0.0795  0.2316 -1.9091
14425TIP3    H264767   5.509   6.131   3.667 -0.5706 -1.0786  1.9743
14426TIP3   OH264768   3.405   5.161   1.954 -0.4387  0.1213  0.7281
14426TIP3    H164769   3.490   5.116   1.946 -0.6903 -0.0548 -2.3045
14426TIP3    H264770   3.353   5.103   2.009  0.8058 -0.7641  1.0268
14427TIP3   OH264771   0.097   5.491  13.864  0.5011 -0.2244 -0.2086
14427TIP3    H164772   0.083   5.585  13.871  0.1347 -0.2660 -0.3551
14427TIP3    H264773   0.010   5.453  13.873  0.8466 -0.6654  1.8129
14428TIP3   OH264774   3.235   4.915   1.550  0.0428  0.6437  0.2530
14428TIP3    H164775   3.323   4.884   1.526 -0.2363 -1.2041  1.4074
14428TIP3    H264776   3.249   5.005   1.579  1.2975  0.9097 -1.0421
14429TIP3   OH264777   4.699   3.745  11.193  0.9163  0.1143  0.3719
14429TIP3    H164778   4.693   3.801  11.116 -2.6461  1.2567  1.3048
14429TIP3    H264779   4.637   3.673  11.175  1.4983 -0.6667  1.3756
14430TIP3   OH264780   3.792   6.135   2.062  0.3799 -0.1536  0.6811
14430TIP3    H164781   3.860   6.104   2.003  1.2861 -0.5697  1.9233
14430TIP3    H264782   3.821   6.222   2.090 -0.6541  0.5888 -0.3885
14431TIP3   OH264783   4.599   0.490  15.740  0.7853  0.0088 -0.2668
14431TIP3    H164784   4.527   0.451  15.690  0.9779  0.3196 -0.7899
14431TIP3    H264785   4.569   0.488  15.831  0.9509 -1.7374 -0.2171
14432TIP3   OH264786   3.218   1.927   4.105  0.0773 -0.0173  0.3980
14432TIP3    H164787   3.180   1.851   4.150 -0.5510  0.1721  0.1896
14432TIP3    H264788   3.264   1.889   4.029  1.0367 -0.3256  1.1114
14433TIP3   OH264789   0.331   0.043   5.967 -0.0227 -0.6750 -0.3891
14433TIP3    H164790   0.288  -0.020   6.026 -1.1160  1.1597  0.8777
14433TIP3    H264791   0.260   0.097   5.933  0.8353 -0.3908 -1.8386
14434TIP3   OH264792   6.805   4.281   0.523 -0.2495  0.2139  0.2910
14434TIP3    H164793   6.812   4.269   0.428  0.7394 -1.3083  0.5172
14434TIP3    H264794   6.712   4.291   0.539 -0.5759 -0.9428 -0.7128
14435TIP3   OH264795   3.158   6.708   5.048 -0.1825 -0.1460  0.0740
14435TIP3    H164796   3.176   6.614   5.049  0.1006 -0.1225 -1.0898
14435TIP3    H264797   3.083   6.718   4.989 -0.4820  0.3260  0.5195
14436TIP3   OH264798   1.258   5.854  16.594  0.9644 -0.1163  0.1488
14436TIP3    H164799   1.303   5.911  16.656 -1.4778 -0.5499  2.4748
14436TIP3    H264800   1.236   5.776  16.645 -0.2480 -0.9421 -1.5440
14437TIP3   OH264801   2.530   4.635   0.061  0.5563 -0.2003  0.5784
14437TIP3    H164802   2.554   4.593   0.144  0.3979 -1.9669 -0.2291
14437TIP3    H264803   2.613   4.666   0.025  1.2622 -3.0189 -0.4591
14438TIP3   OH264804   4.509   1.678   5.718  0.4167  0.1240 -0.3932
14438TIP3    H164805   4.592   1.637   5.745 -0.3900 -1.3512 -0.0067
14438TIP3    H264806   4.523   1.772   5.730  1.3640 -0.2252  1.6402
14439TIP3   OH264807   0.275   5.997  11.839 -0.0661  0.4665  0.1485
14439TIP3    H164808   0.291   6.076  11.787 -0.2562 -0.0748 -0.7527
14439TIP3    H264809   0.184   6.006  11.868 -0.3796  0.1822 -0.6938
14440TIP3   OH264810   2.619   3.890   2.424 -0.5668  0.2912  0.0085
14440TIP3    H164811   2.588   3.858   2.339 -0.7739  1.0166 -0.2018
14440TIP3    H264812   2.614   3.985   2.416 -0.6386  0.3624  0.8584
14441TIP3   OH264813   0.779   2.424   4.937  0.1275 -0.3224 -0.1332
14441TIP3    H164814   0.725   2.482   4.883 -0.2484 -1.0457 -0.5467
14441TIP3    H264815   0.808   2.356   4.877 -0.8700 -1.5308  0.7223
14442TIP3   OH264816   6.423   4.136   5.736  0.2052 -0.2590  0.0705
14442TIP3    H164817   6.382   4.218   5.761  0.4022 -0.3815  0.8144
14442TIP3    H264818   6.517   4.154   5.737  0.2501 -0.4957  0.2404
14443TIP3   OH264819   2.318   1.250   2.837  0.4609  0.0148  0.0220
14443TIP3    H164820   2.285   1.339   2.854 -0.6497 -0.4886  0.6207
14443TIP3    H264821   2.275   1.196   2.903 -1.1192 -1.4290 -2.0588
14444TIP3   OH264822   1.452   2.109   0.325  0.0840 -0.3837 -0.1581
14444TIP3    H164823   1.546   2.117   0.306 -0.0634 -0.9490 -1.1547
14444TIP3    H264824   1.415   2.066   0.248 -0.6375 -2.2723  1.1666
14445TIP3   OH264825   6.557   3.866   1.479 -0.2441 -1.3642 -0.2364
14445TIP3    H164826   6.487   3.860   1.544  0.1722 -0.8292  0.2725
14445TIP3    H264827   6.632   3.900   1.528  0.0798 -0.9661 -0.9955
14446TIP3   OH264828   4.578   2.226   5.924 -0.1311 -0.3862  0.3796
14446TIP3    H164829   4.587   2.321   5.924  2.4190 -0.4749 -2.7115
14446TIP3    H264830   4.483   2.211   5.916 -0.4332  2.0178 -1.8487
14447TIP3   OH264831   1.134   5.368  12.797 -0.2476  0.3796 -0.3484
14447TIP3    H164832   1.228   5.359  12.785 -0.0212  2.7872 -0.7995
14447TIP3    H264833   1.096   5.322  12.722  0.7784  3.2945 -2.8431
14448TIP3   OH264834   5.756   6.297  16.241  0.0028 -0.2405  0.3113
14448TIP3    H164835   5.712   6.349  16.309  1.6173  1.2043  0.3289
14448TIP3    H264836   5.685   6.267  16.185 -1.2140  0.0034  1.6570
14449TIP3   OH264837   0.611   3.119   1.664  0.0173 -0.9703 -0.3174
14449TIP3    H164838   0.527   3.078   1.686  0.0041 -1.0604 -0.5368
14449TIP3    H264839   0.631   3.087   1.576 -0.1225 -0.2994 -0.6021
14450TIP3   OH264840   1.350   3.005  15.758  0.7581  0.2265 -0.0284
14450TIP3    H164841   1.387   3.040  15.839  4.1981 -0.7415 -1.0046
14450TIP3    H264842   1.377   2.913  15.758 -1.3902 -0.4794 -1.1453
14451TIP3   OH264843   1.237   2.323   3.656 -0.3695 -0.2666  0.1534
14451TIP3    H164844   1.325   2.357   3.675 -1.2673  1.3494  1.6848
14451TIP3    H264845   1.200   2.387   3.596 -0.8826 -0.3597  0.3689
14452TIP3   OH264846   5.894   1.031  16.459  0.0163 -0.8978 -0.0326
14452TIP3    H164847   5.960   0.965  16.482  1.0277 -0.3762 -1.3040
14452TIP3    H264848   5.810   0.986  16.470  0.6882 -2.7365 -1.7600
14453TIP3   OH264849   3.602   0.937   3.756 -0.0019  0.2581 -0.3845
14453TIP3    H164850   3.509   0.957   3.758 -0.8177 -3.0141 -0.2317
14453TIP3    H264851   3.617   0.885   3.835  2.5485  2.6667  0.8745
14454TIP3   OH264852   3.910   0.816  12.333  0.2764 -0.3079 -0.1398
14454TIP3    H164853   3.975   0.787  12.269 -0.7325 -2.5313 -0.2617
14454TIP3    H264854   3.866   0.735  12.361 -1.2010  0.9099  1.2976
14455TIP3   OH264855   0.421   3.042  16.303 -0.1763 -0.2288  0.0338
14455TIP3    H164856   0.376   2.978  16.247 -2.3991  2.2597 -1.2809
14455TIP3    H264857   0.464   3.101  16.241  1.0459  0.1048  1.1686
14456TIP3   OH264858   1.992   1.253   2.929  0.1733  0.4361  0.0397
14456TIP3    H164859   1.912   1.305   2.941  0.8666  1.9436 -1.4329
14456TIP3    H264860   2.063   1.317   2.935  1.0801 -0.3221 -1.7686
14457TIP3   OH264861   2.578   2.712  13.123  0.4960  0.0968  0.3205
14457TIP3    H164862   2.632   2.707  13.044 -0.9097 -1.7815 -0.5901
14457TIP3    H264863   2.607   2.792  13.166 -0.0119  2.2708 -3.0526
14458TIP3   OH264864   2.119   0.654  13.075  0.0955  0.0934  0.2676
14458TIP3    H164865   2.037   0.604  13.076 -0.1154  0.4370  1.0834
14458TIP3    H264866   2.094   0.738  13.036 -0.1644  0.5414  1.3624
14459TIP3   OH264867   2.020   6.763   1.742 -0.4888 -0.2298  0.1582
14459TIP3    H164868   2.029   6.775   1.837 -0.5715 -0.7640  0.2343
14459TIP3    H264869   2.094   6.812   1.705 -0.4946  0.0338  0.4949
14460TIP3   OH264870   4.310   1.986  15.521 -0.4867 -0.4376 -0.0005
14460TIP3    H164871   4.362   1.914  15.557 -0.2192  0.3066  1.1516
14460TIP3    H264872   4.369   2.032  15.461 -0.1772 -0.2723  0.4297
14461TIP3   OH264873   1.457   3.445   4.456 -0.4937 -0.5457 -0.0904
14461TIP3    H164874   1.506   3.515   4.413 -0.3845 -0.9613 -0.6526
14461TIP3    H264875   1.522   3.402   4.512 -0.3641 -0.6993 -0.3562
14462TIP3   OH264876   0.030   1.449  11.085 -0.3713  0.0570 -0.1624
14462TIP3    H164877  -0.031   1.493  11.144 -0.7792 -1.5688  0.6902
14462TIP3    H264878   0.117   1.470  11.122 -0.6477 -1.7173  1.6877
14463TIP3   OH264879   3.704   0.218   4.976 -0.0584 -0.4565 -0.6840
14463TIP3    H164880   3.710   0.188   4.885 -1.3976 -2.4290 -0.1723
14463TIP3    H264881   3.633   0.168   5.014  0.7078  0.0425  1.5921
14464TIP3   OH264882   2.267   4.841   6.189 -0.2983 -0.5172 -0.0125
14464TIP3    H164883   2.202   4.910   6.193 -0.3892 -0.5945 -0.1714
14464TIP3    H264884   2.218   4.762   6.165  0.2562 -0.0350 -3.0621
14465TIP3   OH264885   5.071   3.938  13.048  0.1950  0.2896  0.3888
14465TIP3    H164886   5.081   3.872  12.979  0.8424  1.9993 -1.2249
14465TIP3    H264887   5.161   3.961  13.072  0.0014  1.0573  0.4167
14466TIP3   OH264888   4.932   0.787   1.989  0.1527 -0.4898 -0.6514
14466TIP3    H164889   4.905   0.796   2.081  1.8986 -1.6101  0.0073
14466TIP3    H264890   4.872   0.846   1.942 -0.8595  0.0452  1.1630
14467TIP3   OH264891   4.264   0.981   2.774 -0.2903  0.3658  0.7216
14467TIP3    H164892   4.213   0.948   2.700 -2.0543 -1.8330  2.7710
14467TIP3    H264893   4.224   1.065   2.795 -1.2721 -0.0549  0.5901
14468TIP3   OH264894   6.142   5.090  14.997  0.4414  0.5306 -0.1012
14468TIP3    H164895   6.228   5.106  14.957  0.0587  0.3847 -0.9960
14468TIP3    H264896   6.143   4.996  15.018 -0.3349 -0.0065 -2.2105
14469TIP3   OH264897   5.267   1.938   1.815 -0.1552  0.1887  0.1135
14469TIP3    H164898   5.176   1.907   1.814 -0.5393  1.2595  0.1647
14469TIP3    H264899   5.291   1.939   1.908 -0.1514  0.0633  0.1137
14470TIP3   OH264900   5.807   4.834  11.077 -0.1706  0.4373  0.1894
14470TIP3    H164901   5.716   4.856  11.058  0.5548  2.6697 -0.9530
14470TIP3    H264902   5.841   4.910  11.124  1.0526 -0.4953  0.8616
14471TIP3   OH264903   5.698   6.073   2.653 -0.5208 -0.6592  0.2532
14471TIP3    H164904   5.669   6.027   2.731 -1.7363  2.3268  1.7143
14471TIP3    H264905   5.781   6.114   2.678  0.6762 -2.1540 -1.0910
14472TIP3   OH264906   0.327   5.233  15.600 -0.7349 -0.4419 -0.2310
14472TIP3    H164907   0.253   5.254  15.543  0.5373  0.9147 -1.4772
14472TIP3    H264908   0.381   5.174  15.548 -0.2413 -0.3005  0.1208
14473TIP3   OH264909   6.851   1.966   5.200 -0.2571  0.5194 -0.4076
14473TIP3    H164910   6.882   1.947   5.111  0.5791  0.0191 -0.0152
14473TIP3    H264911   6.794   1.892   5.222 -1.1873  1.0820 -0.8518
14474TIP3   OH264912   3.700   2.811   3.480 -0.2580 -0.0116  0.1325
14474TIP3    H164913   3.679   2.883   3.420  0.1751  0.5635  0.6486
14474TIP3    H264914   3.759   2.754   3.430  2.7680  2.1313  0.9342
14475TIP3   OH264915   2.659   2.334   4.384 -0.0774  0.0987  0.4105
14475TIP3    H164916   2.670   2.328   4.479 -0.0673 -0.0311  0.4003
14475TIP3    H264917   2.713   2.409   4.358  1.2250 -0.8564  0.2855
14476TIP3   OH264918   5.218   4.663   3.643  0.8036 -0.0367  0.1895
14476TIP3    H164919   5.294   4.646   3.588  0.2962  0.0914 -0.5789
14476TIP3    H264920   5.143   4.646   3.586  0.2611  0.5770  0.6980
14477TIP3   OH264921   2.999   1.762  11.495 -0.3174 -0.3529  0.8763
14477TIP3    H164922   2.905   1.762  11.511 -0.4949  2.8334  0.5435
14477TIP3    H264923   3.010   1.815  11.416  1.8158  0.3973  1.6095
14478TIP3   OH264924   0.547   1.523   4.995 -0.5857  0.2763  0.1907
14478TIP3    H164925   0.632   1.495   4.961 -1.3164 -2.5372  0.4038
14478TIP3    H264926   0.483   1.473   4.944 -1.9014 -0.5440  2.4888
14479TIP3   OH264927   5.969   0.727  16.685 -0.5319 -0.4728  0.2764
14479TIP3    H164928   6.053   0.690  16.655 -0.0206 -1.2669  2.4589
14479TIP3    H264929   5.910   0.652  16.688 -0.9347 -0.1661  0.0391
14480TIP3   OH264930   1.666   6.007  12.225 -0.3399  0.0167  0.1979
14480TIP3    H164931   1.641   6.080  12.281  1.4149  0.2203  0.7792
14480TIP3    H264932   1.591   5.947  12.229 -0.7155  0.5378  1.8617
14481TIP3   OH264933   3.159   4.723  13.573  0.3979 -0.6612  0.1982
14481TIP3    H164934   3.218   4.744  13.500  1.6273  1.6868  1.7202
14481TIP3    H264935   3.075   4.759  13.547  1.0196  0.8697  0.1965
14482TIP3   OH264936   2.483   4.078   5.995  0.5682 -0.2434 -0.3699
14482TIP3    H164937   2.496   3.986   6.018  0.0149 -0.1811  0.2099
14482TIP3    H264938   2.390   4.085   5.975  0.4675  0.3342  0.2594
14483TIP3   OH264939   0.534   1.101  16.586  0.3653  0.2689  0.7203
14483TIP3    H164940   0.542   1.176  16.528 -0.8542  1.7440  2.3390
14483TIP3    H264941   0.452   1.059  16.560  0.6387 -0.0358  0.3416
14484TIP3   OH264942   5.849   2.876  10.171  0.1782 -0.1695  0.0357
14484TIP3    H164943   5.759   2.867  10.141 -0.2964 -0.7043  1.5445
14484TIP3    H264944   5.888   2.790  10.154 -0.2700 -0.6780  1.4367
14485TIP3   OH264945   1.618   1.900  14.995  0.2984  0.4785 -0.4819
14485TIP3    H164946   1.557   1.948  15.053  0.2435  0.1205 -0.2421
14485TIP3    H264947   1.575   1.816  14.980 -1.0937  1.5965 -3.4092
14486TIP3   OH264948   3.738   0.808   2.159 -0.1621  0.2619  0.2825
14486TIP3    H164949   3.642   0.806   2.163 -0.1948 -0.8455 -0.4023
14486TIP3    H264950   3.766   0.787   2.248 -0.6005 -1.5357  0.0509
14487TIP3   OH264951   5.561   0.403   0.484 -0.8038  0.1933 -0.0628
14487TIP3    H164952   5.582   0.407   0.577  0.7467 -0.6691 -0.3435
14487TIP3    H264953   5.488   0.342   0.478  0.3236 -1.2536  0.4272
14488TIP3   OH264954   1.063   6.468  16.929  0.0993  0.3881 -0.3361
14488TIP3    H164955   1.036   6.381  16.958  0.9776 -0.3709 -1.7064
14488TIP3    H264956   1.056   6.523  17.007 -0.8364 -0.8107  0.4572
14489TIP3   OH264957   4.534   2.404  13.563  0.1985 -1.0109 -0.1562
14489TIP3    H164958   4.596   2.333  13.576  0.1203 -0.7577  1.8068
14489TIP3    H264959   4.588   2.481  13.546  0.3882 -1.0177  0.4042
14490TIP3   OH264960   5.516   1.392  15.027 -0.1417  0.2374 -0.0188
14490TIP3    H164961   5.558   1.476  15.007  0.9995 -0.3686 -0.3023
14490TIP3    H264962   5.562   1.361  15.106 -0.0381 -0.4532 -0.3425
14491TIP3   OH264963   2.843   4.224  11.901  0.5259 -0.0565  0.7398
14491TIP3    H164964   2.832   4.318  11.915  0.4019  0.1686 -0.7583
14491TIP3    H264965   2.935   4.208  11.920  0.7433  0.5233  0.1994
14492TIP3   OH264966   1.776   4.962  15.547  0.1892  0.5035  0.2610
14492TIP3    H164967   1.820   4.877  15.552  0.1494  0.3849 -1.0028
14492TIP3    H264968   1.683   4.941  15.552  0.2092  0.5929  1.1459
14493TIP3   OH264969   0.532   1.545   1.837 -0.2063  0.1452  0.3668
14493TIP3    H164970   0.457   1.602   1.819  0.7055  1.0473 -0.7594
14493TIP3    H264971   0.516   1.467   1.784 -1.6470 -0.8818  2.2024
14494TIP3   OH264972   4.086   5.253   4.546 -0.1081 -0.3634 -0.4056
14494TIP3    H164973   4.090   5.309   4.623  1.3246  0.7018 -1.2037
14494TIP3    H264974   4.095   5.164   4.581 -0.2053  0.0527  0.7038
14495TIP3   OH264975   3.981   1.210   2.216 -0.5767  0.2216  0.0840
14495TIP3    H164976   3.961   1.171   2.131 -0.8743  2.3160 -0.8643
14495TIP3    H264977   4.076   1.205   2.223 -0.5575 -0.0556 -0.3258
14496TIP3   OH264978   6.129   2.139   0.521 -0.1453  0.0546  0.1128
14496TIP3    H164979   6.102   2.152   0.430 -1.0046 -0.8049  0.2377
14496TIP3    H264980   6.084   2.059   0.549 -1.0642  1.1026  1.7652
14497TIP3   OH264981   1.735   5.136   3.637 -0.5952 -0.1008 -0.1211
14497TIP3    H164982   1.657   5.185   3.664  0.4152  0.5783  1.7499
14497TIP3    H264983   1.799   5.204   3.613 -0.3972 -0.6376 -1.2099
14498TIP3   OH264984   2.314   0.464  13.908  0.3060 -1.1830 -0.1350
14498TIP3    H164985   2.375   0.445  13.837  2.2348 -1.2974  1.4305
14498TIP3    H264986   2.360   0.529  13.962 -1.2397 -0.8082  0.7926
14499TIP3   OH264987   2.379   5.732  13.148  0.3287 -0.1055 -0.0113
14499TIP3    H164988   2.316   5.803  13.159  0.4939  0.1478 -0.6675
14499TIP3    H264989   2.463   5.776  13.138 -0.0107 -0.0811 -4.5825
14500TIP3   OH264990   1.642   4.191   3.306 -0.3142  0.2867 -0.4582
14500TIP3    H164991   1.637   4.250   3.231  0.6996  0.2376 -0.5717
14500TIP3    H264992   1.667   4.107   3.269  1.5528  0.5777  0.0688
14501TIP3   OH264993   4.132   1.802   3.982 -0.3757 -0.2529 -0.3257
14501TIP3    H164994   4.056   1.827   4.033  0.3974 -1.9117  1.7972
14501TIP3    H264995   4.175   1.885   3.960 -1.4351  0.5682  0.6121
14502TIP3   OH264996   1.010   4.877  14.121 -0.5876 -0.2838  0.0754
14502TIP3    H164997   1.084   4.879  14.181  0.0048 -1.4851 -0.5539
14502TIP3    H264998   0.997   4.968  14.095 -0.0700  0.0850  1.0680
14503TIP3   OH264999   5.894   0.911  11.428  0.2342 -0.1878 -0.3660
14503TIP3    H165000   5.843   0.987  11.458  0.0487 -0.0564 -1.0115
14503TIP3    H265001   5.830   0.853  11.388  0.5412 -0.1544 -0.9195
14504TIP3   OH265002   5.604   3.768  15.264 -0.5630 -0.1690 -0.3085
14504TIP3    H165003   5.535   3.796  15.324  0.4110 -1.7081  1.6512
14504TIP3    H265004   5.559   3.752  15.181 -1.7562  3.2100 -0.4751
14505TIP3   OH265005   6.362   6.327  12.894  0.6879 -0.5164 -0.2206
14505TIP3    H165006   6.344   6.370  12.978  0.8827  1.6069 -1.2190
14505TIP3    H265007   6.278   6.291  12.866  0.4085 -0.3458  0.3809
14506TIP3   OH265008   5.609   3.992   2.791  0.2388 -0.3004 -0.4341
14506TIP3    H165009   5.558   4.052   2.737  2.1020  1.4373 -0.4262
14506TIP3    H265010   5.693   4.037   2.803  0.9151 -1.9208  1.5129
14507TIP3   OH265011   3.166   3.222  13.419 -0.1273  0.0072 -0.2568
14507TIP3    H165012   3.112   3.299  13.431 -1.2066 -0.9795  1.6179
14507TIP3    H265013   3.223   3.244  13.344  0.4802  3.0667  0.9534
14508TIP3   OH265014   0.808   0.582  11.410 -0.5934  0.3879  0.1800
14508TIP3    H165015   0.767   0.600  11.325 -0.4803  1.0094  0.2525
14508TIP3    H265016   0.821   0.487  11.411  0.3094  0.4811 -0.9157
14509TIP3   OH265017   3.264   0.334  16.655 -0.2208 -0.5527 -0.5938
14509TIP3    H165018   3.293   0.423  16.636  1.9784 -0.9707  0.5055
14509TIP3    H265019   3.171   0.343  16.678 -0.3201  1.2734 -1.5721
14510TIP3   OH265020   0.465   5.677  14.025  0.8479  0.5890 -0.3378
14510TIP3    H165021   0.501   5.603  14.074  0.8831  0.4173 -0.6234
14510TIP3    H265022   0.371   5.674  14.042  0.5189 -0.8202 -2.0621
14511TIP3   OH265023   3.058   4.295  12.331 -0.1476  0.3738  0.1493
14511TIP3    H165024   3.123   4.247  12.383 -0.2990 -0.4972 -0.4576
14511TIP3    H265025   2.992   4.322  12.395  0.5561  0.8522  0.6934
14512TIP3   OH265026   2.568   5.724  16.645 -0.3632  0.5325 -0.7256
14512TIP3    H165027   2.606   5.679  16.570  0.1919 -1.5301  0.7066
14512TIP3    H265028   2.475   5.702  16.643 -0.2515  0.0378 -0.5221
14513TIP3   OH265029   0.927   6.752  15.273  0.1922  0.1901  0.0609
14513TIP3    H165030   0.875   6.798  15.339 -1.3310 -0.6069 -0.5402
14513TIP3    H265031   0.947   6.819  15.207  0.1502  0.5700  0.4330
14514TIP3   OH265032   2.820   3.256   1.509 -0.4702  0.0054 -0.4225
14514TIP3    H165033   2.909   3.222   1.511 -1.3003 -2.3607 -0.5392
14514TIP3    H265034   2.769   3.187   1.468 -2.5591  0.7905  0.7082
14515TIP3   OH265035   3.022   3.341  13.224  0.3557 -0.0999 -0.5391
14515TIP3    H165036   2.927   3.334  13.219  0.3144  0.2125 -0.2167
14515TIP3    H265037   3.040   3.435  13.220  0.5678 -0.0704  0.6365
14516TIP3   OH265038   1.466   1.548   3.648 -0.2865 -0.4943  0.1669
14516TIP3    H165039   1.381   1.571   3.685  0.9499  1.3140  2.1809
14516TIP3    H265040   1.491   1.626   3.598  0.9365 -0.1936  1.1787
14517TIP3   OH265041   0.655   5.301   0.928  0.5464  0.8784 -1.1611
14517TIP3    H165042   0.660   5.249   0.848  0.0242  0.6697 -1.0649
14517TIP3    H265043   0.736   5.282   0.975 -0.2918 -1.0687 -0.3951
14518TIP3   OH265044   0.278   5.739  14.299  0.1458  0.1260  0.0470
14518TIP3    H165045   0.374   5.737  14.294  0.1192  1.0413 -1.6064
14518TIP3    H265046   0.251   5.785  14.219 -1.6327  0.8268  1.0001
14519TIP3   OH265047   0.085   6.253   5.610 -1.0771  0.2461 -0.2390
14519TIP3    H165048  -0.010   6.252   5.626 -0.9257 -0.8129  0.6858
14519TIP3    H265049   0.112   6.342   5.634 -1.7598  0.4172 -0.0721
14520TIP3   OH265050   3.447   0.518   5.999  0.2755 -0.1868  0.1086
14520TIP3    H165051   3.406   0.440   6.037  0.5053 -0.0463  0.6630
14520TIP3    H265052   3.477   0.568   6.075  1.1188 -0.0911 -0.2784
14521TIP3   OH265053   2.323   3.193  10.558  0.5420 -0.2787  0.2063
14521TIP3    H165054   2.277   3.219  10.478 -3.9929 -0.1193  2.5365
14521TIP3    H265055   2.407   3.240  10.553  0.9330 -0.9305 -4.6798
14522TIP3   OH265056   4.407   5.215  12.364 -0.4738  0.5073  0.1596
14522TIP3    H165057   4.476   5.174  12.312  0.6467 -0.5628  2.3291
14522TIP3    H265058   4.428   5.308  12.362  1.4701  0.1735  1.1915
14523TIP3   OH265059   5.368   3.953   2.513 -0.7225  0.0661 -0.0333
14523TIP3    H165060   5.441   3.996   2.469 -0.0835 -1.5076 -0.6153
14523TIP3    H265061   5.403   3.868   2.541 -0.8510  1.1969  4.2725
14524TIP3   OH265062   0.307   0.146  10.418 -0.0639 -0.0165  0.0068
14524TIP3    H165063   0.280   0.175  10.331 -2.0604 -0.5723  0.4020
14524TIP3    H265064   0.264   0.206  10.478  0.4106 -0.3113  0.6542
14525TIP3   OH265065   4.318   1.663  12.269  0.5907 -0.0885 -0.2988
14525TIP3    H165066   4.398   1.693  12.314 -0.3344  0.4512  1.0382
14525TIP3    H265067   4.261   1.740  12.268 -0.3325 -0.7636 -0.2987
14526TIP3   OH265068   0.681   4.624   1.235 -0.2428  0.0481  0.0075
14526TIP3    H165069   0.616   4.654   1.171  0.8105  3.3927  0.2905
14526TIP3    H265070   0.725   4.551   1.191 -1.2595  0.5516 -2.0038
14527TIP3   OH265071   0.850   3.578   0.923  0.0072  0.3270  0.1464
14527TIP3    H165072   0.782   3.536   0.975 -1.4506  1.2500 -0.9482
14527TIP3    H265073   0.893   3.506   0.877 -0.2284 -0.2585  0.8145
14528TIP3   OH265074   6.542   6.692   1.747  0.0037  0.3049  0.3739
14528TIP3    H165075   6.564   6.650   1.830  0.9594 -1.4393 -0.6833
14528TIP3    H265076   6.616   6.750   1.729 -0.0180  0.3910  0.5661
14529TIP3   OH265077   4.422   0.547  13.816  0.1837 -0.5619 -0.4878
14529TIP3    H165078   4.351   0.491  13.787 -0.1647  0.2160 -1.1692
14529TIP3    H265079   4.464   0.578  13.736  1.3435 -1.0650 -0.0969
14530TIP3   OH265080   0.753   0.433   2.603  0.4529 -0.4824  0.0666
14530TIP3    H165081   0.750   0.338   2.598 -3.1965 -0.5096 -0.1415
14530TIP3    H265082   0.725   0.454   2.692  2.1886  0.4479  0.4409
14531TIP3   OH265083   3.406   0.710  14.456  0.1037 -0.3069 -0.4487
14531TIP3    H165084   3.340   0.693  14.389  2.3336 -3.2999 -2.1030
14531TIP3    H265085   3.474   0.760  14.411 -1.2909  3.8746  1.5443
14532TIP3   OH265086   1.594   0.484   4.250  0.2237  0.3027  0.3286
14532TIP3    H165087   1.620   0.449   4.335  1.9958 -0.3809 -0.4558
14532TIP3    H265088   1.555   0.569   4.271  0.8256  0.2501  1.8124
14533TIP3   OH265089   2.883   4.763  13.559 -0.3553  0.3759  0.4681
14533TIP3    H165090   2.859   4.749  13.651 -0.4771 -1.9225  0.1566
14533TIP3    H265091   2.847   4.687  13.514  1.0140  0.6843 -1.2415
14534TIP3   OH265092   6.666   3.616  13.298  0.2319  0.0975 -0.1895
14534TIP3    H165093   6.639   3.674  13.227  0.4742 -0.5331 -0.8054
14534TIP3    H265094   6.762   3.613  13.292  0.2948  0.4210  0.4731
14535TIP3   OH265095   3.052   5.661  14.897  0.6568 -0.1420 -0.4903
14535TIP3    H165096   3.140   5.651  14.860  0.7854 -1.2787  0.0824
14535TIP3    H265097   3.057   5.621  14.983 -1.0245 -2.4472 -1.3544
14536TIP3   OH265098   5.558   0.154  13.361 -0.7133  0.0638  0.1138
14536TIP3    H165099   5.633   0.136  13.306 -2.0919 -0.3389 -1.7322
14536TIP3    H265100   5.589   0.219  13.424  0.2917  2.8178 -2.9036
14537TIP3   OH265101   1.480   5.802  12.999 -0.2862 -0.1024  0.0437
14537TIP3    H165102   1.438   5.731  12.951 -0.5883 -0.5004  0.8853
14537TIP3    H265103   1.412   5.836  13.057 -0.3626  1.3497 -0.8266
14538TIP3   OH265104   6.497   3.714   5.431 -0.3826 -1.0689 -0.6543
14538TIP3    H165105   6.592   3.729   5.423 -0.2268 -1.5679  0.1561
14538TIP3    H265106   6.461   3.800   5.453  0.0336 -1.0896  0.1557
14539TIP3   OH265107   5.200   4.619   3.218  0.2292  0.0291  0.7578
14539TIP3    H165108   5.157   4.561   3.282  0.3426  0.3319  1.1068
14539TIP3    H265109   5.146   4.611   3.140  0.6885 -1.1723  0.5391
14540TIP3   OH265110   0.104   5.797   2.931 -0.2130 -0.5240 -0.3263
14540TIP3    H165111   0.022   5.827   2.892  0.4385  1.2132 -0.4552
14540TIP3    H265112   0.099   5.702   2.927 -2.6606 -0.5084  0.5803
14541TIP3   OH265113   2.890   4.534  15.337  0.0849  0.0916  0.0930
14541TIP3    H165114   2.863   4.449  15.374  0.5424  0.1167  0.4991
14541TIP3    H265115   2.972   4.515  15.291  1.1687  0.6252  1.7002
14542TIP3   OH265116   2.363   6.130   1.822  1.3731 -0.2457  0.2173
14542TIP3    H165117   2.371   6.169   1.735  0.9764  1.0630  0.7367
14542TIP3    H265118   2.406   6.192   1.880 -1.1360  0.5866  1.3589
14543TIP3   OH265119   1.959   0.929  13.440  0.5599 -0.1154  0.5105
14543TIP3    H165120   2.041   0.977  13.456  1.0308 -0.2370 -1.2669
14543TIP3    H265121   1.941   0.944  13.347 -0.2837 -1.8722  0.3552
14544TIP3   OH265122   1.321   0.415  15.517  0.0263  0.6434  0.1139
14544TIP3    H165123   1.356   0.439  15.431  2.2734  1.0101  1.0680
14544TIP3    H265124   1.393   0.369  15.561 -1.3950 -0.4073  1.4569
14545TIP3   OH265125   1.087   1.594  14.017 -0.0112 -0.3264 -0.3860
14545TIP3    H165126   1.181   1.606  14.000 -0.1967 -0.9478 -1.9407
14545TIP3    H265127   1.044   1.658  13.961 -0.5400  0.0069  0.3804
14546TIP3   OH265128   2.585   4.618  16.272 -0.3537  0.5411 -0.0007
14546TIP3    H165129   2.539   4.623  16.188 -0.1353  0.1387 -0.1443
14546TIP3    H265130   2.602   4.709  16.295 -0.7978  0.6740 -0.1815
14547TIP3   OH265131   4.140   5.980   5.211  0.6166  0.2694  0.1357
14547TIP3    H165132   4.131   6.073   5.190 -0.2070  0.5802  1.7631
14547TIP3    H265133   4.058   5.956   5.253  0.5848 -1.3720 -0.7629
14548TIP3   OH265134   3.810   3.374   0.025  0.5541 -0.2589  0.0015
14548TIP3    H165135   3.823   3.307  -0.043  0.3098 -0.9995  0.6703
14548TIP3    H265136   3.898   3.390   0.059  0.5840 -0.4353  0.0124
14549TIP3   OH265137   1.791   0.240  11.161 -0.0216  0.5531 -0.6896
14549TIP3    H165138   1.790   0.328  11.123 -2.2569  0.2106 -1.5910
14549TIP3    H265139   1.722   0.242  11.228  1.0637 -0.0589  0.4799
14550TIP3   OH265140   0.765   4.060  11.798 -0.1454  0.3539  0.7127
14550TIP3    H165141   0.845   4.066  11.745 -1.0024  0.0348 -0.6903
14550TIP3    H265142   0.729   4.149  11.795 -0.9397  0.0178 -0.5133
14551TIP3   OH265143   4.804   4.918  11.329  0.5181  0.3080 -0.3799
14551TIP3    H165144   4.833   4.841  11.378 -0.1300  0.9537  1.1003
14551TIP3    H265145   4.883   4.970  11.318  0.7157  0.0513 -0.2136
14552TIP3   OH265146   0.939   6.713  11.798  0.1315  0.0225 -0.0499
14552TIP3    H165147   1.008   6.729  11.734 -0.1050  1.7767  0.0829
14552TIP3    H265148   0.863   6.758  11.763  0.4890  2.7745  2.2803
14553TIP3   OH265149   5.128   5.352   2.620  0.3700 -0.4453 -0.0241
14553TIP3    H165150   5.203   5.402   2.653  0.4836 -1.9131  2.1207
14553TIP3    H265151   5.112   5.388   2.533  2.8802  0.6435 -0.1216
14554TIP3   OH265152   5.221   4.770  13.738 -0.2816  0.5081 -0.3250
14554TIP3    H165153   5.263   4.713  13.803 -3.0172 -0.2803  0.8821
14554TIP3    H265154   5.229   4.858  13.775 -1.3838  0.1211  0.9161
14555TIP3   OH265155   5.037   3.777  11.062  0.2250 -0.3020 -0.0866
14555TIP3    H165156   4.962   3.833  11.045 -0.2122 -0.1990  1.9268
14555TIP3    H265157   4.999   3.694  11.094  0.9211 -0.2149  1.0478
14556TIP3   OH265158   2.017   3.344  11.501 -0.6750 -0.2282  0.1021
14556TIP3    H165159   2.040   3.377  11.588  1.0400  0.8559 -0.7081
14556TIP3    H265160   2.097   3.303  11.468 -1.0128  0.1583 -1.2885
14557TIP3   OH265161   4.808   4.289  15.772  0.5108 -0.0025  0.1305
14557TIP3    H165162   4.824   4.331  15.688  1.6737  0.0443  0.3679
14557TIP3    H265163   4.712   4.291  15.782  0.4712  1.5480 -0.3947
14558TIP3   OH265164   5.231   1.034   4.947  0.0215 -0.5542  0.3321
14558TIP3    H165165   5.306   0.983   4.977 -0.5792 -1.0905  0.9791
14558TIP3    H265166   5.194   0.981   4.876 -0.6795 -1.1122  1.0914
14559TIP3   OH265167   3.483   1.104   0.833  0.4719  1.1099 -0.1134
14559TIP3    H165168   3.512   1.015   0.851  0.7731  1.1750 -0.2771
14559TIP3    H265169   3.402   1.114   0.884  1.7415  1.5707  1.9238
14560TIP3   OH265170   4.017   0.984  15.148  0.0424 -0.2614  0.1998
14560TIP3    H165171   3.966   0.925  15.093  2.2588 -0.2345 -2.0329
14560TIP3    H265172   4.083   1.021  15.090  1.4220  1.1532  2.5019
14561TIP3   OH265173   2.618   0.849   0.479 -0.1636 -0.5306 -0.3199
14561TIP3    H165174   2.550   0.858   0.412  1.0577 -0.9209 -1.6524
14561TIP3    H265175   2.700   0.848   0.430  0.7680 -0.8881  1.1880
14562TIP3   OH265176   4.230   6.738  11.785  0.8572 -0.1777 -0.6982
14562TIP3    H165177   4.313   6.769  11.822  1.0451  0.3028 -1.5084
14562TIP3    H265178   4.209   6.802  11.717 -0.0431 -0.4501 -0.6827
14563TIP3   OH265179   0.469   6.428  13.723  0.3664  0.3110 -0.2664
14563TIP3    H165180   0.465   6.409  13.629 -1.5912 -2.9606  0.3022
14563TIP3    H265181   0.512   6.351  13.760  0.2004  1.0936  1.6370
14564TIP3   OH265182   4.837   3.542  14.989  0.4304 -0.3705  0.2346
14564TIP3    H165183   4.770   3.585  15.042  2.1057  1.9823  0.6226
14564TIP3    H265184   4.918   3.554  15.038  1.6808 -0.1087 -1.7451
14565TIP3   OH265185   3.802   0.123  12.928 -0.0749  0.5862 -0.4883
14565TIP3    H165186   3.798   0.218  12.936 -1.5262  0.4055  2.1651
14565TIP3    H265187   3.723   0.092  12.973  0.9965 -1.9102 -0.1656
14566TIP3   OH265188   0.705   2.291   6.233  0.1934 -0.0022 -0.2625
14566TIP3    H165189   0.723   2.263   6.323  2.6312 -0.6995 -0.9199
14566TIP3    H265190   0.679   2.383   6.242 -0.1181 -0.2006  1.1857
14567TIP3   OH265191   2.604   6.192  16.913 -0.2247  0.1767  0.0142
14567TIP3    H165192   2.562   6.269  16.875  0.5169  0.7162  0.2810
14567TIP3    H265193   2.632   6.140  16.837  1.9597  1.6281 -0.2453
14568TIP3   OH265194   2.581   2.177  12.652  0.1943  0.3388  0.3805
14568TIP3    H165195   2.541   2.194  12.738 -0.1025 -0.9886  0.5286
14568TIP3    H265196   2.659   2.126  12.672 -0.6720 -1.2882 -0.2007
14569TIP3   OH265197   0.196   1.687  15.012 -0.6242  0.0761  0.2262
14569TIP3    H165198   0.269   1.731  14.968 -0.6150  0.6385  0.7714
14569TIP3    H265199   0.179   1.609  14.960  1.1520 -0.7003  0.7440
14570TIP3   OH265200   6.083   3.668  10.857  0.1979 -0.1756  0.2876
14570TIP3    H165201   5.996   3.691  10.889  0.6750  0.7011  1.0145
14570TIP3    H265202   6.109   3.593  10.910  0.5907  0.6738  1.3374
14571TIP3   OH265203   3.080   3.512  10.433 -0.7725  0.1971 -0.3392
14571TIP3    H165204   3.105   3.603  10.417 -1.5813  0.6734  0.9043
14571TIP3    H265205   3.137   3.485  10.505 -0.5690 -0.2633 -0.6734
14572TIP3   OH265206   3.043   0.369  13.635 -0.4031 -0.2362 -0.9475
14572TIP3    H165207   3.073   0.453  13.670 -0.6479 -1.4431  2.5560
14572TIP3    H265208   2.973   0.391  13.574 -0.7545  2.1220  0.2088
14573TIP3   OH265209   1.193   5.157   4.259  0.4672  0.6651  0.2180
14573TIP3    H165210   1.110   5.139   4.216 -0.2879  2.1090  1.0116
14573TIP3    H265211   1.216   5.074   4.302  1.1116 -0.7393 -2.6158
14574TIP3   OH265212   0.535   3.454  15.453  0.1537 -0.0478  0.0819
14574TIP3    H165213   0.509   3.367  15.484 -0.3459 -0.3978 -1.2672
14574TIP3    H265214   0.468   3.513  15.487 -0.1381 -0.3543  0.0385
14575TIP3   OH265215   4.035   0.656   3.540 -0.1257  0.6899  0.0963
14575TIP3    H165216   4.015   0.574   3.585  0.8074  0.7758  0.6792
14575TIP3    H265217   4.045   0.721   3.610 -1.9289  1.5830 -0.3852
14576TIP3   OH265218   3.470   1.606  13.542  0.7610  0.2811 -0.0467
14576TIP3    H165219   3.486   1.516  13.572  2.0519  0.2064 -0.8476
14576TIP3    H265220   3.461   1.598  13.447 -0.5018  0.8495  0.0048
14577TIP3   OH265221   3.181   5.428   0.951 -0.3485  0.0232 -0.5061
14577TIP3    H165222   3.223   5.500   0.904  0.5045  0.1237  0.3665
14577TIP3    H265223   3.099   5.413   0.905 -0.0743  0.8897 -1.3009
14578TIP3   OH265224   4.453   6.656   3.932  0.1915 -0.3926  0.0096
14578TIP3    H165225   4.469   6.577   3.880 -0.8475 -1.0494  0.6493
14578TIP3    H265226   4.396   6.627   4.003 -0.2258  0.9366  0.2491
14579TIP3   OH265227   2.737   5.653   3.967  0.7549  0.2920  0.2751
14579TIP3    H165228   2.713   5.594   4.040 -1.8373  0.9831  0.0719
14579TIP3    H265229   2.827   5.678   3.986  1.7980 -3.1858  0.7277
14580TIP3   OH265230   5.422   3.375   1.323 -0.1979 -0.3670  0.3365
14580TIP3    H165231   5.511   3.399   1.346 -0.5488  1.3909  0.0064
14580TIP3    H265232   5.407   3.291   1.367  2.2739 -1.7462 -1.2743
14581TIP3   OH265233   6.383   1.681   5.825 -0.0147 -0.2041 -0.1496
14581TIP3    H165234   6.293   1.699   5.799  0.1625 -0.8426 -1.2870
14581TIP3    H265235   6.406   1.752   5.885 -1.4827 -0.4099  0.7026
14582TIP3   OH265236   0.825   0.759   0.220  0.1238  0.0441  0.2440
14582TIP3    H165237   0.737   0.729   0.243 -0.0641  0.6440  0.3117
14582TIP3    H265238   0.825   0.852   0.240  0.5636  0.1867 -0.3769
14583TIP3   OH265239   6.260   3.561   3.018 -0.3062 -0.1771 -0.5435
14583TIP3    H165240   6.199   3.560   2.944 -2.1694 -0.8495  0.9182
14583TIP3    H265241   6.322   3.631   2.997 -1.0367 -0.0533 -2.5155
14584TIP3   OH265242   3.872   6.477  12.507 -0.1358 -0.0707 -0.0044
14584TIP3    H165243   3.795   6.440  12.463  0.3619 -1.6886  0.4024
14584TIP3    H265244   3.840   6.503  12.593 -0.4783  0.3612 -0.2605
14585TIP3   OH265245   2.607   1.644   5.078  0.1850 -0.4742 -0.3717
14585TIP3    H165246   2.563   1.647   4.993 -1.2473  0.7179  0.3678
14585TIP3    H265247   2.543   1.679   5.140  2.2038  1.5334  0.7479
14586TIP3   OH265248   0.174   1.977   2.437  0.7332 -0.4998  0.0339
14586TIP3    H165249   0.145   1.938   2.354  0.8767 -0.1745 -0.1736
14586TIP3    H265250   0.099   1.969   2.495  0.8742 -1.4092  0.1113
14587TIP3   OH265251   1.912   1.263  15.611 -0.1102  0.5806  0.5367
14587TIP3    H165252   1.955   1.266  15.526 -0.1828 -0.4535  0.4499
14587TIP3    H265253   1.835   1.319  15.602 -1.1332 -0.9371 -0.6777
14588TIP3   OH265254   3.173   2.632  13.717  0.8935  0.1646 -0.6671
14588TIP3    H165255   3.170   2.564  13.649 -0.6678  2.7407 -3.4216
14588TIP3    H265256   3.082   2.647  13.740  1.1335  1.7669 -0.6551
14589TIP3   OH265257   1.415   3.909  11.742 -0.0333  0.0391  0.2987
14589TIP3    H165258   1.358   3.936  11.671 -0.3772 -0.8281  0.2354
14589TIP3    H265259   1.372   3.833  11.780 -0.0458  0.6897  1.6699
14590TIP3   OH265260   3.866   4.088   1.499 -0.3412 -0.7025  0.3031
14590TIP3    H165261   3.873   4.029   1.575 -0.2618  0.8712  1.5762
14590TIP3    H265262   3.781   4.068   1.461 -0.9200 -0.7179  1.5379
14591TIP3   OH265263   6.399   0.346  11.612 -0.2874  0.6106  0.1001
14591TIP3    H165264   6.418   0.262  11.654  1.2276  0.5433 -0.6461
14591TIP3    H265265   6.455   0.409  11.657 -0.0795  0.8899 -0.5394
14592TIP3   OH265266   1.787   2.016   5.493 -0.3145  0.3664  0.2645
14592TIP3    H165267   1.733   1.951   5.447  1.0531 -0.4304 -0.3046
14592TIP3    H265268   1.727   2.062   5.551 -2.1974  1.5637 -2.4357
14593TIP3   OH265269   0.955   6.814  15.752  0.0601  0.5339 -0.2403
14593TIP3    H165270   1.044   6.830  15.721 -0.1846 -0.1086 -1.3610
14593TIP3    H265271   0.953   6.719  15.769 -0.3019  0.6096  0.1507
14594TIP3   OH265272   1.622   6.239  16.388 -0.1048  0.2704 -0.5784
14594TIP3    H165273   1.566   6.228  16.465 -0.4498 -0.2558 -0.8945
14594TIP3    H265274   1.675   6.159  16.386  1.0252  0.9849 -0.0023
14595TIP3   OH265275   0.182   4.594   5.639  0.1993  0.5740  0.5242
14595TIP3    H165276   0.257   4.635   5.682 -0.6206  0.6433  1.9615
14595TIP3    H265277   0.108   4.649   5.665 -0.5429 -0.3132  0.3223
14596TIP3   OH265278   3.792   0.615  14.925 -0.5630 -0.3199 -0.0726
14596TIP3    H165279   3.777   0.600  14.831  1.4210 -2.3397 -0.1439
14596TIP3    H265280   3.786   0.529  14.965  0.8617  0.1689  1.3006
14597TIP3   OH265281   1.940   2.975  11.757 -0.4033 -0.0840 -0.1690
14597TIP3    H165282   1.878   3.007  11.691 -0.0217  0.2440 -0.3698
14597TIP3    H265283   2.015   2.946  11.706 -0.5442 -0.8493  0.0473
14598TIP3   OH265284   4.710   2.132  13.941  0.2960  0.3955  0.2045
14598TIP3    H165285   4.618   2.121  13.965 -0.2088  0.3367 -1.6134
14598TIP3    H265286   4.718   2.224  13.918  0.8060  0.4907  0.7408
14599TIP3   OH265287   6.207   3.179  11.815 -0.3359 -0.0312 -0.4292
14599TIP3    H165288   6.178   3.119  11.746 -2.9030 -1.8371  1.9671
14599TIP3    H265289   6.254   3.123  11.876 -1.1016  0.7604  0.9327
14600TIP3   OH265290   2.294   3.835  11.470 -0.0134 -0.3161 -0.2680
14600TIP3    H165291   2.347   3.791  11.403  0.7331  2.1510 -1.4165
14600TIP3    H265292   2.341   3.821  11.552  0.8485 -0.6387 -0.8056
14601TIP3   OH265293   6.065   2.109  11.194  0.1638 -0.3131  0.4586
14601TIP3    H165294   6.155   2.078  11.199  0.4712 -0.3534 -2.9882
14601TIP3    H265295   6.056   2.142  11.105 -3.1412  0.0102  0.7984
14602TIP3   OH265296   5.515   6.124   5.888  0.1761 -0.0326 -0.2803
14602TIP3    H165297   5.565   6.164   5.818  1.0653  1.0064  0.8956
14602TIP3    H265298   5.506   6.194   5.954 -1.4843 -0.6612  0.2196
14603TIP3   OH265299   4.074   1.160  15.773 -0.5375  0.3164  0.3754
14603TIP3    H165300   4.124   1.084  15.743  0.4708  1.1653 -0.1106
14603TIP3    H265301   4.002   1.168  15.710  0.8820  1.3625 -1.1908
14604TIP3   OH265302   6.671   5.560  14.132  0.4431 -0.1007  0.3639
14604TIP3    H165303   6.642   5.469  14.127 -0.0319 -0.1278  2.5080
14604TIP3    H265304   6.590   5.611  14.129  0.7278  0.2979 -1.1778
14605TIP3   OH265305   0.994   3.125  12.270  0.2619  0.1052 -0.7457
14605TIP3    H165306   0.940   3.052  12.299  0.8704 -0.1939 -0.3427
14605TIP3    H265307   1.083   3.092  12.273  0.3571  0.0368 -3.0861
14606TIP3   OH265308   0.884   0.275  12.256 -0.3358  0.0971 -0.3036
14606TIP3    H165309   0.799   0.319  12.250 -0.2175  0.3340 -0.2620
14606TIP3    H265310   0.941   0.339  12.298 -0.4106 -0.4549  0.6651
14607TIP3   OH265311   1.695   5.641  13.010 -0.2422 -0.6091 -0.2583
14607TIP3    H165312   1.641   5.719  13.002  1.2934  0.4075 -1.1760
14607TIP3    H265313   1.693   5.601  12.922 -2.2930 -2.5625  0.5608
14608TIP3   OH265314   1.715   0.666  12.922 -0.4662  0.2800 -0.2247
14608TIP3    H165315   1.671   0.594  12.878 -0.6419  0.9188 -1.1354
14608TIP3    H265316   1.728   0.731  12.853  2.1214  0.0298 -0.0650
14609TIP3   OH265317   4.795   4.259   2.735 -0.8977  0.2402 -0.9526
14609TIP3    H165318   4.789   4.208   2.654  0.3543 -0.5863 -0.5503
14609TIP3    H265319   4.742   4.210   2.797 -0.5150 -0.0385 -0.8395
14610TIP3   OH265320   6.773   1.066  15.817 -0.6910  0.1368 -0.3884
14610TIP3    H165321   6.711   1.000  15.850  0.9420 -1.7777 -0.9239
14610TIP3    H265322   6.858   1.020  15.816  0.2476  1.7721 -2.2625
14611TIP3   OH265323   5.224   4.546  14.913 -0.0128 -0.0709 -0.1510
14611TIP3    H165324   5.165   4.540  14.838  0.0263  1.3051 -0.3183
14611TIP3    H265325   5.167   4.554  14.989 -0.0398 -0.6261 -0.1035
14612TIP3   OH265326   2.788   5.789  15.229  0.2822  0.0900 -0.3350
14612TIP3    H165327   2.764   5.733  15.155  0.1346  0.0872 -0.2839
14612TIP3    H265328   2.874   5.823  15.205  0.4596 -0.3099 -0.2808
14613TIP3   OH265329   2.828   0.588  12.814 -0.7115  0.1593  0.5839
14613TIP3    H165330   2.803   0.580  12.906  1.0802 -1.2615  1.0068
14613TIP3    H265331   2.760   0.541  12.766 -1.9842  1.4297  1.0911
14614TIP3   OH265332   5.427   3.903  11.620  0.2561  0.3219  0.4137
14614TIP3    H165333   5.353   3.946  11.663 -0.4279 -0.0591 -0.3572
14614TIP3    H265334   5.409   3.810  11.628  1.3120  0.1595  1.3285
14615TIP3   OH265335   4.243   3.969   4.389 -0.1154 -0.5784 -0.6416
14615TIP3    H165336   4.290   3.890   4.415  0.2144 -0.0048  0.5863
14615TIP3    H265337   4.287   3.997   4.309  1.1344 -0.5092  0.0358
14616TIP3   OH265338   2.407   4.334  16.680  0.0411 -0.2422 -0.2987
14616TIP3    H165339   2.407   4.269  16.750  2.0447 -0.7116 -0.6762
14616TIP3    H265340   2.381   4.415  16.722  0.2081 -0.7362  0.7831
14617TIP3   OH265341   5.917   0.332  15.254 -0.2610  0.2871  0.0418
14617TIP3    H165342   5.853   0.308  15.321  0.2927  0.2033  0.5434
14617TIP3    H265343   5.982   0.262  15.256  1.6009  1.9238  1.8134
14618TIP3   OH265344   3.019   3.396  15.954  0.1356 -0.6630 -0.5878
14618TIP3    H165345   3.092   3.335  15.969  1.2634  0.7202 -0.2290
14618TIP3    H265346   2.941   3.340  15.950  1.3163 -2.3270 -2.1467
14619TIP3   OH265347   1.215   3.769   4.452  0.5362  0.0245  0.6934
14619TIP3    H165348   1.174   3.687   4.426  0.0086  0.0910  1.2859
14619TIP3    H265349   1.272   3.745   4.525  1.7905 -0.1130 -0.2873
14620TIP3   OH265350   5.200   0.479  12.094  0.4172  0.1660 -0.1323
14620TIP3    H165351   5.198   0.536  12.017 -0.3361  0.2226 -0.0748
14620TIP3    H265352   5.206   0.539  12.169 -1.1536  0.2183 -0.0292
14621TIP3   OH265353   6.026   0.929  10.720 -0.1450 -0.2233  0.4512
14621TIP3    H165354   6.070   1.004  10.759 -0.7721  0.0686  0.6258
14621TIP3    H265355   6.024   0.949  10.627  2.0934 -1.3123  0.1226
14622TIP3   OH265356   2.731   5.972   1.919  0.6341  0.2127 -0.2247
14622TIP3    H165357   2.679   6.038   1.965 -0.1370 -0.7887  0.3600
14622TIP3    H265358   2.822   5.997   1.935  0.3547  0.8474  0.4005
14623TIP3   OH265359   1.393   2.034   5.471  0.0581  0.4462 -0.5899
14623TIP3    H165360   1.324   1.985   5.428 -2.9467  1.6546  2.4285
14623TIP3    H265361   1.407   1.987   5.554  1.2869  1.4668 -0.1867
14624TIP3   OH265362   4.800   0.845  11.314  0.0180 -0.0315  0.4777
14624TIP3    H165363   4.844   0.842  11.399  1.4231  2.4456 -0.0471
14624TIP3    H265364   4.869   0.823  11.251 -0.3979  0.4820 -0.1694
14625TIP3   OH265365   2.702   5.057   5.446  0.0734 -0.4276  0.2581
14625TIP3    H165366   2.756   5.088   5.519  0.5585 -0.1691 -0.2073
14625TIP3    H265367   2.676   5.137   5.400 -1.4120 -0.4702  0.9487
14626TIP3   OH265368   5.851   5.800  13.491 -0.1419  0.7813 -0.9838
14626TIP3    H165369   5.775   5.768  13.540  0.1970  0.2554 -0.7911
14626TIP3    H265370   5.850   5.895  13.505 -1.4756  0.9575 -2.0153
14627TIP3   OH265371   3.919   0.873  10.628 -0.6546 -0.0668 -0.4368
14627TIP3    H165372   3.875   0.796  10.664 -0.4894 -0.5552 -1.2549
14627TIP3    H265373   3.880   0.947  10.675  0.5433 -0.7327  1.7848
14628TIP3   OH265374   0.384   6.275  16.035 -0.2145  0.3484  0.5632
14628TIP3    H165375   0.366   6.297  16.126 -0.3009  0.9344  0.4124
14628TIP3    H265376   0.359   6.354  15.986 -2.1007 -0.6608 -0.1914
14629TIP3   OH265377   2.013   2.104  14.042  0.0893  0.2686 -0.2516
14629TIP3    H165378   1.979   2.055  13.968  0.4827 -0.6128  0.1331
14629TIP3    H265379   2.002   2.196  14.018 -1.8932  0.0235 -0.4333
14630TIP3   OH265380   1.973   5.662  10.849 -0.3155 -0.4909  0.2065
14630TIP3    H165381   1.964   5.650  10.943 -0.9151  1.3761  0.4279
14630TIP3    H265382   2.052   5.715  10.839 -0.4280 -0.4167 -0.3206
14631TIP3   OH265383   4.566   0.167   1.697 -0.0101 -0.1749 -0.4323
14631TIP3    H165384   4.539   0.146   1.786 -0.0020 -1.5925 -0.7391
14631TIP3    H265385   4.485   0.162   1.645  0.2370 -0.9043 -0.7565
14632TIP3   OH265386   3.926   4.131  11.654  0.2441  0.4990  0.0563
14632TIP3    H165387   3.974   4.182  11.719 -0.8322 -0.3805  1.6149
14632TIP3    H265388   3.861   4.193  11.619  1.4973  1.2740 -1.0198
14633TIP3   OH265389   1.661   5.960   1.021  0.1478 -0.1639 -0.4764
14633TIP3    H165390   1.734   5.900   1.006  0.7059  0.7506 -1.5741
14633TIP3    H265391   1.668   5.983   1.113  0.7088 -0.7719 -0.3531
14634TIP3   OH265392   2.607   1.943  13.709 -0.5011  0.1236  0.1405
14634TIP3    H165393   2.690   1.920  13.751  0.6086 -1.9238 -2.8687
14634TIP3    H265394   2.541   1.894  13.759  0.4421 -0.4265  0.8920
14635TIP3   OH265395   3.107   3.275  12.139 -0.2933 -0.3355 -0.0324
14635TIP3    H165396   3.034   3.261  12.199 -0.7543 -0.0609 -0.5265
14635TIP3    H265397   3.177   3.218  12.173 -0.6425 -0.3996  0.5917
14636TIP3   OH265398   5.249   6.298  15.119  0.5659 -0.0780  0.2930
14636TIP3    H165399   5.240   6.235  15.048 -1.9350 -0.8226  1.1917
14636TIP3    H265400   5.262   6.382  15.074  2.1594 -0.9273 -0.9385
14637TIP3   OH265401   6.402   0.617  14.416 -0.0062  0.2957 -0.1281
14637TIP3    H165402   6.386   0.524  14.403 -0.4646  0.0630  1.8396
14637TIP3    H265403   6.496   0.627  14.405  0.0420 -0.3966 -0.3877
14638TIP3   OH265404   3.461   2.761  10.412 -0.3912 -0.1239 -0.3203
14638TIP3    H165405   3.391   2.780  10.349 -0.7580  0.4596  0.2512
14638TIP3    H265406   3.540   2.753  10.358 -0.7471  0.0669 -0.8809
14639TIP3   OH265407   6.366   0.712  12.446  0.5558 -0.3385  0.9676
14639TIP3    H165408   6.429   0.744  12.382  0.1099 -0.6599  0.3558
14639TIP3    H265409   6.281   0.719  12.401  0.4352 -2.4181  0.7653
14640TIP3   OH265410   1.422   3.136  15.438 -0.2323  0.3925 -0.5083
14640TIP3    H165411   1.442   3.061  15.496 -3.2817 -0.8170 -0.8411
14640TIP3    H265412   1.498   3.141  15.380  0.9312 -1.2150  0.7398
14641TIP3   OH265413   1.116   2.966   1.185 -0.2834 -0.4392  0.5560
14641TIP3    H165414   1.163   2.973   1.269  1.6620 -1.0823 -0.4181
14641TIP3    H265415   1.184   2.947   1.121 -1.8814 -1.1427 -1.0129
14642TIP3   OH265416   3.144   2.929   5.256 -0.4531  0.4549 -0.2670
14642TIP3    H165417   3.192   2.888   5.329 -1.5367  0.2660  0.3600
14642TIP3    H265418   3.207   2.929   5.184  1.3478  2.4218  1.1673
14643TIP3   OH265419   5.677   0.553  15.381 -0.0810  0.2403  0.0865
14643TIP3    H165420   5.694   0.459  15.394  0.3334  0.3355  0.2581
14643TIP3    H265421   5.584   0.558  15.359 -0.6782  0.0106  2.3581
14644TIP3   OH265422   6.733   1.622  14.164 -0.0872  0.1015  0.1673
14644TIP3    H165423   6.825   1.602  14.148  0.0968  0.4092  0.8041
14644TIP3    H265424   6.686   1.577  14.094  0.5128 -0.4337  0.0988
14645TIP3   OH265425   0.038   6.625   2.043  0.4652 -0.3395 -0.4210
14645TIP3    H165426   0.107   6.560   2.028  0.9987  0.1125  0.0528
14645TIP3    H265427   0.053   6.692   1.977  0.8266  0.0396  0.0440
14646TIP3   OH265428   0.362   0.423  14.104 -0.0589 -0.1525 -0.4188
14646TIP3    H165429   0.441   0.426  14.159 -0.3494  1.4756 -0.0406
14646TIP3    H265430   0.395   0.407  14.016  0.7354  0.9077 -0.3283
14647TIP3   OH265431   2.091   4.392  11.281 -0.1289  0.0517 -0.3314
14647TIP3    H165432   1.998   4.376  11.268 -0.1708 -1.2003  1.2161
14647TIP3    H265433   2.095   4.463  11.345  0.0275  1.2045 -1.5717
14648TIP3   OH265434   6.358   4.633   1.760  0.2149 -0.7085 -0.2208
14648TIP3    H165435   6.289   4.671   1.814  1.2340  0.6821  0.1655
14648TIP3    H265436   6.415   4.707   1.738  1.5173 -1.7862 -0.6329
14649TIP3   OH265437   2.901   5.904   4.142  0.5449 -0.3817 -0.1352
14649TIP3    H165438   2.892   5.993   4.108 -0.4476 -0.0771  0.8539
14649TIP3    H265439   2.918   5.850   4.065  0.7168  0.6027 -0.7972
14650TIP3   OH265440   3.940   0.768   5.420 -0.6721 -0.2265  0.0072
14650TIP3    H165441   4.012   0.751   5.360 -0.3169 -1.6283  0.7832
14650TIP3    H265442   3.868   0.715   5.387 -0.9175  0.0873  0.0313
14651TIP3   OH265443   2.160   4.258   4.251 -0.2886 -0.0520 -0.0768
14651TIP3    H165444   2.248   4.272   4.214  0.3029 -0.6718  1.0601
14651TIP3    H265445   2.146   4.164   4.244 -0.2887 -0.1356  1.0057
14652TIP3   OH265446   5.235   6.175  11.560 -0.4326  0.5224 -0.0610
14652TIP3    H165447   5.183   6.232  11.616  0.0599  0.1506  0.7850
14652TIP3    H265448   5.236   6.090  11.604 -1.5971 -0.3309 -1.5715
14653TIP3   OH265449   6.559   4.667  14.497  0.1014 -0.2900  0.9940
14653TIP3    H165450   6.554   4.689  14.404 -0.6848  0.7977  1.2756
14653TIP3    H265451   6.494   4.597  14.508  1.6761 -1.9392  0.3549
14654TIP3   OH265452   1.653   1.173   3.978 -0.1470  0.4003  0.1402
14654TIP3    H165453   1.661   1.080   3.998 -0.0413  0.5451  0.7919
14654TIP3    H265454   1.699   1.184   3.895 -1.4559 -0.3908 -0.7197
14655TIP3   OH265455   5.047   5.939  14.947  0.0380 -0.0663  0.1092
14655TIP3    H165456   5.024   5.947  15.039  0.4050  0.3712  0.1665
14655TIP3    H265457   5.081   5.850  14.939  1.0803  0.2691  0.6452
14656TIP3   OH265458   0.358   3.026  15.164  0.2132  0.0968 -0.3090
14656TIP3    H165459   0.358   2.933  15.140 -0.9940  0.3059 -1.2509
14656TIP3    H265460   0.448   3.054  15.150  1.2297 -1.4482  2.3270
14657TIP3   OH265461   4.353   6.478   0.820 -0.2550  0.1426  0.0015
14657TIP3    H165462   4.434   6.452   0.777  0.3469  0.1691  1.0687
14657TIP3    H265463   4.300   6.399   0.821 -0.3976  0.2153 -1.0218
14658TIP3   OH265464   2.522   4.872   2.857 -0.2297  0.0416  0.2144
14658TIP3    H165465   2.444   4.867   2.803  0.8844  0.1296 -1.4924
14658TIP3    H265466   2.552   4.962   2.848 -0.7438  0.4380  2.1077
14659TIP3   OH265467   1.885   2.176   3.732  0.2146  0.0610 -0.0611
14659TIP3    H165468   1.944   2.157   3.805  0.0375  1.6230  0.5137
14659TIP3    H265469   1.803   2.203   3.773 -0.3184 -0.3047 -0.8583
14660TIP3   OH265470   6.040   5.965  11.621  0.2785  0.4112  0.7860
14660TIP3    H165471   6.088   5.890  11.656  0.6310 -0.2604 -1.0453
14660TIP3    H265472   6.046   5.956  11.526 -1.1385  1.8322  0.5133
14661TIP3   OH265473   3.251   3.878   3.623 -0.1605 -0.2548  0.0013
14661TIP3    H165474   3.291   3.898   3.539 -0.7185 -0.9522 -0.4389
14661TIP3    H265475   3.157   3.875   3.605 -0.1655 -2.8106  0.0987
14662TIP3   OH265476   2.028   1.032  12.218  0.1483  0.2022 -0.0837
14662TIP3    H165477   2.102   0.974  12.238 -0.2510  0.0577  1.0340
14662TIP3    H265478   2.069   1.112  12.186  0.7066 -0.8617 -2.2785
14663TIP3   OH265479   4.442   4.854  14.015  0.0611  0.4543 -0.4329
14663TIP3    H165480   4.512   4.802  14.054 -1.3558 -2.5577 -1.5915
14663TIP3    H265481   4.425   4.923  14.079  3.0925  0.5063  0.4913
14664TIP3   OH265482   1.564   0.598  16.712  0.1045 -0.6333  0.3880
14664TIP3    H165483   1.478   0.632  16.689  0.7260 -0.1417 -1.3106
14664TIP3    H265484   1.578   0.524  16.652  1.6435  0.4970 -0.7210
14665TIP3   OH265485   1.289   3.616   5.683  0.3077 -0.7289 -0.1628
14665TIP3    H165486   1.310   3.533   5.641  0.1312 -0.1655 -1.4002
14665TIP3    H265487   1.197   3.609   5.707  0.6196 -1.3702  0.9277
14666TIP3   OH265488   4.932   5.264  11.442 -0.0273  0.3316 -0.2182
14666TIP3    H165489   4.870   5.215  11.496 -0.1934 -1.9190 -2.3063
14666TIP3    H265490   5.011   5.209  11.440  1.1944  1.9636  0.3455
14667TIP3   OH265491   3.192   5.285   0.318  0.1790 -0.3554 -0.7344
14667TIP3    H165492   3.222   5.242   0.398 -0.8869 -0.2477 -0.2676
14667TIP3    H265493   3.268   5.337   0.290  1.0433 -1.4888 -0.5954
14668TIP3   OH265494   6.002   3.291   5.491 -0.3106 -0.1115  0.7884
14668TIP3    H165495   6.062   3.219   5.511  0.1324 -0.4185 -1.4318
14668TIP3    H265496   5.939   3.290   5.563  0.0689 -2.2956  1.1462
14669TIP3   OH265497   6.133   0.731  15.358  0.0415 -0.5118 -0.2162
14669TIP3    H165498   6.165   0.641  15.359 -1.2039 -0.9784 -0.8761
14669TIP3    H265499   6.045   0.726  15.394  0.4716  0.6823  1.1083
14670TIP3   OH265500   5.072   1.293  15.483  0.1851  0.2460  0.1160
14670TIP3    H165501   5.043   1.332  15.566  0.8045 -1.2852  1.0970
14670TIP3    H265502   5.018   1.214  15.474 -0.4592  0.8171 -1.3955
14671TIP3   OH265503   4.049   5.798   6.405  0.1337  0.0914 -0.2696
14671TIP3    H165504   3.976   5.737   6.394  0.4589 -0.5864  1.1083
14671TIP3    H265505   4.056   5.811   6.499  0.7137  1.5041 -0.4715
14672TIP3   OH265506   5.988   6.172   3.826 -0.0128  0.1575  0.0865
14672TIP3    H165507   5.902   6.133   3.839 -0.7854  1.8175  0.3159
14672TIP3    H265508   6.029   6.169   3.912 -0.5718  0.9390  0.3971
14673TIP3   OH265509   0.982   1.629   2.404 -0.3196 -0.1338  0.4278
14673TIP3    H165510   0.908   1.574   2.428 -0.2223 -0.4310  0.0551
14673TIP3    H265511   0.976   1.638   2.309  0.9851 -1.4429  0.1862
14674TIP3   OH265512   6.687   0.588  17.036  0.3051 -0.3834 -0.0362
14674TIP3    H165513   6.687   0.561  17.128  0.9921  0.7599  0.3206
14674TIP3    H265514   6.703   0.508  16.987  0.8311 -0.8607  0.8924
14675TIP3   OH265515   3.230   1.337  16.388  0.2868 -0.1110 -0.1100
14675TIP3    H165516   3.309   1.391  16.377 -0.2147  1.0960  1.7119
14675TIP3    H265517   3.165   1.398  16.422 -0.0946 -2.0004  2.8718
14676TIP3   OH265518   5.620   0.877  16.166 -0.3172 -0.3350 -0.1761
14676TIP3    H165519   5.650   0.955  16.214 -1.7386  0.7094 -0.8868
14676TIP3    H265520   5.684   0.867  16.096 -0.8297  1.0614 -0.8946
14677TIP3   OH265521   4.012   0.056  14.013 -0.5573  0.0363  0.3028
14677TIP3    H165522   4.005  -0.029  14.055 -1.8318  1.4187  3.1837
14677TIP3    H265523   4.105   0.069  13.998 -0.3244 -1.6622  0.1528
14678TIP3   OH265524   4.765   4.050   6.568 -0.1448  0.0577  0.1967
14678TIP3    H165525   4.699   3.982   6.582  0.6156 -0.6432  0.4595
14678TIP3    H265526   4.842   4.002   6.535  0.3320  0.8155  0.1928
14679TIP3   OH265527   6.164   4.719   1.911  0.2917  0.0759  0.6463
14679TIP3    H165528   6.143   4.806   1.944  0.5131  0.4089 -0.0648
14679TIP3    H265529   6.201   4.673   1.986 -1.7897 -0.1211  1.6255
14680TIP3   OH265530   2.986   2.187  11.644 -0.3450  0.1245 -0.2945
14680TIP3    H165531   3.044   2.221  11.575  0.2571  0.0573  0.1666
14680TIP3    H265532   2.904   2.234  11.632 -0.1963  0.2232 -0.9639
14681TIP3   OH265533   0.491   3.223  12.809  0.2986 -0.4678  0.0324
14681TIP3    H165534   0.468   3.153  12.869 -0.8129 -0.5479 -0.4661
14681TIP3    H265535   0.437   3.297  12.836  0.5320 -0.1941 -0.2391
14682TIP3   OH265536   1.773   0.928   1.989 -0.0715 -0.0437 -0.3384
14682TIP3    H165537   1.860   0.888   2.000 -0.1474  0.1251  1.0886
14682TIP3    H265538   1.750   0.910   1.898  0.6704 -1.6798 -0.2390
14683TIP3   OH265539   0.443   6.221   4.948 -0.6257  0.2989 -0.2029
14683TIP3    H165540   0.454   6.203   5.041 -1.9065  2.3534  0.4017
14683TIP3    H265541   0.464   6.314   4.938 -0.2712  0.0602 -2.0285
14684TIP3   OH265542   5.599   1.759   6.703  0.3910 -0.1348  0.3085
14684TIP3    H165543   5.658   1.694   6.664  0.4104  1.1365 -1.9712
14684TIP3    H265544   5.524   1.762   6.644 -1.4214 -0.7600  2.4452
14685TIP3   OH265545   1.763   0.027   0.732 -0.2414  0.3528 -0.0625
14685TIP3    H165546   1.840  -0.028   0.719 -1.4192 -1.0255 -1.8134
14685TIP3    H265547   1.766   0.052   0.824  2.1720  0.2118 -0.0437
14686TIP3   OH265548   0.166   4.258  16.042  0.2715 -0.4006  0.4523
14686TIP3    H165549   0.184   4.197  16.113  0.3300  0.5498  1.2691
14686TIP3    H265550   0.073   4.278  16.050  0.0375 -1.0961 -0.3976
14687TIP3   OH265551   4.448   0.745   2.736  0.0221  0.0843 -0.0116
14687TIP3    H165552   4.386   0.816   2.753  0.8958  0.7934  0.3284
14687TIP3    H265553   4.459   0.702   2.821  0.9408  0.7679  0.2377
14688TIP3   OH265554   1.473   2.241   6.388 -0.4356  0.2436  0.7591
14688TIP3    H165555   1.408   2.250   6.319 -1.1965  0.4553  1.4858
14688TIP3    H265556   1.521   2.161   6.366  0.1294  0.9413 -0.6473
14689TIP3   OH265557   0.611   3.267  16.788 -0.5408 -0.1698 -0.0608
14689TIP3    H165558   0.575   3.214  16.717 -0.3607 -1.2727  0.6435
14689TIP3    H265559   0.614   3.208  16.863  1.2226  0.3463  0.3298
14690TIP3   OH265560   6.229   1.543  16.981 -0.0108  0.7516  0.1880
14690TIP3    H165561   6.145   1.587  16.992 -0.3946 -0.1659  1.0672
14690TIP3    H265562   6.289   1.612  16.951 -0.8924  1.5723  0.2804
14691TIP3   OH265563   1.340   1.357  14.977  0.2256  0.6882  0.4911
14691TIP3    H165564   1.432   1.347  14.952  0.2056 -1.5144  1.0766
14691TIP3    H265565   1.302   1.412  14.908  2.0048  1.9061  0.3954
14692TIP3   OH265566   2.486   6.156  12.519  0.3460 -0.1542 -0.4582
14692TIP3    H165567   2.406   6.202  12.493  0.0834 -0.4669 -0.2110
14692TIP3    H265568   2.531   6.137  12.436 -1.0512 -2.1964 -0.8268
14693TIP3   OH265569   0.443   6.205  14.851 -0.5627  0.3408 -0.2463
14693TIP3    H165570   0.474   6.283  14.805  0.7901 -1.2281 -2.1630
14693TIP3    H265571   0.349   6.202  14.832 -0.6754  1.5847  0.0352
14694TIP3   OH265572   5.640   1.302  11.169 -0.2559 -0.8199 -0.0770
14694TIP3    H165573   5.586   1.327  11.094 -2.5262 -1.4000  1.2756
14694TIP3    H265574   5.619   1.365  11.237  3.5692  1.2078 -0.4846
14695TIP3   OH265575   0.178   3.846   4.631 -0.1687 -0.0646 -0.3066
14695TIP3    H165576   0.107   3.783   4.645  0.0823 -0.3731 -0.3963
14695TIP3    H265577   0.234   3.835   4.708 -0.3890  0.4121 -0.0746
14696TIP3   OH265578   2.220   6.757  14.469  0.2923 -0.1055  0.0189
14696TIP3    H165579   2.226   6.745  14.374 -0.4851 -0.5828  0.0226
14696TIP3    H265580   2.126   6.769  14.485  0.5059  0.9039  0.6277
14697TIP3   OH265581   6.699   1.754   0.959  0.2252 -0.1284 -0.3243
14697TIP3    H165582   6.727   1.832   0.911  0.1205 -0.1692 -0.4536
14697TIP3    H265583   6.687   1.784   1.049  2.8163 -0.5815  0.2441
14698TIP3   OH265584   5.894   3.793   1.171  0.3121  0.0646 -0.0821
14698TIP3    H165585   5.987   3.812   1.158  0.4695  0.1886  1.1458
14698TIP3    H265586   5.861   3.866   1.223 -0.5292  0.1206 -0.6679
14699TIP3   OH265587   1.328   1.222  12.009 -0.3104 -0.2509 -0.2755
14699TIP3    H165588   1.314   1.232  11.914  0.3845 -1.0573 -0.4831
14699TIP3    H265589   1.256   1.166  12.038 -1.3787  1.1843 -0.0253
14700TIP3   OH265590   3.716   0.882   5.092  0.2815  0.5322 -0.4203
14700TIP3    H165591   3.738   0.796   5.056 -0.1784  0.8996 -1.6351
14700TIP3    H265592   3.783   0.941   5.056 -1.1418  1.2125 -2.1702
14701TIP3   OH265593   4.890   5.752   2.481  0.2088 -0.3142 -0.0073
14701TIP3    H165594   4.911   5.806   2.557  0.4900  0.4109 -0.5890
14701TIP3    H265595   4.801   5.777   2.458  0.1176 -0.5456  0.0937
14702TIP3   OH265596   6.817   4.586  14.094 -0.1265 -0.1049 -0.1577
14702TIP3    H165597   6.812   4.492  14.078 -2.6659 -0.6859  3.0807
14702TIP3    H265598   6.739   4.622  14.052 -2.0537 -0.3906  2.8334
14703TIP3   OH265599   3.712   0.695   4.552 -0.7420 -0.1998  0.1042
14703TIP3    H165600   3.736   0.726   4.465 -0.0842 -2.4033 -0.5476
14703TIP3    H265601   3.778   0.735   4.610 -0.3647  0.2040 -0.5828
14704TIP3   OH265602   0.874   4.939  16.670 -0.2986 -0.2888  1.1198
14704TIP3    H165603   0.966   4.914  16.673 -0.5438 -1.9778 -1.6692
14704TIP3    H265604   0.873   5.033  16.689  2.1412  0.0298  0.0034
14705TIP3   OH265605   5.818   0.540  11.326 -0.1498 -0.5353 -1.0399
14705TIP3    H165606   5.733   0.552  11.285  0.0406  0.0223 -1.2830
14705TIP3    H265607   5.881   0.553  11.256  0.1296 -1.6515 -1.0206
14706TIP3   OH265608   5.853   5.791  16.124  0.1496 -0.0884  0.4537
14706TIP3    H165609   5.788   5.733  16.163  0.7987  0.0734  1.8583
14706TIP3    H265610   5.819   5.811  16.037 -0.0592 -2.5911 -0.1110
14707TIP3   OH265611   3.686   1.237   4.492  0.0912 -0.5865  0.2855
14707TIP3    H165612   3.748   1.226   4.420  1.6503  1.6388  1.1819
14707TIP3    H265613   3.600   1.241   4.450  0.9250  0.2521 -1.4166
14708TIP3   OH265614   2.564   0.930  11.017  0.1198 -0.1834  0.1568
14708TIP3    H165615   2.566   0.916  10.922  0.3579 -1.2512  0.3120
14708TIP3    H265616   2.494   0.873  11.049  0.9086 -0.8466  0.7670
14709TIP3   OH265617   6.171   2.574   6.348 -0.4334  0.2612 -0.1592
14709TIP3    H165618   6.083   2.594   6.382  0.4384  1.0415  1.7831
14709TIP3    H265619   6.209   2.659   6.330 -0.5908 -0.1136 -2.5766
14710TIP3   OH265620   0.097   4.433   3.051  0.0717  0.5996  0.4013
14710TIP3    H165621   0.184   4.463   3.026 -0.1415  0.1734 -0.9404
14710TIP3    H265622   0.098   4.433   3.147  1.6416  0.2967  0.4047
14711TIP3   OH265623   1.290   6.333  13.396  0.5460 -0.2218 -0.4817
14711TIP3    H165624   1.303   6.427  13.397 -1.4990  0.2707 -4.0169
14711TIP3    H265625   1.212   6.318  13.450  0.1703  0.2840 -0.8813
14712TIP3   OH265626   1.191   2.204  16.474  0.6188  0.0495  0.2158
14712TIP3    H165627   1.138   2.212  16.395  0.9218 -2.2573 -0.2652
14712TIP3    H265628   1.128   2.184  16.543  0.5383  0.4629  0.2672
14713TIP3   OH265629   6.543   3.174   5.053  0.1395 -0.0512 -0.3679
14713TIP3    H165630   6.484   3.247   5.035 -0.2130  0.1442  1.3733
14713TIP3    H265631   6.494   3.096   5.029  0.9842  0.2266 -3.5109
14714TIP3   OH265632   0.421   1.884  13.768  0.6169 -0.4719  0.3479
14714TIP3    H165633   0.473   1.885  13.688  0.8123  1.7960  0.4250
14714TIP3    H265634   0.481   1.851  13.835  1.1088 -0.4555 -0.0825
14715TIP3   OH265635   5.948   4.247  16.787  0.6352 -0.0603  0.0311
14715TIP3    H165636   5.871   4.213  16.833 -0.7190  1.3174 -1.1064
14715TIP3    H265637   5.926   4.338  16.768  1.7213 -0.1761 -2.0446
14716TIP3   OH265638   6.814   2.285  14.964  0.0102 -0.4502  0.0734
14716TIP3    H165639   6.836   2.196  14.994  1.5528 -0.2045 -0.2292
14716TIP3    H265640   6.894   2.316  14.922 -0.0257  1.6086  1.3681
14717TIP3   OH265641   0.290   1.439   3.531  0.0781  0.0181 -0.0378
14717TIP3    H165642   0.222   1.469   3.470 -0.3629 -1.2008 -0.1650
14717TIP3    H265643   0.244   1.379   3.590  0.6565  0.6028  1.0398
14718TIP3   OH265644   6.109   6.804  13.983  0.3226  0.5033 -0.1477
14718TIP3    H165645   6.027   6.759  14.005  0.4797  0.3184  0.0570
14718TIP3    H265646   6.152   6.817  14.067  1.6692 -1.6178 -0.4222
14719TIP3   OH265647   5.604   3.029   3.041 -0.2770 -0.2377  0.1124
14719TIP3    H165648   5.640   3.082   3.112  1.2221  1.8723 -2.1071
14719TIP3    H265649   5.679   3.006   2.987 -1.0282 -3.7654  0.3143
14720TIP3   OH265650   6.013   5.111   5.792 -0.3315  0.5417  1.2413
14720TIP3    H165651   5.964   5.099   5.873  0.9083 -0.1089  1.9206
14720TIP3    H265652   6.104   5.090   5.814 -0.0115 -0.0112 -0.4039
14721TIP3   OH265653   3.496   4.829   1.743 -0.1818 -0.3224 -0.2653
14721TIP3    H165654   3.538   4.909   1.711 -1.9778  0.7079 -0.1327
14721TIP3    H265655   3.477   4.847   1.835 -0.3108 -1.0432 -0.1446
14722TIP3   OH265656   3.214   1.687  11.664 -0.3618  0.4537  0.3083
14722TIP3    H165657   3.140   1.737  11.629 -1.9608 -1.5360  0.6383
14722TIP3    H265658   3.227   1.722  11.752  2.7158  4.4674 -1.4504
14723TIP3   OH265659   2.564   3.179   0.653 -0.4324 -0.2123  0.0587
14723TIP3    H165660   2.654   3.152   0.669  0.6659  1.8935 -1.9302
14723TIP3    H265661   2.527   3.194   0.741  1.1761 -0.9585  0.9040
14724TIP3   OH265662   4.949   0.596  11.176 -0.0492 -0.4236 -0.5508
14724TIP3    H165663   4.965   0.550  11.094 -2.0269 -2.6321  0.1925
14724TIP3    H265664   4.946   0.527  11.242  0.1002  1.1420  1.2000
14725TIP3   OH265665   2.350   5.245   1.081 -0.5070  0.3290  0.1285
14725TIP3    H165666   2.259   5.274   1.073 -1.3302 -1.8603  0.7276
14725TIP3    H265667   2.343   5.154   1.108  1.9014  0.8117  2.7850
14726TIP3   OH265668   0.178   0.802  15.538  0.2188  0.7009 -0.0319
14726TIP3    H165669   0.087   0.820  15.559  0.3899  1.3162  0.1994
14726TIP3    H265670   0.190   0.709  15.559 -0.2385  0.7230  0.3408
14727TIP3   OH265671   4.502   5.847   3.183  0.0519 -0.1088 -0.0503
14727TIP3    H165672   4.464   5.763   3.208 -2.7744  0.9746 -0.2528
14727TIP3    H265673   4.439   5.883   3.120  0.2757  2.8321  1.2542
14728TIP3   OH265674   3.646   5.018  16.918 -0.5617  0.1576  0.4291
14728TIP3    H165675   3.666   4.955  16.849  1.0726 -0.3563  1.3322
14728TIP3    H265676   3.596   5.087  16.873  3.3391  1.6458 -2.1223
14729TIP3   OH265677   1.087   3.844   2.091 -0.1653 -0.1543 -0.0522
14729TIP3    H165678   1.026   3.804   2.028  0.0178 -1.5776  0.6365
14729TIP3    H265679   1.172   3.841   2.048 -0.6554  2.7302 -1.4222
14730TIP3   OH265680   1.613   3.235   4.802 -0.3514  0.0940 -0.5273
14730TIP3    H165681   1.692   3.183   4.813  0.0679  0.3034 -2.2996
14730TIP3    H265682   1.610   3.291   4.880  0.1424 -1.2968  0.5269
14731TIP3   OH265683   3.173   3.250   4.455  0.0303  0.0145 -0.0612
14731TIP3    H165684   3.263   3.280   4.468 -0.1746  0.1161  1.3267
14731TIP3    H265685   3.123   3.329   4.436 -0.0359  0.1897  0.8122
14732TIP3   OH265686   0.677   3.720  15.750  0.5949  0.0492 -0.0102
14732TIP3    H165687   0.689   3.696  15.842 -1.8482 -2.0670 -0.1123
14732TIP3    H265688   0.623   3.800  15.754 -0.6255 -0.7619  0.4599
14733TIP3   OH265689   4.730   2.631  16.831 -0.4112 -0.2029 -0.1104
14733TIP3    H165690   4.800   2.695  16.815  0.3086 -1.1535 -0.8641
14733TIP3    H265691   4.694   2.612  16.745 -0.3866 -1.0718  0.0666
14734TIP3   OH265692   1.167   2.062   5.116 -0.1276 -0.4953 -0.2380
14734TIP3    H165693   1.103   2.129   5.142 -0.2762 -1.0637  0.9029
14734TIP3    H265694   1.200   2.093   5.032 -0.8109  0.5823 -0.1350
14735TIP3   OH265695   1.998   1.464  11.005  0.2580 -1.0699 -0.5987
14735TIP3    H165696   1.956   1.413  10.936  0.0791 -0.0725 -1.2494
14735TIP3    H265697   1.926   1.492  11.062  0.3641 -1.5756 -0.2011
14736TIP3   OH265698   5.292   5.027   4.570 -0.7960  0.5749  0.0297
14736TIP3    H165699   5.324   5.025   4.480 -1.2700 -0.9940 -0.1312
14736TIP3    H265700   5.206   4.986   4.566 -0.9445  0.7428  1.1526
14737TIP3   OH265701   5.684   2.246  12.253 -0.7681 -0.2658 -0.0292
14737TIP3    H165702   5.709   2.160  12.286  0.4631  0.3124  0.6103
14737TIP3    H265703   5.605   2.230  12.201 -0.0919 -1.9055 -0.6088
14738TIP3   OH265704   2.374   3.227  15.175  0.2485 -0.1482 -0.4429
14738TIP3    H165705   2.336   3.161  15.117  1.6559 -0.1178 -1.4550
14738TIP3    H265706   2.398   3.179  15.255 -0.5995 -0.4312 -0.3501
14739TIP3   OH265707   1.121   0.496   3.137 -0.1882 -0.1832 -0.0427
14739TIP3    H165708   1.044   0.439   3.139  0.5343 -1.2911  3.4326
14739TIP3    H265709   1.088   0.583   3.158 -0.8950  0.1641 -2.3352
14740TIP3   OH265710   1.336   4.500  10.984  0.2753 -0.9487  0.6479
14740TIP3    H165711   1.382   4.559  10.924  0.3483 -1.2651  0.3940
14740TIP3    H265712   1.275   4.451  10.929  0.6095 -1.5067  0.7706
14741TIP3   OH265713   3.494   5.759   0.466 -0.1571  0.2526  0.1262
14741TIP3    H165714   3.588   5.768   0.454 -0.0295 -0.2855  0.6811
14741TIP3    H265715   3.477   5.797   0.552 -0.3028 -0.4552  0.4231
14742TIP3   OH265716   2.101   5.796   5.514 -0.2823  0.2716  0.6053
14742TIP3    H165717   2.022   5.847   5.496  0.6492  1.9846  1.2284
14742TIP3    H265718   2.069   5.721   5.566 -1.2343  2.3604  3.2572
14743TIP3   OH265719   5.855   5.944  15.086 -0.2583  0.1372  0.5648
14743TIP3    H165720   5.767   5.909  15.068  0.6584 -1.6400 -0.9046
14743TIP3    H265721   5.881   5.902  15.168  0.0122 -1.0636 -0.1088
14744TIP3   OH265722   2.953   3.482  15.605 -0.7546 -0.3622 -0.0583
14744TIP3    H165723   2.957   3.566  15.651 -0.3739  0.4255 -1.4851
14744TIP3    H265724   2.860   3.471  15.584 -0.4825  1.1471 -2.3759
14745TIP3   OH265725   6.139   2.496   1.219  0.4642  0.0359 -0.1479
14745TIP3    H165726   6.078   2.567   1.232  0.7339  0.6720 -2.0383
14745TIP3    H265727   6.225   2.535   1.236  0.4924 -0.3987  0.7900
14746TIP3   OH265728   3.457   2.038   5.072 -0.1887 -0.1895  0.0188
14746TIP3    H165729   3.364   2.015   5.064  0.0879 -1.7869  0.9620
14746TIP3    H265730   3.457   2.123   5.115 -1.2167 -0.3643  0.3997
14747TIP3   OH265731   3.191   5.304  11.200  0.6847 -0.6032  0.2787
14747TIP3    H165732   3.143   5.379  11.236  1.4409 -0.1264  0.3265
14747TIP3    H265733   3.200   5.324  11.107  0.9491 -0.5930  0.3040
14748TIP3   OH265734   6.622   5.156  11.659  0.0631 -0.9309  0.1918
14748TIP3    H165735   6.585   5.245  11.662 -1.3950 -1.4620 -0.6619
14748TIP3    H265736   6.548   5.100  11.681  0.7550 -1.9916 -0.1414
14749TIP3   OH265737   0.288   2.408  11.193  0.2493 -0.2645  0.0368
14749TIP3    H165738   0.252   2.319  11.190  0.3937 -0.3401  0.4526
14749TIP3    H265739   0.221   2.460  11.238 -0.3688  0.1054 -1.2642
14750TIP3   OH265740   5.140   5.541   5.038  0.3626 -0.3985  0.0405
14750TIP3    H165741   5.160   5.448   5.047 -2.0000 -1.0048 -0.3654
14750TIP3    H265742   5.079   5.546   4.965 -0.0607  1.3994  0.4685
14751TIP3   OH265743   2.399   4.256   4.801 -0.0206 -0.1117  0.1011
14751TIP3    H165744   2.310   4.222   4.804 -0.2284  0.5170  1.8028
14751TIP3    H265745   2.391   4.349   4.820  1.0776 -0.2379  1.3317
14752TIP3   OH265746   4.819   1.803  13.540 -0.1136 -0.3346 -0.1869
14752TIP3    H165747   4.760   1.735  13.507 -1.2672 -0.0796  1.2240
14752TIP3    H265748   4.782   1.826  13.625  3.0059 -1.3804  1.6039
14753TIP3   OH265749   1.146   5.253  13.421  0.7008  0.1500  0.0045
14753TIP3    H165750   1.222   5.220  13.373  1.7910  1.7942  0.4595
14753TIP3    H265751   1.179   5.264  13.511  0.2729  1.8567 -0.0136
14754TIP3   OH265752   2.663   4.899  11.764  0.2740 -0.2001 -0.3328
14754TIP3    H165753   2.613   4.897  11.682 -0.3657  0.7207  0.0281
14754TIP3    H265754   2.752   4.875  11.738  0.2690  0.9150 -1.4392
14755TIP3   OH265755   0.843   3.734   4.598 -0.2748 -0.4470  0.3335
14755TIP3    H165756   0.786   3.733   4.675 -1.2657 -0.7664 -0.3954
14755TIP3    H265757   0.923   3.689   4.627  0.0824  0.9729  1.6931
14756TIP3   OH265758   1.313   5.476  13.911 -0.9872  0.1346 -0.2579
14756TIP3    H165759   1.325   5.542  13.980  2.3778 -1.1813  0.6050
14756TIP3    H265760   1.241   5.422  13.944 -1.4435  1.2661  0.7305
14757TIP3   OH265761   1.137   1.412  13.243  0.0626 -0.4016  0.4579
14757TIP3    H165762   1.140   1.388  13.150 -1.9444 -0.9218  0.4715
14757TIP3    H265763   1.052   1.379  13.273  0.6836 -0.2684  2.4994
14758TIP3   OH265764   6.033   1.928   4.299 -0.2682 -0.3096 -0.0709
14758TIP3    H165765   6.105   1.991   4.297 -1.4941  1.1303 -1.6905
14758TIP3    H265766   6.023   1.906   4.392 -0.5319  2.7839  0.7216
14759TIP3   OH265767   4.971   4.538   6.018 -0.0833  0.1221  0.5334
14759TIP3    H165768   5.051   4.535   6.071 -0.0398  1.9026  0.6138
14759TIP3    H265769   4.946   4.630   6.017 -1.2046 -0.1656 -0.8987
14760TIP3   OH265770   0.309   6.526  12.813 -0.1358 -0.5502  0.2028
14760TIP3    H165771   0.220   6.502  12.789  0.7717 -1.3209 -2.8363
14760TIP3    H265772   0.333   6.464  12.882 -1.7146 -0.6674  0.6973
14761TIP3   OH265773   0.158   4.316  15.772 -0.1699  0.0134  0.0026
14761TIP3    H165774   0.074   4.358  15.750 -0.0552 -0.2661 -1.0532
14761TIP3    H265775   0.161   4.316  15.867 -0.7854  1.1946  0.0422
14762TIP3   OH265776   2.222   5.746   4.652 -0.7376 -0.3864 -0.4657
14762TIP3    H165777   2.308   5.716   4.683 -1.6235 -1.8404  0.7055
14762TIP3    H265778   2.187   5.796   4.726 -0.4896  1.1432 -1.3394
14763TIP3   OH265779   0.059   4.111   2.841 -0.0700 -0.0492 -0.0181
14763TIP3    H165780   0.030   4.027   2.804  1.8394  0.0692 -1.9731
14763TIP3    H265781   0.089   4.162   2.766  1.3094  1.3713  1.4040
14764TIP3   OH265782   0.916   1.049   5.313 -0.3145  0.2124 -0.5141
14764TIP3    H165783   0.971   1.123   5.284  0.7130 -1.0147 -1.8665
14764TIP3    H265784   0.899   1.000   5.233 -1.1948 -0.8931  0.3231
14765TIP3   OH265785   4.208   6.184  14.250  0.2414  0.2423  0.8944
14765TIP3    H165786   4.209   6.117  14.318  1.0769 -0.0935  0.5603
14765TIP3    H265787   4.175   6.139  14.172  0.0295  0.4339  0.8703
14766TIP3   OH265788   3.267   2.201   5.338  0.1769  0.3428  0.0810
14766TIP3    H165789   3.324   2.179   5.412 -0.3120  0.3998  0.4816
14766TIP3    H265790   3.242   2.117   5.301  1.2373  0.3345 -0.6621
14767TIP3   OH265791   3.879   1.483   1.676 -0.7160 -0.5220  0.0316
14767TIP3    H165792   3.892   1.512   1.767 -2.1085  0.1326  0.0414
14767TIP3    H265793   3.886   1.563   1.624 -0.8132 -0.7605 -0.3485
14768TIP3   OH265794   1.076   2.400  13.242 -0.2406 -0.5055 -0.0817
14768TIP3    H165795   1.007   2.461  13.269  1.6527  1.9359 -0.4375
14768TIP3    H265796   1.039   2.355  13.166 -0.4854  2.9631 -2.2552
14769TIP3   OH265797   4.220   0.175   3.061 -0.2973 -0.2342 -0.1649
14769TIP3    H165798   4.142   0.144   3.108 -0.0236 -0.5209  0.1133
14769TIP3    H265799   4.283   0.195   3.131 -0.5859  1.3114 -0.3258
14770TIP3   OH265800   4.752   3.393   0.892 -0.3125 -0.5514 -0.2180
14770TIP3    H165801   4.803   3.315   0.870  1.0950  0.2934 -0.1149
14770TIP3    H265802   4.712   3.421   0.810  2.5746  0.9521 -1.2378
14771TIP3   OH265803   2.129   5.760  12.983  0.2677  0.4252  0.2239
14771TIP3    H165804   2.168   5.844  13.007 -0.5068  0.6843  0.6100
14771TIP3    H265805   2.038   5.768  13.010  0.2051 -0.5701  0.3233
14772TIP3   OH265806   3.532   1.972  12.713  0.5147  0.0539  0.0178
14772TIP3    H165807   3.489   1.924  12.783 -0.8194  0.6005 -0.3873
14772TIP3    H265808   3.460   2.012  12.664  1.3611 -0.7132 -1.9591
14773TIP3   OH265809   6.400   4.510  11.859 -0.5267 -0.0583 -0.1262
14773TIP3    H165810   6.494   4.507  11.878 -0.2274 -1.8754 -1.5611
14773TIP3    H265811   6.363   4.565  11.928  1.3199 -0.9407  1.6774
14774TIP3   OH265812   0.217   4.600  12.848  0.4395  0.4286 -0.2884
14774TIP3    H165813   0.249   4.550  12.923  0.6188 -0.2366 -0.7942
14774TIP3    H265814   0.179   4.680  12.886  1.1604  0.4306  0.4434
14775TIP3   OH265815   1.583   0.937  14.206 -0.2561 -0.4287 -0.2686
14775TIP3    H165816   1.546   0.894  14.129  1.1377 -0.3149 -1.0283
14775TIP3    H265817   1.527   1.014  14.219  1.0304  1.0564 -2.8231
14776TIP3   OH265818   2.681   3.602  10.258 -0.3880 -0.0135  0.0404
14776TIP3    H165819   2.749   3.666  10.278  1.4030 -1.2495 -1.7914
14776TIP3    H265820   2.723   3.538  10.201 -2.8751 -1.3023 -0.5080
14777TIP3   OH265821   5.268   5.577   3.212  0.0148 -0.2247  0.0426
14777TIP3    H165822   5.197   5.621   3.258  0.0465  0.1266 -0.2373
14777TIP3    H265823   5.225   5.513   3.156 -0.1709  0.7153 -0.9299
14778TIP3   OH265824   0.214   2.912  10.615 -0.2652 -0.2939 -0.4836
14778TIP3    H165825   0.210   2.963  10.534 -0.7779 -1.4304 -1.2074
14778TIP3    H265826   0.126   2.918  10.652  0.1916  0.9111  0.4496
14779TIP3   OH265827   5.421   2.112  13.969  0.0755  0.0662  0.6262
14779TIP3    H165828   5.369   2.111  13.889 -0.0077 -0.7968  0.6764
14779TIP3    H265829   5.510   2.129  13.940  0.1054 -0.5899  0.2996
14780TIP3   OH265830   3.772   0.069   1.863 -0.0075  0.3724 -0.5275
14780TIP3    H165831   3.748   0.038   1.950 -0.2748  1.2296 -0.2868
14780TIP3    H265832   3.692   0.062   1.811 -0.4936  2.0184 -0.0693
14781TIP3   OH265833   6.127   5.247  12.409  0.0914 -0.7446  0.5174
14781TIP3    H165834   6.174   5.305  12.469  1.0850 -2.1207  1.1157
14781TIP3    H265835   6.089   5.180  12.466 -4.6048  1.4414  0.4102
14782TIP3   OH265836   5.025   3.888   4.505 -0.2524  0.1277  0.2208
14782TIP3    H165837   4.965   3.813   4.497 -0.3047  0.1244  0.5933
14782TIP3    H265838   4.980   3.960   4.462 -1.1168  0.4611  1.6146
14783TIP3   OH265839   6.346   4.927  12.937 -0.1111  0.5502  0.5942
14783TIP3    H165840   6.366   4.910  12.845  1.5633  1.8007  0.6832
14783TIP3    H265841   6.400   4.864  12.984  0.3467  1.0393  0.7375
14784TIP3   OH265842   4.525   5.294  11.648 -0.1604  0.0434 -0.4494
14784TIP3    H165843   4.523   5.238  11.570 -0.5342 -0.3728 -0.1505
14784TIP3    H265844   4.561   5.377  11.617 -2.0919  0.5490 -1.5153
14785TIP3   OH265845   1.982   4.369  12.693 -0.3335  0.1229  0.1073
14785TIP3    H165846   2.032   4.290  12.716  0.0919  0.7014  1.2404
14785TIP3    H265847   1.916   4.377  12.762  0.4323  1.4331  0.7386
14786TIP3   OH265848   0.609   2.626  12.848 -0.0590 -0.4985  0.2599
14786TIP3    H165849   0.645   2.575  12.920  1.9042 -0.9307 -0.9559
14786TIP3    H265850   0.576   2.561  12.786  1.0894 -0.2915 -0.6077
14787TIP3   OH265851   3.041   1.549   2.066  0.1365 -0.1091  0.1371
14787TIP3    H165852   3.085   1.548   1.981  0.9518 -1.3903  0.5395
14787TIP3    H265853   3.038   1.642   2.090  2.3373  0.0677 -0.0727
14788TIP3   OH265854   0.627   4.834  17.017  0.1037 -0.3237  0.0012
14788TIP3    H165855   0.666   4.757  17.058 -0.7206 -0.1776  1.0853
14788TIP3    H265856   0.541   4.804  16.987  0.5266 -0.3165 -1.2860
14789TIP3   OH265857   4.535   5.335   6.129  0.2476 -0.0062 -0.2231
14789TIP3    H165858   4.550   5.242   6.112 -0.1495  0.1705 -1.6393
14789TIP3    H265859   4.447   5.339   6.166  0.2581 -0.1899 -0.1794
14790TIP3   OH265860   2.509   0.893   6.696  0.1457 -0.2365  0.3057
14790TIP3    H165861   2.581   0.934   6.648  0.0131 -1.3222 -0.8762
14790TIP3    H265862   2.448   0.864   6.628 -1.3652  0.5287  1.2783
14791TIP3   OH265863   0.506   1.343  15.963 -0.2515 -0.8103 -0.2072
14791TIP3    H165864   0.448   1.391  16.023  1.7854  1.8728 -0.1634
14791TIP3    H265865   0.490   1.383  15.878  1.9764  0.5843 -0.0511
14792TIP3   OH265866   6.200   0.004  10.942 -0.5253 -0.7941 -0.6583
14792TIP3    H165867   6.251   0.049  11.010 -0.3198  0.1150 -1.3884
14792TIP3    H265868   6.209   0.060  10.865 -1.5713 -1.2942 -1.1598
14793TIP3   OH265869   4.389   5.130  15.831 -0.2245  0.4352  0.0797
14793TIP3    H165870   4.374   5.223  15.816 -0.7837  0.7085  2.0625
14793TIP3    H265871   4.485   5.120  15.829 -0.1758  0.9352 -0.5918
14794TIP3   OH265872   5.709   1.633  12.669  0.2900 -0.0341 -0.6886
14794TIP3    H165873   5.776   1.684  12.714  0.7381 -1.2047  0.0075
14794TIP3    H265874   5.630   1.685  12.677  1.1371  1.4740 -1.7066
14795TIP3   OH265875   1.311   3.033  14.817  0.2065  0.1201  0.5268
14795TIP3    H165876   1.232   3.088  14.821 -0.0627 -0.2319  0.1039
14795TIP3    H265877   1.377   3.090  14.777  0.6184  0.9345  2.2623
14796TIP3   OH265878   2.031   3.994  11.980 -0.2354 -0.6030  0.4501
14796TIP3    H165879   1.958   3.959  11.929 -0.3427 -0.9163  0.8115
14796TIP3    H265880   2.029   4.088  11.962 -1.3627 -0.4524  1.2286
14797TIP3   OH265881   6.368   3.842  16.970  0.0587  0.0292  0.0673
14797TIP3    H165882   6.348   3.836  16.877  0.5366  0.1659 -0.0475
14797TIP3    H265883   6.293   3.803  17.014 -0.0293 -0.3182 -0.3890
14798TIP3   OH265884   6.042   3.313   1.603  0.0630 -0.1243 -0.3983
14798TIP3    H165885   5.979   3.278   1.540 -1.6566 -1.1107  1.7338
14798TIP3    H265886   5.992   3.378   1.653  0.8678 -0.5015  0.9512
14799TIP3   OH265887   4.858   5.342   3.972 -0.3165 -0.2024  0.1906
14799TIP3    H165888   4.892   5.343   3.882 -0.9238 -2.4352 -0.1083
14799TIP3    H265889   4.828   5.432   3.986  2.1179  0.9019 -0.8866
14800TIP3   OH265890   4.071   6.803  12.329  0.2165  0.6150  0.0448
14800TIP3    H165891   3.987   6.838  12.299  0.6598  0.8046 -0.9843
14800TIP3    H265892   4.068   6.711  12.304  0.5514  0.7542 -0.5168
14801TIP3   OH265893   2.077   3.143  15.878 -0.5962 -0.0815 -0.1967
14801TIP3    H165894   2.159   3.097  15.896 -0.4382 -0.5625 -1.9378
14801TIP3    H265895   2.083   3.223  15.931  0.2908 -0.8189  0.8807
14802TIP3   OH265896   3.562   6.513   3.125 -0.3302  0.1230 -0.1710
14802TIP3    H165897   3.658   6.510   3.131 -0.2440 -0.5317 -1.4771
14802TIP3    H265898   3.543   6.600   3.089 -0.3782  0.9887  1.8082
14803TIP3   OH265899   5.224   4.773  14.503 -0.3478  0.4942 -0.1443
14803TIP3    H165900   5.164   4.826  14.556 -0.8185 -0.5140  0.3593
14803TIP3    H265901   5.179   4.690  14.492  0.8764 -0.2245  0.0834
14804TIP3   OH265902   2.594   5.920   2.177  0.2124 -0.4744 -0.4551
14804TIP3    H165903   2.506   5.951   2.155 -0.5807 -0.7240  2.0955
14804TIP3    H265904   2.637   5.909   2.092 -1.2213  2.3789 -1.7038
14805TIP3   OH265905   0.333   5.877   2.009 -0.2342 -0.3786  0.4146
14805TIP3    H165906   0.369   5.905   2.093 -0.6691 -0.1162  0.5209
14805TIP3    H265907   0.391   5.914   1.943  0.8199 -1.5955  0.6106
14806TIP3   OH265908   5.626   5.682  11.105 -0.2501 -0.4603  0.0257
14806TIP3    H165909   5.627   5.665  11.011  0.9648 -0.1569 -0.0241
14806TIP3    H265910   5.634   5.777  11.112 -2.8433 -0.1720  0.4047
14807TIP3   OH265911   3.752   3.854   3.004 -0.3431 -0.0123  0.0640
14807TIP3    H165912   3.819   3.912   3.040  1.8596 -2.2791 -0.0465
14807TIP3    H265913   3.670   3.901   3.017  0.9215  1.7555  2.8154
14808TIP3   OH265914   2.601   4.102   4.252  0.2963 -0.1340  0.4719
14808TIP3    H165915   2.561   4.143   4.329  1.3644  0.5305  0.7032
14808TIP3    H265916   2.579   4.010   4.260  1.4663 -0.3011  2.3112
14809TIP3   OH265917   4.312   1.310  15.753  0.0126  0.1669  0.0838
14809TIP3    H165918   4.220   1.288  15.766 -0.0797 -0.8810 -1.9013
14809TIP3    H265919   4.356   1.225  15.744  1.3194  0.6292  1.6719
14810TIP3   OH265920   5.834   1.303   1.674  0.6293  0.0682 -0.2882
14810TIP3    H165921   5.781   1.257   1.740  0.6623 -0.1735 -0.4294
14810TIP3    H265922   5.921   1.307   1.712  0.3562  1.1153  0.2681
14811TIP3   OH265923   5.269   1.819   4.592  0.4899  0.5331 -0.1496
14811TIP3    H165924   5.246   1.850   4.679  0.6368  0.7859 -0.1979
14811TIP3    H265925   5.198   1.850   4.536 -0.8266 -1.5967  0.2256
14812TIP3   OH265926   6.784   1.510  11.816  0.1882  0.3209  0.2036
14812TIP3    H165927   6.867   1.487  11.775  0.6059  1.8526  0.1418
14812TIP3    H265928   6.718   1.487  11.752  0.5842 -0.5358  0.0889
14813TIP3   OH265929   0.800   2.500  12.112  0.0117 -0.3416 -0.3128
14813TIP3    H165930   0.741   2.519  12.039  1.0445 -0.3606 -1.1799
14813TIP3    H265931   0.742   2.480  12.185 -1.0606  0.4847 -0.9069
14814TIP3   OH265932   6.308   1.554   0.808 -0.0969  0.0321  0.1721
14814TIP3    H165933   6.294   1.459   0.809  0.1786 -0.0354 -1.1518
14814TIP3    H265934   6.401   1.564   0.788 -0.2164  0.5930 -0.1194
14815TIP3   OH265935   3.677   1.681  15.063 -0.0818 -0.0979  0.2794
14815TIP3    H165936   3.659   1.687  14.970  0.1075  0.5828  0.2790
14815TIP3    H265937   3.609   1.624  15.098 -0.9365  0.6796 -0.0705
14816TIP3   OH265938   1.115   3.661  13.202 -0.1825 -0.1489  0.1928
14816TIP3    H165939   1.205   3.629  13.207 -0.2707 -0.5245 -0.4442
14816TIP3    H265940   1.062   3.587  13.232 -0.4639 -1.1032 -2.3761
14817TIP3   OH265941   4.428   2.838  15.087 -0.2872 -0.0353  0.0556
14817TIP3    H165942   4.438   2.831  15.182  0.9097 -0.2947 -0.0706
14817TIP3    H265943   4.493   2.778  15.052 -1.6473 -0.9617 -0.9391
14818TIP3   OH265944   4.525   4.149   2.908 -0.3826  0.5611 -0.4505
14818TIP3    H165945   4.595   4.091   2.939  1.2547  2.1111 -1.0269
14818TIP3    H265946   4.460   4.148   2.978  1.9327  1.8617  1.8889
14819TIP3   OH265947   4.068   0.184  14.308 -0.7305  0.1130 -0.1246
14819TIP3    H165948   3.972   0.184  14.308 -0.9512  3.9716 -1.8012
14819TIP3    H265949   4.091   0.198  14.216  1.5015 -1.1466  0.1860
14820TIP3   OH265950   5.365   5.042  16.621  0.0917  0.5503 -0.0179
14820TIP3    H165951   5.431   5.099  16.581  0.0667 -1.0156 -2.5452
14820TIP3    H265952   5.409   5.005  16.698  2.6269 -1.0705 -2.0485
14821TIP3   OH265953   0.367   3.777   3.064  0.3899 -0.1584 -0.5716
14821TIP3    H165954   0.340   3.867   3.083  1.4332  0.1105 -0.3063
14821TIP3    H265955   0.372   3.773   2.968 -0.7685 -0.2850 -0.6429
14822TIP3   OH265956   6.455   2.164  11.781 -0.5034 -0.5779  0.1380
14822TIP3    H165957   6.397   2.134  11.710 -0.6869 -1.1558  0.5305
14822TIP3    H265958   6.535   2.114  11.769  1.1960  2.3587 -2.3030
14823TIP3   OH265959   5.063   2.476   5.870 -0.4691  0.5225  0.2881
14823TIP3    H165960   5.047   2.570   5.883 -1.4570  0.3764  0.2565
14823TIP3    H265961   5.041   2.437   5.955  0.2830  0.3594  0.4062
14824TIP3   OH265962   3.063   5.484  14.444  0.0577 -0.7361  0.2078
14824TIP3    H165963   3.008   5.410  14.414 -1.2261  0.2597  0.0114
14824TIP3    H265964   3.137   5.483  14.384 -1.5683  0.0933 -1.9603
14825TIP3   OH265965   5.527   1.831  13.936 -0.0711  0.1566 -0.3976
14825TIP3    H165966   5.505   1.741  13.958 -0.9114  0.3965 -0.2345
14825TIP3    H265967   5.476   1.884  13.997  2.8120  0.7326  1.7238
14826TIP3   OH265968   3.823   1.806   2.779  0.6588 -0.6016  0.0237
14826TIP3    H165969   3.894   1.794   2.843  0.9912 -1.4504 -0.4919
14826TIP3    H265970   3.856   1.873   2.719  1.5765 -1.8909 -0.9558
14827TIP3   OH265971   0.755   0.869  15.981  0.4899  0.7651 -0.3479
14827TIP3    H165972   0.842   0.904  15.966 -0.0765  2.9578  1.0399
14827TIP3    H265973   0.736   0.889  16.072 -1.0942 -0.5656 -0.3301
14828TIP3   OH265974   4.138   4.325  16.959 -0.3726  0.2897 -0.3756
14828TIP3    H165975   4.219   4.376  16.965 -0.9277  1.0960  0.4175
14828TIP3    H265976   4.108   4.338  16.869  0.5523 -0.3009 -0.7857
14829TIP3   OH265977   2.988   5.481  11.209  0.1835  0.0946  0.1608
14829TIP3    H165978   2.934   5.464  11.131  0.8310 -0.0269 -0.2695
14829TIP3    H265979   2.960   5.567  11.239  0.8675  0.7509 -1.0119
14830TIP3   OH265980   5.029   5.883   0.743  0.5103 -0.3517 -0.1482
14830TIP3    H165981   4.941   5.894   0.781  0.0294  3.6512 -1.8763
14830TIP3    H265982   5.088   5.917   0.810  0.1017  2.2167 -0.9853
14831TIP3   OH265983   3.436   2.462  14.939 -0.2465  0.4180  0.1823
14831TIP3    H165984   3.490   2.395  14.983 -0.5735  0.8164  1.2132
14831TIP3    H265985   3.349   2.423  14.936 -0.0484  0.0235 -0.9464
14832TIP3   OH265986   5.383   2.188   6.703 -0.3893  0.3666 -0.2726
14832TIP3    H165987   5.462   2.152   6.743 -1.5468 -0.7672  1.1208
14832TIP3    H265988   5.415   2.249   6.636  1.6589 -1.3839 -1.0063
14833TIP3   OH265989   1.321   2.829  11.578 -0.2957  0.4164  0.2750
14833TIP3    H165990   1.304   2.921  11.600 -0.5504  0.3769  0.2448
14833TIP3    H265991   1.247   2.804  11.523  0.1580  0.4194 -0.3508
14834TIP3   OH265992   3.963   2.677  12.863 -0.4446  0.7256 -0.3776
14834TIP3    H165993   4.047   2.722  12.855  0.5194 -1.1787 -1.8046
14834TIP3    H265994   3.978   2.612  12.931 -0.8275  0.5068 -0.5033
14835TIP3   OH265995   1.744   2.369  11.357 -0.8418  0.1150 -0.4485
14835TIP3    H165996   1.830   2.410  11.348 -0.5996 -0.7047 -2.2106
14835TIP3    H265997   1.682   2.442  11.351 -0.2952  0.8872  2.1294
14836TIP3   OH265998   3.449   5.817   3.537 -0.1370  0.6843 -0.4459
14836TIP3    H165999   3.458   5.830   3.443  0.0295 -0.2880 -0.5719
14836TIP3    H266000   3.538   5.823   3.571  0.1401 -1.3180 -0.6850
14837TIP3   OH266001   0.988   6.131   4.575 -0.4429  0.2779  0.2337
14837TIP3    H166002   0.918   6.077   4.539  1.0610 -2.0431  0.5711
14837TIP3    H266003   0.955   6.160   4.660 -0.3223 -2.4981  1.3317
14838TIP3   OH266004   4.516   3.017   0.575 -0.4843  0.4747  0.0678
14838TIP3    H166005   4.566   3.062   0.506  1.0477 -0.3892  0.5650
14838TIP3    H266006   4.513   2.926   0.546 -1.1772  0.3866  0.4095
14839TIP3   OH266007   5.964   5.493  12.551  0.2319  0.5199 -0.2199
14839TIP3    H166008   6.020   5.499  12.628 -0.1826  0.9619  0.0480
14839TIP3    H266009   5.915   5.575  12.550 -0.8164 -0.0765 -0.1343
14840TIP3   OH266010   6.479   1.497   2.426 -0.6707  0.0142  0.3122
14840TIP3    H166011   6.401   1.489   2.372  1.3194 -2.7766 -2.5342
14840TIP3    H266012   6.506   1.406   2.442  1.0928  0.8487  2.6475
14841TIP3   OH266013   4.516   3.636  11.400  0.0381 -0.5186 -0.0980
14841TIP3    H166014   4.516   3.540  11.395  1.9691 -1.1105  4.8798
14841TIP3    H266015   4.601   3.662  11.363  0.7584 -1.1297  1.0559
14842TIP3   OH266016   5.554   6.687   5.756  0.1043  0.1376  0.4317
14842TIP3    H166017   5.553   6.757   5.822 -0.8826  0.0599  0.5071
14842TIP3    H266018   5.466   6.689   5.718  0.7598  0.4333 -1.1602
14843TIP3   OH266019   1.105   6.771  12.974  0.7891  0.0455  0.0279
14843TIP3    H166020   1.064   6.748  12.890  0.5549 -0.3452  0.2470
14843TIP3    H266021   1.154   6.692  12.998 -0.4917 -0.4632  1.0794
14844TIP3   OH266022   1.344   2.578  15.086 -0.2314 -0.3957 -0.8678
14844TIP3    H166023   1.288   2.501  15.086 -2.1209  0.9019 -0.6301
14844TIP3    H266024   1.299   2.640  15.143  2.0527  0.3395  0.2572
14845TIP3   OH266025   4.667   2.921   4.732 -0.0842 -0.2083  0.2860
14845TIP3    H166026   4.731   2.873   4.680  0.4024 -0.1665  0.8380
14845TIP3    H266027   4.718   2.964   4.800 -0.7761 -0.8000  1.2060
14846TIP3   OH266028   4.722   4.979   3.443 -0.4552  0.5453  0.2503
14846TIP3    H166029   4.679   5.023   3.516 -0.9588 -0.4057  0.5597
14846TIP3    H266030   4.733   4.889   3.474 -1.5273 -0.1145 -1.1636
14847TIP3   OH266031   6.383   2.158  10.835 -0.2239 -0.1423 -0.5348
14847TIP3    H166032   6.442   2.118  10.899  0.4845  1.4833 -0.1410
14847TIP3    H266033   6.431   2.152  10.752  0.3231  0.7462 -0.2990
14848TIP3   OH266034   4.564   6.182  11.458 -0.4618  0.2748  0.4299
14848TIP3    H166035   4.512   6.177  11.378 -0.1155  1.6486  0.0890
14848TIP3    H266036   4.548   6.098  11.502 -3.6440  0.9335  0.7863
14849TIP3   OH266037   4.844   0.467  11.550 -0.0477 -0.1196  0.3748
14849TIP3    H166038   4.919   0.482  11.492 -1.0321  1.5564 -0.5141
14849TIP3    H266039   4.789   0.405  11.502 -0.3568  0.4541 -0.0084
14850TIP3   OH266040   6.229   3.970   1.365  0.1865 -0.6839 -0.0429
14850TIP3    H166041   6.177   3.967   1.284  0.6962 -2.4202 -0.3533
14850TIP3    H266042   6.176   4.022   1.426  0.0201  1.0937 -1.6093
14851TIP3   OH266043   4.139   4.649   1.182 -0.3304 -0.4933  0.0282
14851TIP3    H166044   4.167   4.725   1.131 -1.0137 -0.2493  0.0120
14851TIP3    H266045   4.099   4.590   1.118  0.3614 -0.9630  0.0080
14852TIP3   OH266046   1.181   4.235  15.821  0.1326  0.6868  0.0862
14852TIP3    H166047   1.229   4.281  15.890  0.0545  2.5903 -1.0656
14852TIP3    H266048   1.133   4.166  15.867  1.6577  0.5752  1.6472
14853TIP3   OH266049   5.718   6.053  15.555  0.2181 -0.1123  0.0301
14853TIP3    H166050   5.746   6.122  15.614 -2.3166  0.9070  0.1652
14853TIP3    H266051   5.761   6.073  15.472 -1.5184  2.5496 -0.3421
14854TIP3   OH266052   5.729   4.925   2.043 -0.1603  0.3668 -0.8765
14854TIP3    H166053   5.633   4.929   2.046 -0.1972 -0.4822 -0.8515
14854TIP3    H266054   5.752   4.846   2.091  0.5561  0.5527 -0.9008
14855TIP3   OH266055   4.676   2.167  16.222  0.2789  0.0013  0.1503
14855TIP3    H166056   4.737   2.100  16.192  0.1069 -0.1072  0.0400
14855TIP3    H266057   4.640   2.206  16.142  0.1778  0.0395  0.2126
14856TIP3   OH266058   6.002   5.793  12.742 -0.2806  0.4102 -0.2190
14856TIP3    H166059   5.982   5.731  12.812 -0.3134  1.9593  1.1973
14856TIP3    H266060   5.927   5.786  12.683  0.0242 -1.3417 -0.4419
14857TIP3   OH266061   4.038   0.805  12.101 -0.2224  0.1461 -0.4538
14857TIP3    H166062   4.079   0.888  12.079  0.2342 -0.3037 -1.3484
14857TIP3    H266063   3.952   0.808  12.058 -0.6693  0.5952  0.4338
14858TIP3   OH266064   2.958   2.804  11.923  0.0049 -0.4318  0.1084
14858TIP3    H166065   2.904   2.852  11.861  2.2192 -0.1536 -1.7221
14858TIP3    H266066   3.033   2.774  11.872  1.5410 -0.9012  2.4735
14859TIP3   OH266067   1.486   6.559  17.094 -0.3675 -0.4296 -0.9131
14859TIP3    H166068   1.395   6.558  17.123 -0.9309 -1.0708 -2.5950
14859TIP3    H266069   1.486   6.613  17.015  0.9062  0.3799 -0.3965
14860TIP3   OH266070   2.668   4.669   3.130 -0.3303 -0.1018 -0.1865
14860TIP3    H166071   2.610   4.610   3.082  0.7337  0.2516 -2.0250
14860TIP3    H266072   2.609   4.726   3.179 -1.4074 -1.7799  0.5622
14861TIP3   OH266073   3.774   4.266   5.455  0.1239 -0.5066 -0.4664
14861TIP3    H166074   3.806   4.217   5.380  0.3591 -1.1456  0.0436
14861TIP3    H266075   3.706   4.323   5.419 -0.1711 -1.2174 -1.0600
14862TIP3   OH266076   1.971   1.379  11.267 -0.5631  0.1701  0.0934
14862TIP3    H166077   1.887   1.420  11.251 -0.5391  1.6584  3.1692
14862TIP3    H266078   2.022   1.397  11.188 -2.0863  2.0158 -0.5302
14863TIP3   OH266079   4.415   1.507   5.197 -0.3964 -0.5458  0.4419
14863TIP3    H166080   4.459   1.542   5.275 -0.4881 -1.7173  1.0571
14863TIP3    H266081   4.333   1.556   5.192 -1.0085 -1.3388  1.8940
14864TIP3   OH266082   2.614   2.170   6.764 -0.3946 -0.4070  0.2889
14864TIP3    H166083   2.565   2.193   6.685 -1.7634  0.2558  1.2809
14864TIP3    H266084   2.639   2.078   6.751 -2.0661 -0.8274 -0.2046
14865TIP3   OH266085   1.789   2.665  15.941 -0.4765 -0.5312  0.0143
14865TIP3    H166086   1.879   2.633  15.951  0.2234  1.3471  0.0332
14865TIP3    H266087   1.758   2.624  15.860  0.3253 -1.3195  0.0920
14866TIP3   OH266088   3.994   5.177   3.032  0.5331 -0.2876  0.1410
14866TIP3    H166089   4.052   5.131   2.971  0.0122 -0.2085 -0.4246
14866TIP3    H266090   3.948   5.107   3.078 -1.5688 -0.4410 -1.9550
14867TIP3   OH266091   6.624   2.244  11.183  0.1422 -0.2016  0.5775
14867TIP3    H166092   6.619   2.188  11.105 -1.1442 -2.7068  2.3203
14867TIP3    H266093   6.560   2.313  11.167  0.5468 -0.1412 -0.9389
14868TIP3   OH266094   4.878   6.196  13.475 -0.0660 -0.1021 -0.2995
14868TIP3    H166095   4.843   6.268  13.422 -1.8451 -0.9622 -0.3537
14868TIP3    H266096   4.864   6.118  13.421 -0.3067 -0.7686  0.7063
14869TIP3   OH266097   3.414   3.966  17.039  0.2261  0.4777 -0.0971
14869TIP3    H166098   3.440   3.874  17.048 -1.0365  0.0204 -0.8023
14869TIP3    H266099   3.430   3.987  16.947  1.7098  1.3937  0.3286
14870TIP3   OH266100   3.677   4.869  11.442 -0.2440 -0.3205 -0.3757
14870TIP3    H166101   3.668   4.941  11.379  0.3650  0.2880  0.2071
14870TIP3    H266102   3.614   4.890  11.511  2.4073  1.7247  1.6511
14871TIP3   OH266103   4.910   5.527  12.041  0.6374 -0.8683  0.0002
14871TIP3    H166104   4.847   5.510  11.971 -0.3161 -2.7556  1.2392
14871TIP3    H266105   4.856   5.555  12.116  1.6007  0.7339  0.1501
14872TIP3   OH266106   1.145   4.676  14.770  0.4227  0.1948  0.1967
14872TIP3    H166107   1.155   4.591  14.728  0.9496  0.8253 -1.0002
14872TIP3    H266108   1.123   4.655  14.861  0.4238 -1.2087 -0.0985
14873TIP3   OH266109   4.009   2.520   1.230  0.7747 -0.0268 -0.1219
14873TIP3    H166110   3.944   2.590   1.219  1.4973  0.3512 -2.5390
14873TIP3    H266111   3.959   2.446   1.264 -0.2318  1.2738  1.3916
14874TIP3   OH266112   0.057   6.381   5.233  0.4437  0.1546  0.5331
14874TIP3    H166113  -0.033   6.347   5.238  0.8258 -0.7439  1.8526
14874TIP3    H266114   0.079   6.379   5.140 -0.9733  0.5935  0.1630
14875TIP3   OH266115   1.292   1.775  13.499  0.2220  0.4810 -0.0012
14875TIP3    H166116   1.383   1.778  13.468  0.4387  0.1626  0.5913
14875TIP3    H266117   1.243   1.743  13.424  0.7755 -0.5183  0.0438
14876TIP3   OH266118   0.681   5.690   4.172 -0.2045  0.0572  0.4894
14876TIP3    H166119   0.643   5.602   4.177 -0.0352 -0.0746 -0.4620
14876TIP3    H266120   0.607   5.749   4.186 -0.6067 -0.2103 -0.4844
14877TIP3   OH266121   1.950   5.951  16.596  0.4497  0.1560 -0.4782
14877TIP3    H166122   1.968   5.864  16.631  0.2767  0.2665 -0.1062
14877TIP3    H266123   2.000   6.010  16.651  1.0085  0.2526 -1.0776
14878TIP3   OH266124   6.575   6.298  13.066 -0.0471 -0.1302 -0.2132
14878TIP3    H166125   6.564   6.207  13.092 -0.0045 -0.0555  0.0769
14878TIP3    H266126   6.510   6.346  13.118  0.3463  0.0794  0.0924
14879TIP3   OH266127   3.413   6.129   0.587 -0.4410 -0.1477 -0.2706
14879TIP3    H166128   3.384   6.163   0.671  0.1732  0.8005 -0.4372
14879TIP3    H266129   3.456   6.202   0.544  0.7309 -1.0610 -0.7243
14880TIP3   OH266130   3.551   4.858   4.061 -0.0246  0.2807 -0.1746
14880TIP3    H166131   3.582   4.769   4.075 -1.0670 -0.1016 -0.1633
14880TIP3    H266132   3.627   4.913   4.078  0.4905 -0.5720  0.3695
14881TIP3   OH266133   3.244   1.956  10.956  0.0669 -0.3389  0.1006
14881TIP3    H166134   3.171   1.939  10.897  0.2296  1.1258 -0.5851
14881TIP3    H266135   3.295   1.875  10.956 -0.9792 -1.0108 -0.2408
14882TIP3   OH266136   2.422   4.070  13.640 -0.0297 -0.1238 -0.1805
14882TIP3    H166137   2.495   4.030  13.687 -0.4118 -0.2078  0.3614
14882TIP3    H266138   2.373   4.116  13.708 -0.1098  0.4851 -0.6473
14883TIP3   OH266139   0.113   2.063   4.359  0.0374  0.1314  0.4992
14883TIP3    H166140   0.088   2.148   4.324  0.3251  0.3325  0.7766
14883TIP3    H266141   0.193   2.080   4.409 -0.5574 -0.0828  1.5442
14884TIP3   OH266142   6.054   6.259  16.285 -0.2610 -0.6433 -0.0319
14884TIP3    H166143   6.034   6.300  16.201 -1.3661 -0.1896  0.4382
14884TIP3    H266144   6.015   6.172  16.280  1.2541 -1.3299 -0.6614
14885TIP3   OH266145   4.947   1.989   0.911 -0.3436 -0.1467 -0.4037
14885TIP3    H166146   4.977   1.900   0.891 -1.0846 -0.2115 -1.2624
14885TIP3    H266147   4.927   2.028   0.826 -0.7336  0.5860  0.0127
14886TIP3   OH266148   0.390   2.728  11.113  0.4119  0.2937  0.0479
14886TIP3    H166149   0.301   2.762  11.115  0.4416  0.3712  0.0299
14886TIP3    H266150   0.389   2.661  11.044  0.2087 -0.1394  0.4603
14887TIP3   OH266151   3.736   5.326   5.494 -0.0334  0.1931 -0.0507
14887TIP3    H166152   3.812   5.282   5.456 -1.0787 -0.0571 -1.9506
14887TIP3    H266153   3.740   5.416   5.461  0.7644  0.9175  1.8704
14888TIP3   OH266154   5.709   1.884   0.299  0.7062 -0.1806  0.1202
14888TIP3    H166155   5.773   1.824   0.337  0.3178  0.6724  2.3130
14888TIP3    H266156   5.664   1.922   0.375 -2.0660 -0.3524 -1.2892
14889TIP3   OH266157   6.233   1.209  10.373 -0.1312 -0.0627  0.3458
14889TIP3    H166158   6.225   1.122  10.334 -1.8698 -0.1187  0.7211
14889TIP3    H266159   6.240   1.192  10.467  0.4118  0.1809  0.3504
14890TIP3   OH266160   4.283   0.321  15.376 -0.3954 -0.6072 -0.3039
14890TIP3    H166161   4.227   0.393  15.347 -1.2138 -0.7939  0.7417
14890TIP3    H266162   4.236   0.242  15.349 -1.7344 -0.8232  2.2968
14891TIP3   OH266163   2.348   0.694  16.890  0.7923 -0.0572 -0.3283
14891TIP3    H166164   2.271   0.742  16.861 -1.2117 -1.1292  2.6940
14891TIP3    H266165   2.324   0.602  16.881  2.6860 -0.4958 -1.4859
14892TIP3   OH266166   5.075   4.713  12.299 -0.1347 -0.8751  0.2295
14892TIP3    H166167   5.050   4.648  12.365 -0.3282 -0.2175  0.8102
14892TIP3    H266168   5.170   4.703  12.291 -0.3260 -2.1492 -0.6737
14893TIP3   OH266169   4.230   3.634   3.638  0.4048  0.0458  0.1541
14893TIP3    H166170   4.161   3.643   3.573  2.2883 -0.7590 -2.1368
14893TIP3    H266171   4.275   3.552   3.614  2.0638  0.4720  1.5811
14894TIP3   OH266172   5.906   2.811  15.884  0.2950  0.0267 -0.1911
14894TIP3    H166173   5.897   2.905  15.864  1.7236  0.0750 -0.7186
14894TIP3    H266174   5.935   2.809  15.975  1.3559  0.1555 -0.5196
14895TIP3   OH266175   0.995   0.706  16.507 -0.1848  0.4064 -0.1849
14895TIP3    H166176   1.059   0.682  16.574 -1.5778 -0.5496  0.8738
14895TIP3    H266177   1.042   0.695  16.424  1.6149  1.7173  0.5797
14896TIP3   OH266178   2.025   5.791  16.148 -0.4875  0.3042  0.7766
14896TIP3    H166179   2.080   5.815  16.073 -0.1546 -1.9846  0.2243
14896TIP3    H266180   2.086   5.775  16.219 -0.4807 -1.0635  0.4947
14897TIP3   OH266181   2.629   0.708   4.351  0.4680  0.3878  0.3286
14897TIP3    H166182   2.620   0.690   4.445  2.0237  1.8461  0.8101
14897TIP3    H266183   2.540   0.728   4.322  0.0592  0.5720  1.6481
14898TIP3   OH266184   1.739   3.737   2.119  0.7160  0.0278  0.1194
14898TIP3    H166185   1.795   3.794   2.171 -0.0192  0.0697  0.8917
14898TIP3    H266186   1.676   3.701   2.183  0.5319 -0.8336 -0.5348
14899TIP3   OH266187   3.054   0.136  15.166 -0.2155 -0.6816  0.2115
14899TIP3    H166188   3.027   0.158  15.255 -0.5525  1.4256 -0.3665
14899TIP3    H266189   3.146   0.163  15.162 -0.9839  2.0691 -0.8950
14900TIP3   OH266190   2.412   5.744  11.168 -0.3730 -0.4748  0.0011
14900TIP3    H166191   2.370   5.658  11.176 -0.0896 -0.8098 -1.5879
14900TIP3    H266192   2.502   5.729  11.198 -0.4709 -0.6124  0.2273
14901TIP3   OH266193   0.215   0.703   0.298 -0.2097 -0.3092  0.0369
14901TIP3    H166194   0.296   0.654   0.308  0.0476  0.1019 -0.0069
14901TIP3    H266195   0.235   0.770   0.233 -0.8904 -0.8528 -0.7407
14902TIP3   OH266196   6.691   0.308  15.391  0.8237 -0.3112  0.5839
14902TIP3    H166197   6.748   0.299  15.315  2.2080 -1.3094  1.6826
14902TIP3    H266198   6.611   0.262  15.366  1.5302 -1.2449 -0.0134
14903TIP3   OH266199   5.435   6.291  15.675  0.0327  0.1988  0.6144
14903TIP3    H166200   5.341   6.273  15.685  0.2080  0.0793  2.3752
14903TIP3    H266201   5.471   6.209  15.641 -0.3636 -0.0871  0.8684
14904TIP3   OH266202   1.063   4.751  12.590  0.2608 -0.0188 -0.2535
14904TIP3    H166203   1.039   4.659  12.598  1.9149 -0.3663  1.3630
14904TIP3    H266204   1.155   4.750  12.563  0.1011  1.1758 -0.9119
14905TIP3   OH266205   5.785   6.366   0.062  0.8225  0.1142  0.0506
14905TIP3    H166206   5.721   6.375   0.132 -1.4547 -0.3038 -1.8244
14905TIP3    H266207   5.835   6.287   0.084 -1.4462 -1.4064  0.1125
14906TIP3   OH266208   6.087   5.389   0.601  0.7571 -0.1148 -0.2102
14906TIP3    H166209   6.023   5.360   0.667 -0.7309  2.0403 -0.5696
14906TIP3    H266210   6.156   5.431   0.652  1.0422 -0.9499  0.1034
14907TIP3   OH266211   3.626   5.781   2.489  0.3823 -0.8175 -0.2094
14907TIP3    H166212   3.541   5.795   2.531  0.7296 -1.3814  0.7134
14907TIP3    H266213   3.628   5.843   2.416 -1.3212 -1.6202 -0.9928
14908TIP3   OH266214   4.262   4.927  16.270  0.3985  0.5418  0.2259
14908TIP3    H166215   4.242   4.905  16.360  1.0307  1.3312  0.5716
14908TIP3    H266216   4.292   4.845  16.231 -2.1381 -0.3882  0.0349
14909TIP3   OH266217   0.100   1.023  13.773  0.2815  0.0739  0.5080
14909TIP3    H166218   0.118   1.030  13.867 -0.1242 -1.1734  0.6890
14909TIP3    H266219   0.101   0.929  13.755  0.2225  0.2945 -0.7183
14910TIP3   OH266220   3.211   2.414  15.853  0.5917 -0.2814  0.2258
14910TIP3    H166221   3.215   2.407  15.757  0.9171  0.8906  0.1422
14910TIP3    H266222   3.135   2.470  15.870  0.7446 -0.1948  0.6403
14911TIP3   OH266223   0.123   3.555  15.286  0.4757 -0.5533 -0.3353
14911TIP3    H166224   0.071   3.633  15.305  1.2401  0.0041 -0.4527
14911TIP3    H266225   0.184   3.548  15.360 -0.9283 -2.2621  0.7400
14912TIP3   OH266226   1.646   1.530   0.741  0.1709  0.0192  0.2661
14912TIP3    H166227   1.658   1.452   0.686  1.2330  1.2965 -1.4353
14912TIP3    H266228   1.592   1.588   0.688  2.7194  2.0356 -0.3495
14913TIP3   OH266229   4.786   5.997  13.299  0.6316  0.6368 -0.1377
14913TIP3    H166230   4.790   6.026  13.208 -0.0266  0.5727 -0.1974
14913TIP3    H266231   4.747   5.909  13.295  0.4874  0.6811  0.2128
14914TIP3   OH266232   2.703   2.621  16.009 -0.1213 -0.4021  0.0657
14914TIP3    H166233   2.695   2.558  15.937  2.2895  0.8285 -1.3793
14914TIP3    H266234   2.769   2.583  16.067  1.9535  1.0755 -1.2329
14915TIP3   OH266235   2.494   3.971   3.986  0.0062  0.3814  0.1448
14915TIP3    H166236   2.489   3.909   4.059  0.3242  1.0074  0.7085
14915TIP3    H266237   2.581   3.956   3.948 -0.1366  0.0968 -0.0741
14916TIP3   OH266238   4.812   0.713  11.701  0.5077 -0.5924  0.3864
14916TIP3    H166239   4.836   0.628  11.664 -0.1839 -1.5102  1.9506
14916TIP3    H266240   4.719   0.705  11.722  0.4608  0.5142  0.6607
14917TIP3   OH266241   0.360   6.689   2.442 -0.6914 -0.1875  0.0857
14917TIP3    H166242   0.437   6.707   2.496 -1.0981 -1.0626  0.9768
14917TIP3    H266243   0.315   6.774   2.435 -0.5264 -0.0227  0.9581
14918TIP3   OH266244   1.032   6.179   3.088 -0.4237  0.1837  0.1835
14918TIP3    H166245   1.030   6.265   3.048  0.2597  0.2968  0.3853
14918TIP3    H266246   0.943   6.146   3.079 -0.3423  0.3040 -1.2137
14919TIP3   OH266247   5.421   3.689  16.513  0.5186  0.1382  0.0278
14919TIP3    H166248   5.479   3.701  16.438  1.1765  1.8528  0.7675
14919TIP3    H266249   5.365   3.766  16.513 -0.1777 -0.3501  0.6909
14920TIP3   OH266250   0.743   5.190   2.358 -0.5398 -0.3999  0.1355
14920TIP3    H166251   0.716   5.123   2.421 -0.3591  0.6198  1.3159
14920TIP3    H266252   0.683   5.178   2.284 -1.8660 -0.5186  1.1970
14921TIP3   OH266253   3.843   6.338  16.474 -0.7060 -0.4101  0.1199
14921TIP3    H166254   3.899   6.355  16.550 -3.4006 -0.9677  2.3994
14921TIP3    H266255   3.808   6.250  16.489  0.2441 -1.4461 -2.9295
14922TIP3   OH266256   3.412   4.280   2.380 -0.3429  0.3419 -0.0803
14922TIP3    H166257   3.333   4.311   2.335 -0.6191  0.6136  0.5691
14922TIP3    H266258   3.480   4.343   2.357 -0.3932  0.2808 -0.3967
14923TIP3   OH266259   0.663   6.298  15.671  0.3734  0.5258  0.2050
14923TIP3    H166260   0.676   6.214  15.716 -0.6439 -0.2548 -0.8553
14923TIP3    H266261   0.615   6.274  15.591 -1.2711  2.2886  0.5868
14924TIP3   OH266262   4.610   2.474  10.922 -0.4417 -0.5128 -0.7951
14924TIP3    H166263   4.663   2.397  10.940  1.7400  1.0877  0.0701
14924TIP3    H266264   4.606   2.479  10.827  4.0381  1.1106 -1.1131
14925TIP3   OH266265   3.124   6.834   3.751 -0.1272 -0.5838  0.5700
14925TIP3    H166266   3.118   6.825   3.846 -0.3253 -2.6403  0.4225
14925TIP3    H266267   3.098   6.748   3.717  0.2120  0.0072 -1.3415
14926TIP3   OH266268   2.897   2.204  14.314 -0.4239  0.0740  0.1442
14926TIP3    H166269   2.833   2.143  14.351 -2.3614  1.5460 -0.5902
14926TIP3    H266270   2.900   2.182  14.221 -0.6517  0.6709 -0.0065
14927TIP3   OH266271   4.346   6.110  16.257  0.4787 -0.2430  0.2274
14927TIP3    H166272   4.411   6.135  16.191  0.6295 -0.9364  0.1070
14927TIP3    H266273   4.263   6.109  16.209  0.7585 -2.0098 -0.2968
14928TIP3   OH266274   4.449   0.539  11.499  0.2601 -0.1794  0.6225
14928TIP3    H166275   4.521   0.586  11.457 -0.2252  0.2007  0.2100
14928TIP3    H266276   4.390   0.515  11.427  1.0044 -2.3846  0.6558
14929TIP3   OH266277   4.762   3.456  12.984 -0.0884 -0.0352  0.0573
14929TIP3    H166278   4.835   3.406  13.020 -0.3567  0.7821  1.8606
14929TIP3    H266279   4.686   3.397  12.990  0.3895 -0.9453 -1.9727
14930TIP3   OH266280   4.272   3.489  14.456 -0.1149  0.0203  0.2693
14930TIP3    H166281   4.266   3.428  14.383 -1.5027 -1.1125  1.2692
14930TIP3    H266282   4.363   3.481  14.487  0.2731 -0.0253 -0.8461
14931TIP3   OH266283   4.854   5.123   4.149 -0.1455  0.2007  0.9740
14931TIP3    H166284   4.844   5.206   4.102 -0.2724  1.2217  2.6976
14931TIP3    H266285   4.807   5.059   4.095 -0.1802  1.2730 -0.3189
14932TIP3   OH266286   4.550   2.285   4.241 -0.3201 -0.2322 -0.1419
14932TIP3    H166287   4.594   2.267   4.324 -1.1816  0.3823  0.4642
14932TIP3    H266288   4.475   2.225   4.240 -0.3316 -0.2133 -0.4647
14933TIP3   OH266289   2.067   0.631  14.194 -0.6227  0.2560 -1.0409
14933TIP3    H166290   2.072   0.632  14.098 -1.0380 -0.2501 -1.0670
14933TIP3    H266291   2.011   0.705  14.215  1.5920  2.0656 -1.0410
14934TIP3   OH266292   3.237   2.460   1.581 -0.4694  0.0722 -0.1805
14934TIP3    H166293   3.314   2.450   1.524 -0.1925  0.6831  0.0795
14934TIP3    H266294   3.273   2.450   1.670 -0.8472 -0.5673 -0.0888
14935TIP3   OH266295   2.020   6.805   2.012  0.7307  0.0380  0.2403
14935TIP3    H166296   1.951   6.811   2.077  0.1903  0.2323 -0.3439
14935TIP3    H266297   2.076   6.733   2.043 -1.8113 -2.7902 -1.2232
14936TIP3   OH266298   0.927   6.828  13.226 -0.1418  0.1882 -0.0011
14936TIP3    H166299   0.984   6.819  13.151 -0.8305 -1.1398 -0.3996
14936TIP3    H266300   0.963   6.769  13.292 -0.5141  0.0590  0.0920
14937TIP3   OH266301   5.916   2.065   1.055  0.4375  0.0709  0.0002
14937TIP3    H166302   5.915   2.145   1.002  1.0551 -0.0098 -0.1440
14937TIP3    H266303   5.905   1.995   0.990  2.7037 -0.1278 -0.2491
14938TIP3   OH266304   5.452   2.658   1.769  0.1513  0.4141  0.3307
14938TIP3    H166305   5.377   2.670   1.826 -0.8657  1.2544 -1.1243
14938TIP3    H266306   5.481   2.746   1.747  1.0920  0.1054  0.2475
14939TIP3   OH266307   4.057   4.185   4.453  0.2357 -0.2747  0.4012
14939TIP3    H166308   4.032   4.191   4.361 -0.6231 -1.3176  0.5469
14939TIP3    H266309   4.120   4.113   4.456  1.3048  0.6347  0.4450
14940TIP3   OH266310   3.894   6.745   5.758 -0.3542 -0.2299 -0.5740
14940TIP3    H166311   3.861   6.657   5.743  0.0725 -0.9507  2.1842
14940TIP3    H266312   3.952   6.737   5.833  1.7512  1.9812 -1.7763
14941TIP3   OH266313   0.720   3.316  15.808 -0.1913 -0.4909 -0.4815
14941TIP3    H166314   0.808   3.294  15.837 -0.6708 -0.2440  1.3114
14941TIP3    H266315   0.732   3.388  15.746  0.8319  0.2714  0.5612
14942TIP3   OH266316   5.027   4.686  16.790 -0.1550 -0.2924  0.1005
14942TIP3    H166317   5.047   4.594  16.771 -3.4609 -1.1226  0.0249
14942TIP3    H266318   5.104   4.717  16.837  2.5823 -2.0289 -2.7781
14943TIP3   OH266319   1.736   6.389   2.572  0.1721  0.2207  0.5269
14943TIP3    H166320   1.675   6.321   2.543 -1.1346  1.1261  1.0171
14943TIP3    H266321   1.705   6.468   2.528  1.9484  0.4540 -0.4011
14944TIP3   OH266322   5.329   1.617  13.204  0.1016  0.3236  0.5420
14944TIP3    H166323   5.265   1.646  13.270  0.7858  0.0034  1.3527
14944TIP3    H266324   5.307   1.525  13.188  0.2271  0.2738  0.6600
14945TIP3   OH266325   4.191   3.241   3.782 -0.0597 -0.1679 -0.2696
14945TIP3    H166326   4.169   3.211   3.870  1.0460  0.1776  0.1324
14945TIP3    H266327   4.127   3.198   3.726 -0.3618 -0.9127  0.6237
14946TIP3   OH266328   0.620   3.195   3.210 -0.3512  0.0519 -0.0502
14946TIP3    H166329   0.583   3.139   3.278  0.1640  0.6384  0.7415
14946TIP3    H266330   0.603   3.149   3.128 -0.6628 -0.8497  0.5095
14947TIP3   OH266331   1.697   6.249   0.565 -0.0050 -0.8697 -0.4532
14947TIP3    H166332   1.656   6.166   0.543  1.1879 -1.7552  0.5206
14947TIP3    H266333   1.786   6.226   0.592  0.7618  0.8484 -1.3387
14948TIP3   OH266334   0.170   1.085   0.636 -0.1849  0.2179 -0.5157
14948TIP3    H166335   0.130   1.019   0.693 -0.4252  1.5924  0.9902
14948TIP3    H266336   0.234   1.037   0.585 -0.0679 -1.1348  0.8221
14949TIP3   OH266337   5.640   6.163  14.654 -0.3089  0.2230 -0.1642
14949TIP3    H166338   5.678   6.251  14.646 -1.4348  0.8351  0.8592
14949TIP3    H266339   5.671   6.132  14.740 -0.6027 -0.0274 -0.1476
14950TIP3   OH266340   5.270   4.035   4.777 -0.8351  0.0368  0.3898
14950TIP3    H166341   5.208   4.088   4.828 -2.4286 -0.1805 -1.2249
14950TIP3    H266342   5.287   3.959   4.832 -1.8874  0.1825  0.9611
14951TIP3   OH266343   1.279   1.336   4.124 -0.2614 -0.4928 -0.1381
14951TIP3    H166344   1.233   1.401   4.178  0.1467 -0.1754 -0.1631
14951TIP3    H266345   1.371   1.348   4.147 -0.0052  0.0921 -1.3844
14952TIP3   OH266346   4.718   6.416   2.972  0.3845 -0.0298 -0.1905
14952TIP3    H166347   4.810   6.439   2.962  0.3211  1.2191  1.5714
14952TIP3    H266348   4.671   6.487   2.927  0.2573 -0.7450 -1.2204
14953TIP3   OH266349   5.884   4.496   4.656  0.2696  0.0712  0.1194
14953TIP3    H166350   5.864   4.404   4.637  0.3616  0.0267  0.2332
14953TIP3    H266351   5.858   4.507   4.748 -1.1985  0.5729 -0.3229
14954TIP3   OH266352   3.333   2.942  15.246 -0.5145 -0.2608  0.1910
14954TIP3    H166353   3.268   2.951  15.316  0.2563 -2.4381  1.3082
14954TIP3    H266354   3.370   2.854  15.260  1.4952  0.2632 -1.3902
14955TIP3   OH266355   1.839   3.115  11.543 -0.0081  0.7321 -0.0856
14955TIP3    H166356   1.903   3.182  11.517  0.5525  0.6581  1.0550
14955TIP3    H266357   1.755   3.161  11.544  0.4755  1.6259  1.4207
14956TIP3   OH266358   6.507   6.683   0.875  0.2095 -0.1246 -0.3325
14956TIP3    H166359   6.447   6.747   0.838  0.5346 -0.2323 -1.0602
14956TIP3    H266360   6.465   6.655   0.957 -1.9287 -1.9707 -1.9485
14957TIP3   OH266361   4.647   4.587   5.263  0.5874  0.3597  0.8706
14957TIP3    H166362   4.591   4.659   5.235  2.0168  1.0909 -0.2493
14957TIP3    H266363   4.593   4.508   5.254 -0.5229  1.1320  0.6965
14958TIP3   OH266364   0.326   5.893   2.798 -0.1191 -0.5890 -0.1656
14958TIP3    H166365   0.368   5.833   2.736 -0.0306  0.0977 -0.7769
14958TIP3    H266366   0.248   5.846   2.827 -0.1999 -0.8872 -0.8441
14959TIP3   OH266367   4.309   6.009  15.151 -0.0215  0.1879  0.0630
14959TIP3    H166368   4.213   6.015  15.146  0.0333  0.7250 -0.4800
14959TIP3    H266369   4.334   6.078  15.212  0.0536  0.3226 -0.1222
14960TIP3   OH266370   3.793   1.336   0.330  0.0145  0.6728 -0.6661
14960TIP3    H166371   3.869   1.277   0.336 -0.5819 -0.0530  0.1117
14960TIP3    H266372   3.731   1.301   0.394 -0.6358  1.7664 -0.6731
14961TIP3   OH266373   2.742   0.277   0.024  0.7803  0.1471  0.1327
14961TIP3    H166374   2.731   0.369   0.048  0.9706 -0.3345  2.2036
14961TIP3    H266375   2.821   0.276  -0.029 -0.2560  1.4099 -1.5727
14962TIP3   OH266376   1.811   5.065  16.890 -0.0154 -0.4919 -0.2137
14962TIP3    H166377   1.858   5.100  16.966 -0.6325  0.6094 -0.3190
14962TIP3    H266378   1.797   4.972  16.910 -1.3130  0.0525  1.6082
14963TIP3   OH266379   6.267   6.117   4.286 -0.1570 -0.0647 -0.4509
14963TIP3    H166380   6.245   6.148   4.374 -0.5023 -0.4853 -0.3860
14963TIP3    H266381   6.344   6.062   4.299  1.3230  1.8140 -0.7446
14964TIP3   OH266382   5.935   1.425   5.508 -0.8644  0.3108  0.5306
14964TIP3    H166383   5.858   1.378   5.539 -0.9445  0.0585 -0.0453
14964TIP3    H266384   5.905   1.474   5.431 -0.5463  0.5284  0.5413
14965TIP3   OH266385   2.003   3.966   4.361  0.2303  0.5393  0.0423
14965TIP3    H166386   2.064   3.979   4.288  1.4325  2.5727  1.3290
14965TIP3    H266387   1.935   3.909   4.325  1.9478 -0.3800 -1.9748
14966TIP3   OH266388   1.873   1.390  12.270 -0.0146  0.2539  0.2464
14966TIP3    H166389   1.853   1.468  12.323  0.9294  1.3701 -0.9727
14966TIP3    H266390   1.967   1.394  12.256  0.8150 -3.2421  3.3053
14967TIP3   OH266391   3.954   3.369   5.136  0.1570  0.0967  0.2815
14967TIP3    H166392   3.990   3.372   5.047 -1.4961 -0.4302 -0.4414
14967TIP3    H266393   3.997   3.293   5.176 -1.5291 -1.7930 -1.2485
14968TIP3   OH266394   2.635   5.027  14.495  0.2353  0.4720  0.5565
14968TIP3    H166395   2.682   5.032  14.578  1.3038  1.3850 -0.0637
14968TIP3    H266396   2.578   5.104  14.496 -0.6630 -0.1958  0.9660
14969TIP3   OH266397   5.231   1.150   2.679  0.3219  0.0092 -0.3906
14969TIP3    H166398   5.235   1.126   2.772  0.6797  1.1301 -0.1078
14969TIP3    H266399   5.214   1.067   2.634 -0.5640 -0.4471  0.7257
14970TIP3   OH266400   1.739   0.573  16.404 -0.1979  0.1983 -0.1444
14970TIP3    H166401   1.785   0.576  16.321 -1.1083 -1.3920 -0.7491
14970TIP3    H266402   1.663   0.630  16.392  0.5347  1.2903  0.2031
14971TIP3   OH266403   1.048   5.536   5.313 -0.2789 -0.1454 -0.4055
14971TIP3    H166404   1.114   5.485   5.359 -1.0725 -0.6337  0.2181
14971TIP3    H266405   1.070   5.627   5.331  0.0084 -0.3129  0.1055
14972TIP3   OH266406   2.376   3.349  14.638 -0.2145 -0.3845  0.3315
14972TIP3    H166407   2.432   3.309  14.704 -0.9344  0.8605  1.7690
14972TIP3    H266408   2.290   3.309  14.651 -0.3215 -0.2504  0.0502
14973TIP3   OH266409   2.346   0.511  12.027 -0.5220 -0.1447  0.0104
14973TIP3    H166410   2.257   0.540  12.009  0.0083  1.3716 -0.2833
14973TIP3    H266411   2.400   0.590  12.019  0.7836 -0.9236  0.6888
14974TIP3   OH266412   2.981   4.077   2.430  0.8299 -0.0188 -0.0583
14974TIP3    H166413   3.006   4.145   2.367  0.0901  0.9352  0.6488
14974TIP3    H266414   2.990   3.995   2.381  2.6916  0.4747 -0.6447
14975TIP3   OH266415   5.779   5.709  12.592 -0.1127  0.1914  0.2798
14975TIP3    H166416   5.713   5.661  12.643  1.3700 -2.0262  0.2258
14975TIP3    H266417   5.729   5.750  12.521 -1.9534  1.8365  2.3840
14976TIP3   OH266418   6.648   1.384  16.156  0.6097  0.1075  0.4020
14976TIP3    H166419   6.586   1.419  16.093 -0.9449 -1.8326  0.7691
14976TIP3    H266420   6.617   1.415  16.241  0.6342 -0.1574  0.5112
14977TIP3   OH266421   3.177   2.284   2.176  0.3155  0.4231 -0.1519
14977TIP3    H166422   3.204   2.376   2.184 -0.5676  0.7460 -0.7121
14977TIP3    H266423   3.084   2.288   2.154  0.4504 -0.5875 -0.9986
14978TIP3   OH266424   4.437   1.352  11.665 -0.2142 -0.5083 -0.2769
14978TIP3    H166425   4.372   1.415  11.633  1.1861  0.6968 -0.8136
14978TIP3    H266426   4.521   1.396  11.657  0.5593 -1.3429  2.1118
14979TIP3   OH266427   1.272   2.836  13.020 -0.2663 -0.6325 -0.4200
14979TIP3    H166428   1.193   2.787  13.045  0.2747 -0.5086  1.7159
14979TIP3    H266429   1.344   2.776  13.035  0.1123 -0.6896 -2.2190
14980TIP3   OH266430   3.159   4.209   0.359 -0.2593 -0.2156  0.0410
14980TIP3    H166431   3.092   4.159   0.312 -1.6918  2.6156 -1.1886
14980TIP3    H266432   3.241   4.166   0.336 -1.3431 -1.7217 -1.2671
14981TIP3   OH266433   3.607   0.308  16.157 -0.1760 -0.4730 -0.2293
14981TIP3    H166434   3.518   0.341  16.168 -0.5701 -1.7211  0.4840
14981TIP3    H266435   3.603   0.217  16.186  1.1060 -0.8594 -1.1669
14982TIP3   OH266436   1.966   3.905   3.910  0.0900  0.0557  0.4398
14982TIP3    H166437   1.933   3.821   3.878 -1.7156  0.7309  0.4533
14982TIP3    H266438   1.986   3.955   3.831  0.8351 -0.2339  0.4324
14983TIP3   OH266439   3.140   2.874  12.988  0.0816 -0.2902  0.8505
14983TIP3    H166440   3.202   2.817  13.033 -3.3441 -1.3600  4.9435
14983TIP3    H266441   3.102   2.818  12.919 -0.3698 -1.6848  2.1614
14984TIP3   OH266442   2.789   0.665  11.632 -0.6028  0.4514 -0.4347
14984TIP3    H166443   2.833   0.746  11.656  1.1343 -1.1721  2.5174
14984TIP3    H266444   2.696   0.684  11.641 -0.2640  1.1450  4.8488
14985TIP3   OH266445   1.950   2.535   2.684  0.6577  0.4234  0.0472
14985TIP3    H166446   1.947   2.606   2.619  0.4848 -2.3933 -3.2657
14985TIP3    H266447   1.860   2.506   2.692  1.1585 -1.9663 -1.8418
14986TIP3   OH266448   1.392   4.735   3.340 -0.3910 -0.5710  0.2213
14986TIP3    H166449   1.455   4.671   3.374  0.1085 -1.1142 -1.6311
14986TIP3    H266450   1.328   4.683   3.293  0.4314  0.2773 -1.9457
14987TIP3   OH266451   3.890   2.513  15.450  0.0276 -0.2518  0.4253
14987TIP3    H166452   3.910   2.457  15.375 -0.4315 -0.7363  0.6547
14987TIP3    H266453   3.806   2.480  15.482 -0.6546  1.0842  0.0855
14988TIP3   OH266454   5.258   5.468   3.889  0.2340 -0.3558  0.1956
14988TIP3    H166455   5.206   5.547   3.874 -0.8028 -1.1399 -0.5046
14988TIP3    H266456   5.236   5.411   3.815  1.7164 -0.9220  0.1629
14989TIP3   OH266457   3.415   5.288   0.923 -0.1020  0.2964  0.4340
14989TIP3    H166458   3.324   5.312   0.939 -0.7933 -1.2188 -0.9075
14989TIP3    H266459   3.429   5.307   0.830  1.1886  1.1096  0.7545
14990TIP3   OH266460   0.983   3.345   0.811  0.2218  0.8186 -0.1635
14990TIP3    H166461   1.077   3.367   0.809  0.2915  1.5777  3.7146
14990TIP3    H266462   0.980   3.251   0.798  1.7437  0.5338  1.1770
14991TIP3   OH266463   4.551   6.425  13.128 -0.1237 -0.6775  0.5167
14991TIP3    H166464   4.517   6.500  13.079 -0.8304 -1.1105  0.3254
14991TIP3    H266465   4.476   6.394  13.178 -0.1252 -1.9007 -0.2154
14992TIP3   OH266466   0.090   4.770  12.078 -0.8055 -0.4469 -0.3682
14992TIP3    H166467   0.182   4.754  12.095 -1.6434 -2.2243  3.7753
14992TIP3    H266468   0.075   4.859  12.109 -0.6364 -0.4590 -0.2513
14993TIP3   OH266469   4.895   6.013  11.372  0.4693 -0.2016  0.7039
14993TIP3    H166470   4.910   6.093  11.322 -0.9730  0.2240  0.9125
14993TIP3    H266471   4.982   5.975  11.383  0.9710  0.4035 -0.9293
14994TIP3   OH266472   6.544   0.787  12.242  0.2009  0.0042 -0.1639
14994TIP3    H166473   6.523   0.880  12.251  0.7009  0.0169  1.1210
14994TIP3    H266474   6.635   0.780  12.273  0.3837 -0.8174 -0.8434
14995TIP3   OH266475   3.073   3.702   3.753 -0.0948 -0.0360 -0.5396
14995TIP3    H166476   3.162   3.687   3.722  0.0264 -1.1085  0.2636
14995TIP3    H266477   3.036   3.615   3.761 -0.9690  0.3613 -0.1417
14996TIP3   OH266478   6.596   0.767  13.162 -0.3495 -0.0772  0.1141
14996TIP3    H166479   6.616   0.838  13.223  0.6622  0.3974 -0.7474
14996TIP3    H266480   6.500   0.760  13.165 -0.5352  1.7040 -0.1944
14997TIP3   OH266481   6.233   2.015   5.588  0.0563  0.1376 -1.0774
14997TIP3    H166482   6.327   2.030   5.594  0.5040 -2.0587 -1.6632
14997TIP3    H266483   6.215   2.011   5.494 -0.8237  1.5090 -0.9935
14998TIP3   OH266484   6.847   5.032   0.309 -0.7566  0.0516 -0.1008
14998TIP3    H166485   6.759   4.998   0.293 -0.5956 -0.2313 -0.3966
14998TIP3    H266486   6.848   5.052   0.403 -0.8004 -0.9280  0.1201
14999TIP3   OH266487   2.277   3.081   5.272 -0.3793 -0.5835  0.3790
14999TIP3    H166488   2.247   3.139   5.342  0.3105  1.6642 -1.1126
14999TIP3    H266489   2.369   3.102   5.260 -1.1538  1.5131 -3.3101
15000TIP3   OH266490   1.305   4.661  15.445 -0.0673  0.6987 -0.7689
15000TIP3    H166491   1.301   4.603  15.368  1.4396  0.1644 -0.4824
15000TIP3    H266492   1.328   4.603  15.517  0.1417  1.4472 -0.2249
15001TIP3   OH266493   2.568   2.056  11.494 -0.2956  0.1751 -0.4576
15001TIP3    H166494   2.522   2.009  11.564 -0.0211 -1.4519 -1.3105
15001TIP3    H266495   2.628   2.115  11.540 -0.5168 -0.4596  0.6789
15002TIP3   OH266496   5.255   2.967  11.533  0.1137  0.8319 -0.3461
15002TIP3    H166497   5.178   2.929  11.490  1.1481 -3.8013  1.2928
15002TIP3    H266498   5.327   2.950  11.472  0.8762 -1.7087  1.1436
15003TIP3   OH266499   2.155   2.255   2.972  0.0201  0.1680 -0.1057
15003TIP3    H166500   2.207   2.336   2.969 -1.0772  0.8769 -1.6562
15003TIP3    H266501   2.182   2.206   2.895  0.8612 -1.1040  0.9674
15004TIP3   OH266502   1.111   4.701   5.458 -0.1885 -0.3933 -0.0369
15004TIP3    H166503   1.030   4.714   5.410 -0.5412 -0.9490  0.3932
15004TIP3    H266504   1.180   4.733   5.399 -0.8377  1.7415  0.3057
15005TIP3   OH266505   5.041   2.840   5.512 -0.1052 -0.4459 -0.3535
15005TIP3    H166506   4.966   2.830   5.453  0.1761  0.3867 -0.8655
15005TIP3    H266507   5.106   2.777   5.480  0.1125  0.1229 -1.0517
15006TIP3   OH266508   0.072   5.894   3.673 -0.0837 -0.2477  0.1465
15006TIP3    H166509   0.108   5.833   3.737 -1.5288 -0.3157  0.9349
15006TIP3    H266510  -0.007   5.930   3.715 -1.7293 -1.1258 -1.9689
15007TIP3   OH266511   4.399   3.619  11.841  0.1131 -0.0120  0.2402
15007TIP3    H166512   4.355   3.583  11.918  2.0174  0.1277  1.4667
15007TIP3    H266513   4.421   3.709  11.866  2.7429 -0.6297  0.4924
15008TIP3   OH266514   4.352   2.417   3.238 -0.2326 -0.1485  0.6131
15008TIP3    H166515   4.305   2.500   3.240  0.9642  0.5956 -0.9224
15008TIP3    H266516   4.299   2.361   3.181  0.2431  0.3790 -0.3560
15009TIP3   OH266517   6.191   1.206  13.008  0.2008 -0.1336  0.2302
15009TIP3    H166518   6.242   1.170  13.080  2.6131 -0.1802 -1.3868
15009TIP3    H266519   6.243   1.279  12.975 -0.5551 -0.4240 -1.7567
15010TIP3   OH266520   1.799   0.672   5.831 -0.1765 -0.5392  0.2175
15010TIP3    H166521   1.852   0.618   5.889 -0.1419 -0.5544  0.1723
15010TIP3    H266522   1.733   0.711   5.888  0.0213 -0.3424  0.3154
15011TIP3   OH266523   0.801   5.959  10.530 -0.2560  0.4705 -0.2440
15011TIP3    H166524   0.811   6.038  10.476  0.4347 -0.1276 -1.0170
15011TIP3    H266525   0.818   5.886  10.470 -2.6685 -0.3813  0.0009
15012TIP3   OH266526   1.059   6.223   2.114  0.0721 -0.1909  0.7967
15012TIP3    H166527   0.971   6.246   2.085 -0.5741  0.4369  3.0804
15012TIP3    H266528   1.106   6.201   2.033 -2.0722 -0.2727 -0.4948
15013TIP3   OH266529   2.396   0.792  11.164 -0.1679  0.1247  0.1073
15013TIP3    H166530   2.386   0.697  11.156 -1.5957  0.3684 -1.5471
15013TIP3    H266531   2.424   0.805  11.255 -2.1293 -1.7614  1.0861
15014TIP3   OH266532   3.818   1.176  16.689  0.0837  0.0893 -0.5276
15014TIP3    H166533   3.883   1.182  16.619  0.4156  0.6824 -0.1790
15014TIP3    H266534   3.865   1.141  16.764 -0.3485 -0.8445 -0.6846
15015TIP3   OH266535   2.469   1.105  15.562  0.5076  0.1095 -0.4912
15015TIP3    H166536   2.402   1.141  15.503  0.6209  0.6107 -0.3213
15015TIP3    H266537   2.551   1.143  15.530  1.4095 -3.5351 -3.2541
15016TIP3   OH266538   5.951   4.059  15.174  0.4325  0.1002  0.0707
15016TIP3    H166539   5.998   4.080  15.255 -0.0813 -1.4791  0.8252
15016TIP3    H266540   5.970   3.967  15.159 -1.2699 -0.2091 -0.3808
15017TIP3   OH266541   4.812   3.791  15.906  0.0117  0.0190 -0.1950
15017TIP3    H166542   4.819   3.851  15.981  1.4140  0.2044 -0.4601
15017TIP3    H266543   4.872   3.827  15.841  0.0996 -1.1087 -0.7506
15018TIP3   OH266544   5.580   4.173  16.404  0.1633  0.0444 -0.3835
15018TIP3    H166545   5.612   4.254  16.444 -0.9883  0.1341  0.4001
15018TIP3    H266546   5.490   4.193  16.378 -0.1257 -0.9689 -0.2109
15019TIP3   OH266547   6.533   2.178   0.787  0.9136  0.1811 -0.5477
15019TIP3    H166548   6.485   2.098   0.768 -0.0856 -0.6214  4.0648
15019TIP3    H266549   6.476   2.249   0.757 -0.4515 -0.8436 -0.4480
15020TIP3   OH266550   4.970   5.125   1.307 -0.3144  0.4034  0.4700
15020TIP3    H166551   4.972   5.039   1.266 -1.6046  0.8964 -0.6964
15020TIP3    H266552   5.049   5.168   1.276 -1.8541  1.2479 -2.7557
15021TIP3   OH266553   0.701   5.201  13.611  0.1398  0.1594  0.7050
15021TIP3    H166554   0.729   5.126  13.664 -0.9404 -0.8728 -0.1516
15021TIP3    H266555   0.771   5.211  13.547 -1.0826 -2.1141 -1.1282
15022TIP3   OH266556   3.564   1.400   6.264 -0.6270  0.1868  0.1864
15022TIP3    H166557   3.569   1.341   6.189  0.1567 -0.5606  0.8013
15022TIP3    H266558   3.512   1.474   6.233  0.5412  0.3832 -1.4051
15023TIP3   OH266559   2.293   3.888  14.368  0.0688  0.3802 -0.3835
15023TIP3    H166560   2.322   3.805  14.406 -0.9528  0.4922  0.7123
15023TIP3    H266561   2.361   3.950  14.392 -1.6399  1.0126  3.6052
15024TIP3   OH266562   3.777   3.303  11.574 -0.1373  0.3553 -0.7872
15024TIP3    H166563   3.821   3.333  11.495  0.3002 -1.3019 -1.2035
15024TIP3    H266564   3.847   3.270  11.631 -0.6822 -1.2057 -0.9670
15025TIP3   OH266565   1.488   1.023  16.572  0.2081  0.0152  0.3479
15025TIP3    H166566   1.437   0.948  16.603 -1.8458  1.1243 -0.1135
15025TIP3    H266567   1.467   1.029  16.478  0.0155  1.3404  0.4454
15026TIP3   OH266568   5.146   5.080   3.926 -0.6746  0.4543  0.4653
15026TIP3    H166569   5.093   5.083   4.006 -0.1605  0.9802  0.7909
15026TIP3    H266570   5.138   5.167   3.888  1.8610  1.3522  1.7798
15027TIP3   OH266571   3.434   2.089   4.483  0.2128 -0.0342 -0.0820
15027TIP3    H166572   3.356   2.126   4.526 -0.6756 -1.0984 -0.7030
15027TIP3    H266573   3.506   2.146   4.510 -0.4830 -0.0215  1.9429
15028TIP3   OH266574   0.782   0.576  13.518 -0.9397  0.2525 -0.1056
15028TIP3    H166575   0.740   0.641  13.461 -0.8265  1.2264  0.8774
15028TIP3    H266576   0.865   0.617  13.542  0.4714 -1.4628 -1.7020
15029TIP3   OH266577   5.884   0.545   2.363  0.1662 -0.2579  0.2452
15029TIP3    H166578   5.796   0.569   2.333 -0.6443 -2.4118  0.7272
15029TIP3    H266579   5.918   0.624   2.404 -2.1360  0.2568  1.3348
15030TIP3   OH266580   5.832   0.018   5.811  0.1224 -0.1578 -0.5462
15030TIP3    H166581   5.788   0.078   5.751  0.8724 -0.7718 -1.7480
15030TIP3    H266582   5.925   0.037   5.800  0.2567  1.3035  2.1510
15031TIP3   OH266583   0.440   1.891  11.449 -0.1113 -0.0918 -0.1887
15031TIP3    H166584   0.483   1.973  11.425 -0.5019 -0.2706 -1.6011
15031TIP3    H266585   0.509   1.824  11.439  0.2220  0.0484  1.0147
15032TIP3   OH266586   4.560   4.434   6.142  0.0205  0.4596  0.2320
15032TIP3    H166587   4.480   4.400   6.182 -0.2987  1.4320  0.4558
15032TIP3    H266588   4.625   4.433   6.213  0.8524 -2.3098 -0.4745
15033TIP3   OH266589   3.649   0.691  16.389  0.7197  0.1296  0.1883
15033TIP3    H166590   3.702   0.634  16.333  1.4959 -0.4175  1.4505
15033TIP3    H266591   3.705   0.767  16.406  0.5162  0.2619  0.2677
15034TIP3   OH266592   2.353   0.794   5.028  0.3491  0.1156  0.5488
15034TIP3    H166593   2.265   0.809   5.061  0.0264  3.0610 -1.2834
15034TIP3    H266594   2.411   0.834   5.094  0.3343 -1.3028  1.4623
15035TIP3   OH266595   0.065   0.811   3.018  0.2694 -0.0923 -0.3066
15035TIP3    H166596  -0.013   0.784   3.068  0.5808  2.0375  1.5105
15035TIP3    H266597   0.110   0.729   2.999 -1.9688 -1.3234 -0.6996
15036TIP3   OH266598   1.648   5.964  14.756  0.0981 -0.2152 -0.0034
15036TIP3    H166599   1.630   5.874  14.727  0.1293 -0.2133 -0.0286
15036TIP3    H266600   1.630   5.962  14.850 -0.3032 -0.1410 -0.0777
15037TIP3   OH266601   0.954   5.224  11.060  0.0933  0.2280  0.0057
15037TIP3    H166602   0.954   5.198  10.968  0.6628 -1.1032  0.3623
15037TIP3    H266603   1.039   5.194  11.094 -0.5117 -0.1912  1.2096
15038TIP3   OH266604   2.923   5.059  12.797  0.3331 -0.0951 -0.4093
15038TIP3    H166605   3.010   5.064  12.837  0.8257  1.0676 -1.5471
15038TIP3    H266606   2.862   5.065  12.871  1.2192 -0.1703  0.3401
15039TIP3   OH266607   1.673   1.118   6.287  0.3555 -0.1454  0.4677
15039TIP3    H166608   1.739   1.149   6.350 -0.3993 -2.0396  2.2760
15039TIP3    H266609   1.591   1.155   6.318  0.2626  0.7962 -0.7994
15040TIP3   OH266610   2.603   6.465  16.225 -0.2739  0.5717 -0.0347
15040TIP3    H166611   2.594   6.554  16.194  0.5477  0.2877 -1.1478
15040TIP3    H266612   2.567   6.411  16.155  1.9281 -0.0959 -0.7426
15041TIP3   OH266613   6.385   4.376  13.598 -0.1122  0.4331  0.4291
15041TIP3    H166614   6.305   4.424  13.576 -1.0165 -0.2517  2.0488
15041TIP3    H266615   6.371   4.288  13.563 -0.6435 -0.0484  1.7948
15042TIP3   OH266616   4.551   6.698   3.304 -0.7410  0.7232 -0.0205
15042TIP3    H166617   4.562   6.750   3.224 -1.1614  0.4963 -0.2266
15042TIP3    H266618   4.520   6.613   3.273 -0.8412  0.6131  0.3824
15043TIP3   OH266619   4.765   4.647   0.902  0.2282 -0.1739  0.0940
15043TIP3    H166620   4.801   4.710   0.840  0.8648  0.6945  1.3167
15043TIP3    H266621   4.801   4.563   0.875  1.4032  0.3630 -0.0410
15044TIP3   OH266622   1.625   5.528   0.322 -0.1504  0.3635 -0.4412
15044TIP3    H166623   1.629   5.618   0.289  2.0289  1.0747  1.5347
15044TIP3    H266624   1.653   5.474   0.248 -0.6218  1.3583 -1.3761
15045TIP3   OH266625   3.410   4.223   5.880 -0.3676 -0.2984  0.0417
15045TIP3    H166626   3.498   4.217   5.843 -0.7318 -0.6704 -0.7846
15045TIP3    H266627   3.418   4.183   5.967  0.1854 -0.7081 -0.1916
15046TIP3   OH266628   4.899   1.618  16.231 -0.2840 -0.6508 -0.4104
15046TIP3    H166629   4.875   1.709  16.213  0.2058 -0.2655  0.7686
15046TIP3    H266630   4.969   1.599  16.169  0.7329  0.3248  0.3983
15047TIP3   OH266631   1.199   5.398  15.553  0.0658 -0.2239 -0.4208
15047TIP3    H166632   1.222   5.436  15.468 -1.5698  0.6955 -0.5136
15047TIP3    H266633   1.202   5.472  15.614 -3.0251  0.1750 -0.5723
15048TIP3   OH266634   0.997   1.813  16.731 -0.1923  0.2512  0.4413
15048TIP3    H166635   1.000   1.901  16.693  0.8576 -0.7499 -2.0411
15048TIP3    H266636   0.924   1.770  16.685 -2.3534  0.4707  3.4042
15049TIP3   OH266637   4.669   3.259   1.679  0.0154  0.2962 -0.0546
15049TIP3    H166638   4.680   3.174   1.637  1.7660  0.4856 -0.0278
15049TIP3    H266639   4.756   3.283   1.710 -0.3501  2.2852 -0.4023
15050TIP3   OH266640   2.600   4.753  14.354  0.1976 -0.8094  0.0108
15050TIP3    H166641   2.544   4.739  14.278 -0.1843 -1.7808  0.4587
15050TIP3    H266642   2.572   4.838  14.389 -0.1328 -0.7067 -0.4883
15051TIP3   OH266643   3.575   5.780  17.087 -0.2389  0.1284  0.3483
15051TIP3    H166644   3.611   5.778  16.998  1.3813  1.5760  0.9131
15051TIP3    H266645   3.586   5.691  17.120 -3.7901 -1.3517 -1.9046
15052TIP3   OH266646   3.044   0.181  12.441  0.2463 -0.1861  0.1846
15052TIP3    H166647   2.950   0.193  12.458  0.4884  2.4464  0.0885
15052TIP3    H266648   3.048   0.152  12.350 -0.4671 -0.7909  0.3290
15053TIP3   OH266649   1.952   4.652  11.987  0.1364 -0.0174 -0.1500
15053TIP3    H166650   2.025   4.627  12.043  1.9042  2.9880 -0.8958
15053TIP3    H266651   1.904   4.718  12.037 -0.3802  0.1011 -0.7745
15054TIP3   OH266652   0.734   4.968  13.772  0.1159 -0.5661  0.1896
15054TIP3    H166653   0.699   4.983  13.860  0.0344  0.2069  0.0296
15054TIP3    H266654   0.823   4.935  13.787  0.3991  0.3284  0.5640
15055TIP3   OH266655   3.368   2.285   6.222 -0.0109  0.1510  0.0066
15055TIP3    H166656   3.383   2.378   6.205  1.5418  0.4238  2.3780
15055TIP3    H266657   3.435   2.240   6.172  0.8576  0.5146  0.8225
15056TIP3   OH266658   2.758   0.623  13.076  0.1056  0.4268  0.2670
15056TIP3    H166659   2.728   0.683  13.144  0.5448 -0.5162  1.3167
15056TIP3    H266660   2.700   0.548  13.084  0.7402 -0.0756  0.2196
15057TIP3   OH266661   1.161   1.509  15.086 -0.1944 -0.3911 -0.1684
15057TIP3    H166662   1.178   1.561  15.007  0.5780  1.0316  0.8931
15057TIP3    H266663   1.192   1.422  15.064  0.0374 -0.0198 -1.4221
15058TIP3   OH266664   6.231   6.286   5.470 -0.0278  0.3134  0.3719
15058TIP3    H166665   6.220   6.381   5.481 -2.3203  0.3303 -1.3108
15058TIP3    H266666   6.209   6.270   5.379  0.4082 -1.8497  0.6018
15059TIP3   OH266667   1.588   6.518  16.777  0.3118 -0.5182  0.4878
15059TIP3    H166668   1.647   6.464  16.724 -0.4824  0.4970 -1.5566
15059TIP3    H266669   1.502   6.478  16.764 -0.2478  0.9988 -0.8508
15060TIP3   OH266670   0.337   1.938   5.173  0.0826 -0.3610 -0.0948
15060TIP3    H166671   0.279   1.908   5.242  0.4801  0.3738  0.5710
15060TIP3    H266672   0.400   1.867   5.161 -2.3310 -2.3003 -2.5517
15061TIP3   OH266673   0.242   5.672   1.130 -0.3560  0.2352 -0.0651
15061TIP3    H166674   0.244   5.628   1.045  0.4003 -0.5320  0.3292
15061TIP3    H266675   0.333   5.697   1.146 -0.4670  0.2562  0.5681
15062TIP3   OH266676   6.306   4.021   6.659 -0.9679 -0.3207  0.2425
15062TIP3    H166677   6.391   4.011   6.617 -1.1155 -2.2383  0.3162
15062TIP3    H266678   6.324   4.059   6.744 -0.4513  1.5564 -0.6581
15063TIP3   OH266679   3.772   0.611   4.221  0.1125 -0.3825 -0.2814
15063TIP3    H166680   3.788   0.547   4.152  0.6223 -0.1986 -0.3356
15063TIP3    H266681   3.853   0.612   4.272  0.4211  0.8154 -0.7680
15064TIP3   OH266682   1.533   3.915  12.358 -0.6251 -0.1626  0.0331
15064TIP3    H166683   1.447   3.956  12.346 -0.9312 -1.1682 -1.5036
15064TIP3    H266684   1.547   3.865  12.277  2.4961  1.8830 -0.8944
15065TIP3   OH266685   4.287   5.796  11.343 -0.2150 -0.4291  0.4459
15065TIP3    H166686   4.215   5.855  11.364  0.2637 -0.0491  1.0501
15065TIP3    H266687   4.361   5.829  11.394  0.4476 -0.6797 -0.3325
15066TIP3   OH266688   2.934   6.302   5.940 -0.0568 -0.2444 -0.1406
15066TIP3    H166689   2.979   6.222   5.967  0.6222 -0.5365 -1.9952
15066TIP3    H266690   2.994   6.373   5.962  0.9223 -0.5557 -1.6791
15067TIP3   OH266691   1.304   1.535  11.434 -0.7110  0.4969  0.9710
15067TIP3    H166692   1.378   1.530  11.495 -0.5527  0.7938  0.8081
15067TIP3    H266693   1.301   1.449  11.392  0.7969  1.1052 -0.4702
15068TIP3   OH266694   1.612   2.106   0.004  0.2524 -0.5310  0.3430
15068TIP3    H166695   1.542   2.084  -0.058 -0.8189  0.5063  1.1348
15068TIP3    H266696   1.690   2.115  -0.051 -0.7055  0.5688 -0.9363
15069TIP3   OH266697   6.031   1.988   6.352  0.3236 -0.0928 -0.3995
15069TIP3    H166698   5.974   1.912   6.362  1.4903 -1.1965 -1.6719
15069TIP3    H266699   6.100   1.975   6.417 -0.2926  0.7202  0.4476
15070TIP3   OH266700   4.655   6.614  16.190 -0.0155 -0.4656  0.1519
15070TIP3    H166701   4.590   6.595  16.123 -0.0491 -1.4322  0.4373
15070TIP3    H266702   4.728   6.655  16.143 -1.4263  2.1199  0.0636
15071TIP3   OH266703   6.115   4.965   6.063  0.0884 -0.5978 -0.0948
15071TIP3    H166704   6.115   4.946   5.969 -0.3591  3.2380 -1.0429
15071TIP3    H266705   6.208   4.978   6.084  0.0724  0.5340 -0.5917
15072TIP3   OH266706   0.581   6.715  15.328  0.6056  0.1786 -0.4129
15072TIP3    H166707   0.568   6.807  15.307  2.8391  1.3735  2.6076
15072TIP3    H266708   0.663   6.691  15.285 -0.5641 -0.8550 -2.1838
15073TIP3   OH266709   3.674   4.590   5.810  0.3516 -0.6320 -0.1732
15073TIP3    H166710   3.581   4.613   5.810  0.4563 -0.1646 -0.9292
15073TIP3    H266711   3.684   4.530   5.884 -0.3001  0.3188  0.7176
15074TIP3   OH266712   2.028   5.329  14.143  0.0121 -0.0158  0.3257
15074TIP3    H166713   1.936   5.355  14.144  0.6256  2.5382 -0.8158
15074TIP3    H266714   2.037   5.273  14.066 -0.3820  0.6800 -0.2367
15075TIP3   OH266715   2.590   5.560  11.909 -0.3389 -1.0567 -0.1313
15075TIP3    H166716   2.649   5.575  11.983  0.8537  0.2482 -1.3071
15075TIP3    H266717   2.503   5.554  11.950  0.1960  0.3397  1.3207
15076TIP3   OH266718   1.925   5.598   4.479 -0.4717 -0.2293  0.0858
15076TIP3    H166719   1.857   5.662   4.455  1.1715  1.1604 -1.1873
15076TIP3    H266720   2.000   5.623   4.425  1.6203 -0.6388  2.6421
15077TIP3   OH266721   2.682   4.047   3.607 -0.1197  0.1506 -0.6637
15077TIP3    H166722   2.716   4.095   3.683  3.2480 -0.6804 -1.4945
15077TIP3    H266723   2.692   4.107   3.534  0.9536 -0.5745 -1.1437
15078TIP3   OH266724   6.632   5.350  15.967 -0.8156  0.3562 -0.1044
15078TIP3    H166725   6.675   5.432  15.943 -1.1779  1.0800  1.6007
15078TIP3    H266726   6.690   5.282  15.934  0.2580  1.3072 -0.2288
15079TIP3   OH266727   3.042   0.596  15.049  0.4159 -0.5292  0.0892
15079TIP3    H166728   2.965   0.653  15.048  1.5176  1.1176 -2.3292
15079TIP3    H266729   3.006   0.507  15.044 -1.3195  0.0995  0.5269
15080TIP3   OH266730   0.481   3.749  16.767 -0.3301  0.8093 -0.3995
15080TIP3    H166731   0.572   3.776  16.751 -0.6356  1.5628 -0.9052
15080TIP3    H266732   0.452   3.715  16.682 -0.5704  0.7220 -0.2812
15081TIP3   OH266733   2.042   5.794   1.316  0.0314  0.5381  0.3008
15081TIP3    H166734   1.958   5.752   1.337 -0.0776  0.0400 -1.0311
15081TIP3    H266735   2.061   5.848   1.392 -0.7904 -0.4479  1.2448
15082TIP3   OH266736   4.995   2.078   3.126 -0.7309 -0.1805 -0.0102
15082TIP3    H166737   5.010   2.004   3.068  0.1263 -0.2993  0.3552
15082TIP3    H266738   5.024   2.048   3.212 -1.8194  0.0538  0.4574
15083TIP3   OH266739   3.925   1.532  12.015 -0.1181 -0.1289 -0.4106
15083TIP3    H166740   3.991   1.537  11.946  0.8954  0.6705  0.5729
15083TIP3    H266741   3.885   1.446  12.004  0.8246 -0.4733 -1.2710
15084TIP3   OH266742   5.647   0.370   3.635  0.0541  0.0760  0.1375
15084TIP3    H166743   5.610   0.286   3.660  1.6384 -0.2421  1.6110
15084TIP3    H266744   5.642   0.372   3.540 -2.0264 -0.6898  0.1778
15085TIP3   OH266745   6.377   5.533  13.780  0.1467 -0.8035  0.1490
15085TIP3    H166746   6.442   5.463  13.783  0.8072 -0.1763  2.0454
15085TIP3    H266747   6.303   5.501  13.831 -0.4773 -0.9598 -0.8282
15086TIP3   OH266748   4.604   1.812  11.573 -0.4445 -0.5391  0.0332
15086TIP3    H166749   4.665   1.882  11.549  0.0397 -0.6853  0.8169
15086TIP3    H266750   4.660   1.740  11.601 -0.9454 -1.1812 -0.5702
15087TIP3   OH266751   3.771   0.222  11.907  0.2221 -0.3724  0.5860
15087TIP3    H166752   3.826   0.299  11.893 -0.2164 -0.4497 -2.0273
15087TIP3    H266753   3.722   0.242  11.986  1.5342  1.1620  1.0711
15088TIP3   OH266754   6.458   6.520  16.927 -0.0480 -0.1583 -0.2265
15088TIP3    H166755   6.438   6.443  16.874 -0.9338 -0.2912  0.2768
15088TIP3    H266756   6.517   6.488  16.995  1.6651  0.1576 -1.5127
15089TIP3   OH266757   2.936   5.511  10.646 -0.8980 -0.3601 -0.1217
15089TIP3    H166758   3.001   5.503  10.577 -0.2248  0.0180  0.4521
15089TIP3    H266759   2.875   5.439  10.631  0.2497 -1.3665 -0.0296
15090TIP3   OH266760   3.861   2.167  15.682  0.1999  0.1981  0.5058
15090TIP3    H166761   3.954   2.149  15.667  0.5112  1.6891  0.5031
15090TIP3    H266762   3.816   2.090  15.648  1.2889  0.4129 -1.5997
15091TIP3   OH266763   1.728   5.397  13.130  0.3396 -0.9820  0.2109
15091TIP3    H166764   1.661   5.330  13.113 -0.0916 -0.3481 -0.7112
15091TIP3    H266765   1.688   5.478  13.100  1.0241 -0.3752  0.9139
15092TIP3   OH266766   6.802   2.836   0.127  0.1888 -0.1477  0.1872
15092TIP3    H166767   6.833   2.916   0.084  0.4706 -1.7080 -2.7886
15092TIP3    H266768   6.707   2.836   0.112  0.3833 -1.0833 -1.3313
15093TIP3   OH266769   3.188   1.853   2.790  0.1486 -0.1673  0.3934
15093TIP3    H166770   3.268   1.905   2.781 -0.5746  0.6663 -1.8218
15093TIP3    H266771   3.210   1.767   2.752  0.7494 -0.8752  2.2480
15094TIP3   OH266772   1.622   3.466   6.703 -0.4267  0.1347 -0.2787
15094TIP3    H166773   1.535   3.435   6.679 -0.3363  0.7041 -1.4161
15094TIP3    H266774   1.676   3.387   6.705 -0.9523 -0.2218  0.4429
15095TIP3   OH266775   6.086   1.070  11.085 -0.1143  0.1392 -0.6041
15095TIP3    H166776   6.118   1.090  10.997 -1.7289 -1.5732 -1.6589
15095TIP3    H266777   5.991   1.077  11.079 -0.3639 -1.5730  0.5619
15096TIP3   OH266778   5.386   4.873  15.179  0.2257 -0.0282 -0.3593
15096TIP3    H166779   5.384   4.836  15.090 -2.1539 -0.4704 -0.1929
15096TIP3    H266780   5.382   4.797  15.236 -0.0899  0.3108  0.0774
15097TIP3   OH266781   0.006   6.423   4.725 -0.4344 -0.1062  0.3197
15097TIP3    H166782  -0.027   6.503   4.683  4.1268  2.1401  0.4148
15097TIP3    H266783   0.023   6.449   4.815  0.5449 -1.3924  0.5199
15098TIP3   OH266784   6.413   1.638  13.094  0.5231 -0.1776  0.5650
15098TIP3    H166785   6.375   1.562  13.048  0.2846 -0.4656  1.2324
15098TIP3    H266786   6.341   1.672  13.147  1.0949 -0.5149  1.5789
15099TIP3   OH266787   4.555   3.948   3.804  0.1171  0.3012  0.0517
15099TIP3    H166788   4.615   4.008   3.848 -1.0429  1.1808  0.4915
15099TIP3    H266789   4.491   4.006   3.762  0.1920 -0.5744 -1.3286
15100TIP3   OH266790   3.821   2.091  15.015  0.3148  0.7466  0.2029
15100TIP3    H166791   3.854   2.168  14.970 -0.4546  0.3003 -1.1700
15100TIP3    H266792   3.766   2.046  14.951 -0.6116 -0.0603  1.5009
15101TIP3   OH266793   0.104   2.055  15.625 -0.2794 -0.2505  0.4258
15101TIP3    H166794   0.015   2.083  15.604 -0.7482 -1.5694  0.5493
15101TIP3    H266795   0.115   2.076  15.718 -0.4989 -0.1640  0.4334
15102TIP3   OH266796   2.977   5.420   2.438 -0.0788 -0.4689 -0.0092
15102TIP3    H166797   2.943   5.437   2.526  0.9358 -1.0419  0.5017
15102TIP3    H266798   3.030   5.497   2.418 -0.1525 -0.4278 -0.0490
15103TIP3   OH266799   1.582   5.509  15.204  0.4275  0.1687  0.0586
15103TIP3    H166800   1.540   5.489  15.120  1.3484  0.5893 -0.5313
15103TIP3    H266801   1.673   5.479  15.192  0.3754 -0.4684  1.1845
15104TIP3   OH266802   1.077   1.970  15.372 -0.4140  0.1195 -0.6794
15104TIP3    H166803   1.019   2.029  15.324 -0.9686 -1.0932 -1.5515
15104TIP3    H266804   1.057   1.884  15.337  0.8559 -0.5105  0.0963
15105TIP3   OH266805   2.450   4.937   5.602 -0.3025 -0.4297  0.1586
15105TIP3    H166806   2.384   4.925   5.670  1.2001  1.7459  2.1920
15105TIP3    H266807   2.517   4.872   5.623  0.0127  0.0280  0.5980
15106TIP3   OH266808   2.869   3.038  14.378  0.0712 -0.1284  0.8418
15106TIP3    H166809   2.785   3.064  14.415 -0.4468 -2.1255  1.1884
15106TIP3    H266810   2.934   3.069  14.441 -0.6065 -0.9016  1.9425
15107TIP3   OH266811   5.908   5.538  17.070 -0.8742  0.3365  0.1490
15107TIP3    H166812   5.956   5.610  17.029 -0.6085  0.0859  0.0235
15107TIP3    H266813   5.833   5.523  17.013 -0.1875 -0.4115 -0.5778
15108TIP3   OH266814   4.703   4.967   1.341 -0.0798  0.4871 -0.5989
15108TIP3    H166815   4.611   4.973   1.316  0.0857  0.5463 -1.2233
15108TIP3    H266816   4.739   4.900   1.283 -0.0656 -0.6518  0.6817
15109TIP3   OH266817   2.702   5.564   1.405 -0.0953  0.4679  0.4721
15109TIP3    H166818   2.725   5.494   1.466 -0.1742 -0.0178 -0.0496
15109TIP3    H266819   2.607   5.554   1.393 -0.1314  0.7613  0.5156
15110TIP3   OH266820   3.011   4.086  13.878 -0.1593  0.8106 -0.0475
15110TIP3    H166821   3.077   4.108  13.813 -0.2909  1.1360 -0.0731
15110TIP3    H266822   3.023   3.993  13.894  0.9157  1.0545  0.6301
15111TIP3   OH266823   1.172   2.906   0.403 -0.0626  0.4661  0.1503
15111TIP3    H166824   1.171   2.816   0.370  0.9253  0.9267 -1.2551
15111TIP3    H266825   1.140   2.958   0.330 -0.2242  1.3024  0.8064
15112TIP3   OH266826   0.714   4.627  11.070 -0.8605 -0.0422 -0.2599
15112TIP3    H166827   0.692   4.560  11.005  2.4549 -2.7380  1.1192
15112TIP3    H266828   0.778   4.683  11.026 -1.6327  0.6828 -0.5161
15113TIP3   OH266829   2.457   2.929  16.305  0.5540  0.2142 -0.4163
15113TIP3    H166830   2.463   2.975  16.388 -1.5577  0.5612 -0.4047
15113TIP3    H266831   2.536   2.955  16.257  0.2879  2.4948  0.2724
15114TIP3   OH266832   5.799   4.974   0.928  0.1140  0.5034 -0.2285
15114TIP3    H166833   5.782   4.945   0.839 -0.3837 -0.1524  0.0703
15114TIP3    H266834   5.788   4.896   0.982 -0.3764  1.0526  0.4962
15115TIP3   OH266835   4.690   2.011   1.613  0.3319  0.2491  0.1753
15115TIP3    H166836   4.716   2.090   1.567  1.3032  0.0799  0.4162
15115TIP3    H266837   4.680   2.038   1.705 -0.9354  0.4388 -0.0038
15116TIP3   OH266838   4.498   4.711   3.760 -0.0002 -0.1868  0.6175
15116TIP3    H166839   4.533   4.632   3.800  0.0935 -0.0748  0.7593
15116TIP3    H266840   4.434   4.744   3.823 -1.1229 -0.9489 -0.0955
15117TIP3   OH266841   3.229   1.118   0.640  0.1798 -0.0864 -0.5301
15117TIP3    H166842   3.191   1.040   0.680 -1.4195  0.6253 -0.6032
15117TIP3    H266843   3.318   1.122   0.676  0.5644 -2.3097 -1.0664
15118TIP3   OH266844   2.044   5.962  10.731 -0.6233 -0.6033  0.5047
15118TIP3    H166845   2.088   5.891  10.684  0.2069  0.0996  0.2131
15118TIP3    H266846   2.102   5.983  10.804 -0.1964  0.6739 -0.1765
15119TIP3   OH266847   1.582   2.021  13.938  0.4035  0.1597 -0.1099
15119TIP3    H166848   1.626   1.950  13.891  0.2946  0.2105 -0.2893
15119TIP3    H266849   1.618   2.101  13.899 -0.4808  0.2074 -0.8653
15120TIP3   OH266850   5.408   0.814   2.251 -0.1794  0.3181  0.4397
15120TIP3    H166851   5.386   0.906   2.268 -1.0740  0.1896  0.0449
15120TIP3    H266852   5.468   0.791   2.321 -0.0828  1.1568  0.6493
15121TIP3   OH266853   3.325   1.955  16.418  0.0545  0.3068 -0.0144
15121TIP3    H166854   3.235   1.928  16.436 -0.3760  1.7890  0.1635
15121TIP3    H266855   3.365   1.878  16.377 -1.0556 -0.6363  0.6103
15122TIP3   OH266856   3.744   3.687  15.616  0.1684 -0.3964  0.6587
15122TIP3    H166857   3.775   3.706  15.527  1.3885 -0.8650  0.9555
15122TIP3    H266858   3.649   3.678  15.607  0.3491 -1.2793 -0.7693
15123TIP3   OH266859   3.017   0.848   5.877  1.1987  0.1184 -0.1842
15123TIP3    H166860   3.111   0.858   5.864  1.4737  1.6133  2.3026
15123TIP3    H266861   2.998   0.903   5.954 -1.1345 -2.6075  1.3626
15124TIP3   OH266862   2.625   3.977  16.724  0.3859  0.2341 -0.4924
15124TIP3    H166863   2.680   3.904  16.700 -0.3719 -0.1562 -1.0869
15124TIP3    H266864   2.686   4.049  16.743  1.1883 -0.7916  1.0355
15125TIP3   OH266865   0.138   5.903   1.017 -0.3196  0.6318 -0.1890
15125TIP3    H166866   0.140   5.903   0.921 -0.3648 -0.4431 -0.1997
15125TIP3    H266867   0.132   5.811   1.041 -1.3212  0.9346  0.8324
15126TIP3   OH266868   4.967   0.295   0.696  0.4467  0.4365 -0.1301
15126TIP3    H166869   5.052   0.334   0.673 -0.0462  1.7807  0.2495
15126TIP3    H266870   4.916   0.367   0.730 -0.9868 -0.2980 -0.6468
15127TIP3   OH266871   4.049   2.418  16.202 -0.0369 -0.2908  0.0426
15127TIP3    H166872   4.128   2.470  16.183  1.4416 -1.9425  1.3793
15127TIP3    H266873   4.081   2.329  16.214 -2.3938 -1.4095 -1.2598
15128TIP3   OH266874   4.257   4.756   6.738 -0.2415 -0.2396 -0.2968
15128TIP3    H166875   4.234   4.688   6.802 -1.9805 -0.2320 -0.8584
15128TIP3    H266876   4.221   4.837   6.775  0.2333  0.0626 -0.4901
15129TIP3   OH266877   2.355   5.314  12.747  0.0998 -0.1380  0.2071
15129TIP3    H166878   2.326   5.367  12.673  0.6547  0.4354  0.3913
15129TIP3    H266879   2.284   5.252  12.761  0.1623 -0.5133 -1.0489
15130TIP3   OH266880   5.138   0.957   0.499 -0.4463  0.1574  0.8429
15130TIP3    H166881   5.106   1.040   0.462 -2.4930 -0.6876  0.6294
15130TIP3    H266882   5.066   0.924   0.551 -0.8242 -2.8537 -1.3143
15131TIP3   OH266883   5.596   5.228   4.429  0.0005  0.2595 -0.4465
15131TIP3    H166884   5.522   5.288   4.443  0.3317  0.9312 -1.4570
15131TIP3    H266885   5.563   5.166   4.364  0.5314  0.9656 -1.4075
15132TIP3   OH266886   3.921   4.685   4.003 -0.0590  0.6020 -0.2885
15132TIP3    H166887   3.898   4.647   4.088 -0.9294 -0.1320 -0.8360
15132TIP3    H266888   3.983   4.754   4.024 -1.2807  1.3320  1.0738
15133TIP3   OH266889   5.353   6.190   2.391  0.2585 -0.6346  0.0468
15133TIP3    H166890   5.351   6.254   2.320 -0.9097 -0.4665  0.2117
15133TIP3    H266891   5.439   6.147   2.383  0.3076 -0.3283 -1.1919
15134TIP3   OH266892   3.595   5.056  13.997  0.0639  0.0978 -1.0000
15134TIP3    H166893   3.530   5.126  13.992 -1.1931 -0.9794 -0.3287
15134TIP3    H266894   3.599   5.021  13.908 -0.1169  0.3073 -1.0907
15135TIP3   OH266895   6.431   1.398  14.263  0.1412 -0.0164  0.6963
15135TIP3    H166896   6.433   1.441  14.178  0.3410 -0.1902  0.6124
15135TIP3    H266897   6.494   1.446  14.317  1.3182 -0.9711  0.2281
15136TIP3   OH266898   0.235   1.241  13.644  0.4185  0.2929  0.3719
15136TIP3    H166899   0.192   1.164  13.682 -1.7223  1.5305  0.5809
15136TIP3    H266900   0.290   1.205  13.575 -1.5596 -1.3696 -0.4497
15137TIP3   OH266901   0.261   1.342  15.090  0.1809 -0.4916  0.0740
15137TIP3    H166902   0.307   1.303  15.016 -0.0846 -0.2431 -0.2220
15137TIP3    H266903   0.175   1.300  15.088  0.0822 -0.2883  0.0818
15138TIP3   OH266904   5.711   5.093  16.243  0.4613 -0.5765  0.0866
15138TIP3    H166905   5.675   5.004  16.239 -0.0895 -0.3244 -1.4710
15138TIP3    H266906   5.638   5.147  16.271 -0.2871 -0.1683 -2.3713
15139TIP3   OH266907   6.025   0.991   1.317 -0.1033  0.8652  0.2265
15139TIP3    H166908   5.989   0.906   1.291  0.8196  0.5836 -0.1564
15139TIP3    H266909   5.949   1.049   1.322 -0.7975 -0.0714  0.8721
15140TIP3   OH266910   3.189   1.056  12.862 -0.0947 -0.0738 -0.1884
15140TIP3    H166911   3.117   0.998  12.836 -0.3970  1.0632 -2.0428
15140TIP3    H266912   3.268   1.015  12.825 -0.0706 -0.2408  0.0497
15141TIP3   OH266913   0.709   5.179   4.216 -0.5762  0.8728  0.2961
15141TIP3    H166914   0.775   5.186   4.285 -2.1951  1.3262  1.8957
15141TIP3    H266915   0.664   5.096   4.236 -0.2392  0.3512 -1.0309
15142TIP3   OH266916   6.404   1.627  11.183  0.9180 -0.7283  0.4187
15142TIP3    H166917   6.319   1.647  11.143  1.6836  0.5556 -0.6481
15142TIP3    H266918   6.406   1.531  11.187 -1.5816 -0.7965  2.7876
15143TIP3   OH266919   2.742   4.568  14.543  0.0318 -0.0029 -0.0790
15143TIP3    H166920   2.691   4.624  14.484  1.7437  0.1683 -1.5015
15143TIP3    H266921   2.831   4.602  14.537  0.2828  0.1188  2.8086
15144TIP3   OH266922   0.209   3.349  16.135  0.1247 -0.4482 -0.1475
15144TIP3    H166923   0.181   3.259  16.115 -1.0648  0.1648 -1.3793
15144TIP3    H266924   0.128   3.395  16.157  0.7548  0.2793  0.7575
15145TIP3   OH266925   2.472   5.481   1.300  0.0581  0.3446  0.3402
15145TIP3    H166926   2.385   5.493   1.340  0.2208  0.8205  0.5487
15145TIP3    H266927   2.456   5.421   1.227 -0.0677 -1.5215  1.7954
15146TIP3   OH266928   0.190   6.078  15.049 -0.4164 -0.5712 -0.0277
15146TIP3    H166929   0.122   6.072  15.117  0.0241  0.5126  0.5295
15146TIP3    H266930   0.261   6.127  15.090  0.6135 -1.4619 -0.6868
15147TIP3   OH266931   6.480   0.343   2.974  0.3602  0.3131 -0.3662
15147TIP3    H166932   6.424   0.421   2.970  1.3858  1.0438 -2.0825
15147TIP3    H266933   6.556   0.366   2.920  0.4941 -2.0480 -1.3147
15148TIP3   OH266934   4.535   2.880  11.450 -0.3010  0.6424 -0.2703
15148TIP3    H166935   4.553   2.786  11.449 -0.4966  0.5732  0.9773
15148TIP3    H266936   4.521   2.902  11.358 -0.2388 -0.5457 -0.5908
15149TIP3   OH266937   4.005   2.266   5.886  0.3152 -0.8033 -0.8953
15149TIP3    H166938   3.962   2.316   5.955 -0.3376 -0.8156 -1.2841
15149TIP3    H266939   3.955   2.185   5.879  2.0368 -2.0641  0.5070
15150TIP3   OH266940   2.570   3.526   1.379 -0.3052  0.3789 -0.4746
15150TIP3    H166941   2.486   3.551   1.420  0.1569  1.7606 -0.2995
15150TIP3    H266942   2.636   3.573   1.430  0.7936 -2.1681  0.6031
15151TIP3   OH266943   0.721   5.450   2.508  0.0559  0.6881  0.1341
15151TIP3    H166944   0.633   5.419   2.528  0.0973  1.0109  0.8419
15151TIP3    H266945   0.748   5.397   2.433 -1.1213  1.2830 -0.7394
15152TIP3   OH266946   0.108   1.774  16.564 -0.0305 -0.2200  0.2839
15152TIP3    H166947   0.132   1.681  16.557  0.8939  0.0406 -0.1530
15152TIP3    H266948   0.070   1.782  16.652  0.9954 -0.7728  0.7939
15153TIP3   OH266949   6.181   4.153  12.817  0.8819  0.0123 -0.8647
15153TIP3    H166950   6.201   4.121  12.905 -1.1777  1.0120  0.0279
15153TIP3    H266951   6.201   4.079  12.759  1.0683 -1.0960  0.5649
15154TIP3   OH266952   4.614   5.096  12.196 -0.4960  0.0824 -0.8108
15154TIP3    H166953   4.689   5.042  12.221  1.2388  2.0856 -1.4169
15154TIP3    H266954   4.596   5.073  12.105 -0.7079 -0.4853 -0.6270
15155TIP3   OH266955   0.809   4.959   2.153 -0.0708  0.0528 -0.2418
15155TIP3    H166956   0.727   5.007   2.143  0.8376  1.6967 -0.2791
15155TIP3    H266957   0.866   4.995   2.085  0.6676 -1.1121 -0.2717
15156TIP3   OH266958   2.477   5.126  16.998  0.8132 -0.5343 -0.1835
15156TIP3    H166959   2.454   5.219  17.002  2.6579  0.0330 -1.2350
15156TIP3    H266960   2.394   5.081  16.987 -0.2682  0.8420  1.7408
15157TIP3   OH266961   4.620   1.753   5.235  0.7398  0.4445 -0.2058
15157TIP3    H166962   4.666   1.766   5.152  0.8327  0.0428 -0.2214
15157TIP3    H266963   4.528   1.741   5.211  0.6361  1.1792 -0.1804
15158TIP3   OH266964   3.083   2.741   4.197 -0.5287  0.2884 -0.0674
15158TIP3    H166965   3.151   2.800   4.229 -1.0052  0.9146 -0.1776
15158TIP3    H266966   3.122   2.697   4.122 -0.0071  0.1148  0.3023
15159TIP3   OH266967   3.848   3.591   1.008  0.1665 -0.5670  0.1253
15159TIP3    H166968   3.885   3.505   1.027  0.2542 -0.1202  2.1981
15159TIP3    H266969   3.789   3.608   1.082  0.8330  1.5408  0.2183
15160TIP3   OH266970   4.561   4.859   2.502  0.1634 -0.6812  0.2319
15160TIP3    H166971   4.610   4.814   2.434 -1.3278 -0.5537 -0.9807
15160TIP3    H266972   4.625   4.916   2.545  1.0864 -0.5647 -1.2479
15161TIP3   OH266973   2.280   5.663  13.629 -0.6896 -0.0187  0.7758
15161TIP3    H166974   2.220   5.668  13.703 -1.7426  0.7298 -0.1055
15161TIP3    H266975   2.345   5.730  13.647  1.3017 -2.2887  2.8671
15162TIP3   OH266976   3.120   4.747  15.477 -0.2336 -0.2749 -0.8688
15162TIP3    H166977   3.036   4.705  15.458 -0.2891 -0.9216  0.6541
15162TIP3    H266978   3.170   4.680  15.525  0.1579  0.9513  0.5115
15163TIP3   OH266979   2.848   6.337   0.180  0.8220 -0.1337  0.0213
15163TIP3    H166980   2.830   6.321   0.088 -0.2030  0.1375  0.1682
15163TIP3    H266981   2.775   6.391   0.210  1.1795 -0.1614  0.9762
15164TIP3   OH266982   6.315   3.531   6.551  0.1378  0.2289  0.3991
15164TIP3    H166983   6.407   3.559   6.550 -0.3984  2.2692  1.6715
15164TIP3    H266984   6.266   3.612   6.542 -1.5679 -0.7710  0.3563
15165TIP3   OH266985   4.082   5.489   2.066  0.3071  0.1033  0.3266
15165TIP3    H166986   4.085   5.585   2.071  1.3938  0.1289 -0.3877
15165TIP3    H266987   4.064   5.460   2.155  0.6061  0.9637  0.6730
15166TIP3   OH266988   5.792   1.011  15.732  0.4399  0.0146  0.5430
15166TIP3    H166989   5.852   0.990  15.661  0.8770  1.2293  0.5148
15166TIP3    H266990   5.709   1.030  15.688 -0.3102 -2.7041  0.6635
15167TIP3   OH266991   2.321   2.689  13.491 -0.1263 -0.0659 -0.0284
15167TIP3    H166992   2.407   2.719  13.464  0.2626 -1.5715 -0.5580
15167TIP3    H266993   2.333   2.597  13.512 -2.0187 -0.9341 -2.2649
15168TIP3   OH266994   2.413   5.073  11.379  0.2245 -0.0206 -0.0423
15168TIP3    H166995   2.319   5.092  11.386  0.3233  0.2923  0.5453
15168TIP3    H266996   2.432   5.019  11.456  0.5480  0.0260 -0.0878
15169TIP3   OH266997   0.642   1.553  11.533  0.5466  1.0354  0.4416
15169TIP3    H166998   0.612   1.601  11.455 -2.5142  4.4103  3.3345
15169TIP3    H266999   0.564   1.506  11.563  1.5381  0.1603  1.7305
15170TIP3   OH267000   1.169   6.445  11.067 -0.2493 -0.5079 -0.0715
15170TIP3    H167001   1.215   6.467  10.986 -0.8492  0.8708 -0.0558
15170TIP3    H267002   1.216   6.492  11.136 -1.2072  0.3242  0.0404
15171TIP3   OH267003   3.838   4.140  13.013 -0.3220 -0.5998 -0.2286
15171TIP3    H167004   3.929   4.151  13.043 -0.2132 -1.7061 -0.1036
15171TIP3    H267005   3.811   4.227  12.986  1.3935 -0.5537 -2.0009
15172TIP3   OH267006   1.227   6.146  12.057 -0.6633  0.1014  0.3001
15172TIP3    H167007   1.220   6.060  12.097 -0.9244  1.3075  3.0558
15172TIP3    H267008   1.175   6.140  11.977 -0.7005 -2.2407  0.4403
15173TIP3   OH267009   1.115   3.340   0.527 -0.0872  0.5024  0.1958
15173TIP3    H167010   1.200   3.320   0.566 -0.7565 -1.4217  0.8130
15173TIP3    H267011   1.133   3.353   0.434  0.8955  0.2627  0.3457
15174TIP3   OH267012   2.931   0.210  14.048 -0.5453 -0.0604  0.0587
15174TIP3    H167013   3.013   0.166  14.025  0.3463  1.2097  0.6995
15174TIP3    H267014   2.876   0.199  13.971 -0.6997 -2.9939  0.4806
15175TIP3   OH267015   3.862   5.147   5.740 -0.1541  0.1827 -0.4463
15175TIP3    H167016   3.915   5.226   5.733 -1.2964  1.1483  1.1319
15175TIP3    H267017   3.874   5.102   5.656  1.2839  1.5263 -0.9967
15176TIP3   OH267018   0.516   2.201  11.048 -0.5954  0.2189 -0.2917
15176TIP3    H167019   0.433   2.163  11.077 -0.4972  0.9000  0.9483
15176TIP3    H267020   0.494   2.248  10.967 -1.2180 -0.3670 -0.4772
15177TIP3   OH267021   3.188   0.029   0.310 -0.0622  0.3318  0.8432
15177TIP3    H167022   3.197  -0.023   0.390 -0.1455  0.3913  0.8920
15177TIP3    H267023   3.266   0.009   0.259  0.2699  0.7311  1.1920
15178TIP3   OH267024   0.593   0.422   0.530  0.3164  0.4714 -0.0721
15178TIP3    H167025   0.499   0.406   0.530  0.2227  0.3987  3.1093
15178TIP3    H267026   0.609   0.472   0.450 -2.5055  0.9626 -0.4304
15179TIP3   OH267027   4.714   5.351   3.359 -0.1563  0.2960  0.1727
15179TIP3    H167028   4.734   5.294   3.285  0.4889 -0.9690  1.2747
15179TIP3    H267029   4.619   5.363   3.355 -0.4608 -1.6964  0.4616
15180TIP3   OH267030   2.249   5.000  10.904 -0.5887  0.5748 -0.0730
15180TIP3    H167031   2.212   4.926  10.952  1.2880 -0.2901  0.1293
15180TIP3    H267032   2.288   5.055  10.972 -1.0460  1.2127 -0.3216
15181TIP3   OH267033   5.706   0.843  16.645 -0.1436 -0.2667  0.6263
15181TIP3    H167034   5.660   0.774  16.692 -0.6277 -0.8744 -0.6711
15181TIP3    H267035   5.766   0.796  16.587  0.2902  0.4450  0.4875
15182TIP3   OH267036   1.053   4.542  12.194 -0.5700 -0.5604 -0.3068
15182TIP3    H167037   1.148   4.533  12.191 -0.1911  1.4991  2.2648
15182TIP3    H267038   1.023   4.462  12.237 -0.0380 -1.2375 -1.1623
15183TIP3   OH267039   2.449   0.780  12.001  0.0121 -0.1138 -0.5346
15183TIP3    H167040   2.537   0.816  12.016 -0.6734  1.6567 -0.5207
15183TIP3    H267041   2.412   0.835  11.932 -0.7085 -1.5565 -1.3492
15184TIP3   OH267042   1.031   2.859   0.842 -0.2179 -0.8952 -0.0258
15184TIP3    H167043   1.117   2.873   0.880  0.7131 -1.4965 -1.8065
15184TIP3    H267044   1.024   2.924   0.772 -1.4122 -0.5452  0.3887
15185TIP3   OH267045   3.005   1.178   5.595  0.3711  0.5570  0.5749
15185TIP3    H167046   3.039   1.248   5.539  1.6740  0.3317  1.0507
15185TIP3    H267047   3.070   1.169   5.664  0.1053 -0.9755  0.6565
15186TIP3   OH267048   5.721   4.222  15.302  0.2923 -0.2897 -0.0844
15186TIP3    H167049   5.769   4.288  15.251 -2.1855  1.1901 -0.6585
15186TIP3    H267050   5.646   4.200  15.248 -2.2801  1.0779  2.6206
15187TIP3   OH267051   0.036   5.841   2.544 -0.5180  0.3049  0.7760
15187TIP3    H167052   0.009   5.917   2.493 -1.1962  0.1399  0.8777
15187TIP3    H267053  -0.046   5.799   2.571 -0.1631 -1.1171 -0.2320
15188TIP3   OH267054   5.331   4.591  16.931  0.7893  0.1463  0.3594
15188TIP3    H167055   5.297   4.578  16.843 -0.9130  1.5902  0.7499
15188TIP3    H267056   5.319   4.507  16.974  0.3256 -0.1722 -0.3760
15189TIP3   OH267057   6.070   0.027   1.243 -0.5699 -0.1029  0.2560
15189TIP3    H167058   6.164   0.027   1.262 -0.2410 -0.4745 -1.2450
15189TIP3    H267059   6.033  -0.030   1.311  0.4169 -0.7184  0.3107
15190TIP3   OH267060   1.302   5.129  13.852  0.6436 -0.5576 -0.2599
15190TIP3    H167061   1.332   5.156  13.939  1.7133 -1.3755 -0.3519
15190TIP3    H267062   1.381   5.131  13.798  0.2196 -1.1936 -0.9172
15191TIP3   OH267063   1.285   0.784   1.623 -0.4068  0.0271 -0.3705
15191TIP3    H167064   1.307   0.694   1.600 -3.3027 -0.7734 -0.3924
15191TIP3    H267065   1.192   0.792   1.604 -0.3968  2.8753  0.2180
15192TIP3   OH267066   3.338   6.679   4.498 -0.1518 -0.4789 -0.0770
15192TIP3    H167067   3.305   6.761   4.462  0.8308  0.8520  1.8580
15192TIP3    H267068   3.284   6.663   4.575  0.2462 -1.1649  0.0725
15193TIP3   OH267069   3.048   0.467   3.829  0.0767  0.3638 -0.0197
15193TIP3    H167070   3.022   0.510   3.911  0.7850 -0.7751  0.8237
15193TIP3    H267071   3.087   0.384   3.856 -0.2936 -0.3541 -1.5583
15194TIP3   OH267072   4.542   6.538  17.032 -0.5368  0.5675  0.5083
15194TIP3    H167073   4.522   6.466  17.091  0.8609 -0.4460 -0.2053
15194TIP3    H267074   4.507   6.511  16.947  0.2212  0.5861  0.1786
15195TIP3   OH267075   1.548   0.503  12.211 -0.0296  0.5509 -0.7191
15195TIP3    H167076   1.460   0.533  12.191 -0.4172 -0.7045 -0.9793
15195TIP3    H267077   1.572   0.447  12.137  0.8587  0.5999 -0.4860
15196TIP3   OH267078   3.961   4.711  16.219 -0.0686 -0.7153 -0.0542
15196TIP3    H167079   3.868   4.703  16.239 -0.0647 -1.3489 -0.2416
15196TIP3    H267080   3.975   4.804  16.203 -0.8735 -0.7340 -0.9786
15197TIP3   OH267081   5.203   4.749   4.749  0.0919 -0.4452  0.8674
15197TIP3    H167082   5.137   4.704   4.802 -0.1351 -0.5381  0.5165
15197TIP3    H267083   5.227   4.826   4.800 -0.9965  0.1036  0.5888
15198TIP3   OH267084   3.069   0.069  13.668 -0.1936  0.5453 -0.5581
15198TIP3    H167085   3.082   0.164  13.657 -0.3722  0.4226 -1.9112
15198TIP3    H267086   3.131   0.029  13.608  0.2218 -0.2307  0.3568
15199TIP3   OH267087   6.074   3.558  14.406 -0.0057  0.1254  0.1242
15199TIP3    H167088   6.011   3.503  14.453  0.7445 -0.6294  0.2940
15199TIP3    H267089   6.158   3.539  14.449  0.6425 -0.3012 -1.2555
15200TIP3   OH267090   3.255   1.495  12.414 -0.4248 -0.5035 -0.1645
15200TIP3    H167091   3.304   1.417  12.440  0.1253 -0.1249 -0.0489
15200TIP3    H267092   3.172   1.461  12.381 -0.3764 -1.1084  0.3192
15201TIP3   OH267093   3.633   0.097  13.600 -0.2915 -0.8830  0.6949
15201TIP3    H167094   3.696   0.097  13.672  3.1064  2.3924 -1.9170
15201TIP3    H267095   3.636   0.007  13.566 -0.1429 -1.8326  3.0022
15202TIP3   OH267096   4.578   5.431  12.241  1.0320 -0.2651  0.0546
15202TIP3    H167097   4.574   5.383  12.158  0.8775  0.5554 -0.4336
15202TIP3    H267098   4.656   5.487  12.232  2.2105 -1.6148  1.2993
15203TIP3   OH267099   3.863   2.900  15.257 -0.5764 -0.0083 -0.1993
15203TIP3    H167100   3.832   2.873  15.343 -1.1208  0.1103 -0.3527
15203TIP3    H267101   3.796   2.869  15.196 -1.1054  1.4455 -0.4035
15204TIP3   OH267102   4.538   3.997   5.503  0.6719 -0.0894  0.6992
15204TIP3    H167103   4.616   4.014   5.451  0.8315 -0.4994  0.8033
15204TIP3    H267104   4.523   4.078   5.552 -0.9296  1.2873 -1.8223
15205TIP3   OH267105   4.636   2.666  17.083 -0.3037 -0.6301  0.4451
15205TIP3    H167106   4.651   2.677  16.989 -0.7731 -2.6751  0.0743
15205TIP3    H267107   4.548   2.701  17.098  0.8789  2.4804  0.7672
15206TIP3   OH267108   5.186   5.675  13.606  0.0528  0.1840  0.0139
15206TIP3    H167109   5.097   5.662  13.639  0.3641 -1.4987  0.2985
15206TIP3    H267110   5.188   5.766  13.579 -1.0624  0.9048  2.1176
15207TIP3   OH267111   2.546   4.370   3.676  0.5136  0.4175 -0.0301
15207TIP3    H167112   2.521   4.419   3.754  0.8915  1.0240 -0.2796
15207TIP3    H267113   2.619   4.315   3.703 -0.4692 -0.6851  0.4748
15208TIP3   OH267114   1.282   1.731  12.244  0.1315  0.1719 -0.7035
15208TIP3    H167115   1.223   1.657  12.227  1.3422 -0.6454 -1.5457
15208TIP3    H267116   1.364   1.690  12.270 -0.0624  1.3118  2.0169
15209TIP3   OH267117   6.702   4.727   1.468  0.0016  0.3988  0.3041
15209TIP3    H167118   6.719   4.734   1.374  0.1533 -1.4083  0.1695
15209TIP3    H267119   6.788   4.734   1.509  0.0199  0.4296  0.2605
15210TIP3   OH267120   3.552   3.703  13.404  0.4680  0.0236 -0.2019
15210TIP3    H167121   3.589   3.633  13.458 -0.6613  0.3978  1.1297
15210TIP3    H267122   3.517   3.657  13.327  0.7799 -0.7202  0.0853
15211TIP3   OH267123   6.445   4.199  15.528 -0.0977  0.4018 -0.5353
15211TIP3    H167124   6.433   4.107  15.504  0.3785 -0.0776  0.9394
15211TIP3    H267125   6.431   4.247  15.446 -1.1973 -0.8985 -1.1544
15212TIP3   OH267126   3.217   0.983   0.004  0.7143  0.4810 -0.3334
15212TIP3    H167127   3.240   0.945   0.088 -0.5986  1.3282  0.4436
15212TIP3    H267128   3.296   1.031  -0.023  0.6871  1.4431  1.1570
15213TIP3   OH267129   4.004   3.777   2.225 -0.2175 -0.2854 -0.2328
15213TIP3    H167130   3.961   3.862   2.230 -1.0823 -0.7999  2.2441
15213TIP3    H267131   3.935   3.714   2.247  0.6660 -1.5575 -0.9704
15214TIP3   OH267132   1.544   0.648   5.710 -0.6603  0.2831  0.1105
15214TIP3    H167133   1.619   0.619   5.762 -0.9855  1.1821  1.1085
15214TIP3    H267134   1.472   0.654   5.772 -1.6868 -0.9190 -0.9026
15215TIP3   OH267135   2.256   6.674  16.306 -0.1997 -0.4121  0.2151
15215TIP3    H167136   2.213   6.591  16.327  0.8470 -0.7605  1.0288
15215TIP3    H267137   2.332   6.649  16.253 -1.0739  0.2178 -1.4018
15216TIP3   OH267138   1.868   5.223   5.171 -0.4430 -0.4068  0.2610
15216TIP3    H167139   1.896   5.314   5.182 -1.3544 -0.0100 -0.5198
15216TIP3    H267140   1.919   5.191   5.096 -1.7504  0.2121 -0.9483
15217TIP3   OH267141   4.317   4.844   3.236  0.0537  0.1707  0.2149
15217TIP3    H167142   4.379   4.917   3.227 -0.5950  0.8427  0.9972
15217TIP3    H267143   4.261   4.870   3.309  0.6107 -1.7131  1.3547
15218TIP3   OH267144   4.407   4.125   6.074 -0.3527  1.0615 -0.0318
15218TIP3    H167145   4.377   4.189   6.139  2.0007  0.0765  2.2192
15218TIP3    H267146   4.443   4.178   6.003 -0.2420  2.2290  0.8554
15219TIP3   OH267147   4.544   2.097  14.569 -0.0250  0.1903  0.1009
15219TIP3    H167148   4.496   2.015  14.556 -1.1550  0.8195  0.2487
15219TIP3    H267149   4.628   2.082  14.525 -0.7562 -0.5557 -1.1099
15220TIP3   OH267150   0.257   6.747  10.528 -0.1335  0.1365 -0.6006
15220TIP3    H167151   0.272   6.818  10.466  0.2731 -0.0984 -0.7698
15220TIP3    H267152   0.319   6.679  10.504 -0.6942 -0.3901 -0.6062
15221TIP3   OH267153   1.960   4.587  13.591 -0.0492 -0.3645 -0.1919
15221TIP3    H167154   1.934   4.575  13.682 -0.2068 -2.0144 -0.4229
15221TIP3    H267155   2.047   4.626  13.596 -0.3380  0.1946  0.6560
15222TIP3   OH267156   5.776   1.905  10.997  0.0208 -0.0340  0.5931
15222TIP3    H167157   5.767   1.999  10.982 -0.7907 -0.3516 -1.1169
15222TIP3    H267158   5.716   1.886  11.070 -0.4586  0.6224  0.3701
15223TIP3   OH267159   4.832   5.905   6.210  0.4833  0.6085  0.1524
15223TIP3    H167160   4.746   5.864   6.222  0.7722  0.1885  0.9229
15223TIP3    H267161   4.827   5.947   6.125 -0.5517  0.7451  0.2614
15224TIP3   OH267162   0.565   5.413   4.086 -0.4188  0.5814  0.4474
15224TIP3    H167163   0.582   5.320   4.101 -2.1451  0.0826 -0.4319
15224TIP3    H267164   0.511   5.416   4.007 -0.3234  2.3484  0.3973
15225TIP3   OH267165   4.753   5.000  13.768 -0.1009  0.1683  0.0401
15225TIP3    H167166   4.725   5.024  13.856 -1.5896  0.7841 -0.5585
15225TIP3    H267167   4.782   4.909  13.776  2.4502  1.0236  1.6895
15226TIP3   OH267168   4.981   3.716  12.293 -0.0420 -0.1626  0.3487
15226TIP3    H167169   4.995   3.625  12.270 -1.2154  0.2654 -2.3716
15226TIP3    H267170   5.065   3.759  12.275  0.4357 -0.6102  1.3993
15227TIP3   OH267171   5.178   1.152  14.145 -0.1533  0.0720  0.3183
15227TIP3    H167172   5.132   1.143  14.228  0.5775 -2.1112  0.5445
15227TIP3    H267173   5.269   1.169  14.169  0.2414 -1.4677  0.0421
15228TIP3   OH267174   5.499   4.552  16.645 -0.5559  0.3648 -0.1550
15228TIP3    H167175   5.406   4.531  16.651 -0.8399  1.4719 -0.5947
15228TIP3    H267176   5.505   4.621  16.580  0.8174 -1.1191 -1.7197
15229TIP3   OH267177   6.148   1.690  11.082 -0.4995  0.1972 -0.2283
15229TIP3    H167178   6.111   1.638  11.010 -0.3976 -0.0816 -0.0820
15229TIP3    H267179   6.163   1.776  11.044 -2.0238  0.5506 -0.0844
15230TIP3   OH267180   3.222   0.273   3.953 -0.1285  0.2578 -0.0539
15230TIP3    H167181   3.272   0.192   3.945  0.3916  0.5433  0.2481
15230TIP3    H267182   3.288   0.343   3.944 -0.5569  0.6464 -0.2202
15231TIP3   OH267183   0.947   0.590   5.665  0.2939 -0.6026  0.3794
15231TIP3    H167184   0.863   0.608   5.706 -0.5865 -1.1705 -1.1123
15231TIP3    H267185   0.944   0.638   5.582  1.1873 -1.1400  0.0244
15232TIP3   OH267186   1.322   0.739  12.650  0.3736  0.1853 -1.3006
15232TIP3    H167187   1.322   0.823  12.605 -2.2246  0.6752 -0.5545
15232TIP3    H267188   1.378   0.754  12.727  0.2901  1.0954 -1.3992
15233TIP3   OH267189   5.014   0.227  16.436 -0.0472  0.1252  0.9417
15233TIP3    H167190   5.028   0.140  16.475 -1.8011 -0.2568  0.8482
15233TIP3    H267191   5.032   0.214  16.343  0.3418  0.0275  1.0291
15234TIP3   OH267192   3.921   4.849  17.049  0.4065 -0.4113  0.0198
15234TIP3    H167193   3.938   4.876  16.959  0.8459  0.6379  0.3948
15234TIP3    H267194   3.948   4.924  17.102  3.5759 -2.2706  1.3167
15235TIP3   OH267195   5.891   2.496   4.500 -0.0494 -0.3413 -0.2245
15235TIP3    H167196   5.914   2.405   4.479 -0.5287 -0.7483  0.9647
15235TIP3    H267197   5.970   2.531   4.541 -0.3569 -0.6934  0.6964
15236TIP3   OH267198   0.358   2.527  10.939  0.0426  0.2723 -0.3748
15236TIP3    H167199   0.342   2.464  11.010  2.3359  1.8071  1.6820
15236TIP3    H267200   0.410   2.478  10.875  1.3439 -0.1548  0.9435
15237TIP3   OH267201   0.838   2.212   1.979 -0.1208  0.2455 -0.2471
15237TIP3    H167202   0.856   2.119   1.989 -3.0563 -0.6335 -1.9404
15237TIP3    H267203   0.885   2.253   2.052  0.7806 -2.5968  0.9202
15238TIP3   OH267204   1.565   4.219  12.362  0.0698 -0.3874  0.4270
15238TIP3    H167205   1.550   4.190  12.273  0.1585 -1.7595  0.8408
15238TIP3    H267206   1.660   4.234  12.367  0.1678 -1.0007  0.4808
15239TIP3   OH267207   2.456   2.656   3.998  0.7178  0.0207 -0.4358
15239TIP3    H167208   2.547   2.632   3.984  0.7524 -0.7052  0.8318
15239TIP3    H267209   2.406   2.578   3.975  0.4713  0.1909 -0.4857
15240TIP3   OH267210   2.910   1.269   4.162  0.4679 -0.0509 -0.4048
15240TIP3    H167211   2.833   1.221   4.192  1.4748 -0.9512  0.9018
15240TIP3    H267212   2.889   1.296   4.073 -0.5626 -2.0533 -0.8265
15241TIP3   OH267213   3.459   0.231   2.853 -0.0137  0.6952  0.3133
15241TIP3    H167214   3.469   0.175   2.776 -0.6722  0.8062  0.1418
15241TIP3    H267215   3.547   0.268   2.867  0.9794 -1.9006  1.6324
15242TIP3   OH267216   6.439   4.927  11.047 -0.0023  0.1405 -0.0995
15242TIP3    H167217   6.364   4.969  11.090  0.1587 -0.2653  0.5855
15242TIP3    H267218   6.455   4.849  11.098 -0.2706 -0.7600 -1.3432
15243TIP3   OH267219   4.969   4.088   0.538 -0.0664  0.5060 -0.3151
15243TIP3    H167220   4.881   4.090   0.574  0.3640 -0.9139  0.9191
15243TIP3    H267221   4.958   4.110   0.445 -1.6678  0.5714 -0.1305
15244TIP3   OH267222   1.080   6.090   0.513 -0.0344 -0.0234  0.0812
15244TIP3    H167223   1.062   6.088   0.419  3.0988  1.4105 -0.6657
15244TIP3    H267224   1.058   6.179   0.539 -1.9356 -0.7154  1.0424
15245TIP3   OH267225   3.690   2.033  17.052 -0.6429  0.2873  0.2729
15245TIP3    H167226   3.734   2.089  17.116 -0.0689 -0.4700  0.5540
15245TIP3    H267227   3.601   2.022  17.087 -0.1506 -0.6294  1.2803
15246TIP3   OH267228   5.820   6.646  13.865 -0.0583 -0.0764  0.1969
15246TIP3    H167229   5.765   6.708  13.817  0.6756 -0.8834 -1.7721
15246TIP3    H267230   5.910   6.671  13.842  0.2838 -1.0085  0.4876
15247TIP3   OH267231   3.013   2.644   2.170 -0.4379  0.1418  0.0428
15247TIP3    H167232   3.103   2.612   2.181 -0.2087  1.2678  2.1111
15247TIP3    H267233   2.991   2.625   2.079  1.5886 -0.9207 -0.2845
15248TIP3   OH267234   4.968   6.664  10.741 -0.3595 -0.1119  0.4778
15248TIP3    H167235   5.060   6.643  10.721 -0.1661  0.2068  1.0133
15248TIP3    H267236   4.970   6.757  10.766 -0.8474 -0.0762  0.3817
15249TIP3   OH267237   5.856   0.064  14.078  0.2541  0.1187  0.1591
15249TIP3    H167238   5.912   0.111  14.139  3.1102 -1.3178 -1.1690
15249TIP3    H267239   5.852   0.120  14.001 -0.7809  0.5448  0.5135
15250TIP3   OH267240   5.711   3.812  16.005  0.2472 -0.3422 -0.0356
15250TIP3    H167241   5.626   3.777  15.979  0.8947 -1.8481 -0.2158
15250TIP3    H267242   5.690   3.876  16.073 -1.2715  1.7568 -2.3264
15251TIP3   OH267243   6.559   3.148   0.217 -0.6566  0.6501 -0.0911
15251TIP3    H167244   6.499   3.221   0.232 -1.3689  0.0332  0.1329
15251TIP3    H267245   6.640   3.189   0.187 -1.7223  1.4159 -2.0837
15252TIP3   OH267246   4.165   0.793   6.482 -0.1348  0.1710  0.1083
15252TIP3    H167247   4.242   0.834   6.443  0.3805  0.6186  1.5325
15252TIP3    H267248   4.169   0.702   6.452  0.7119  0.2990 -0.1908
15253TIP3   OH267249   5.108   0.229   5.016 -0.3748  0.2479  0.7883
15253TIP3    H167250   5.104   0.153   4.958 -1.5005  1.6388 -1.0890
15253TIP3    H267251   5.065   0.201   5.097  0.0731 -1.3648  0.5080
15254TIP3   OH267252   1.944   5.079   2.559 -0.1565  0.1842 -0.5664
15254TIP3    H167253   1.975   5.045   2.475 -1.4477 -0.7457 -0.6798
15254TIP3    H267254   2.024   5.090   2.610  0.7794  1.7142 -2.2182
15255TIP3   OH267255   1.345   0.164   4.610  0.2066  0.2709 -0.2751
15255TIP3    H167256   1.261   0.211   4.606 -0.1050  0.1037  2.3455
15255TIP3    H267257   1.400   0.219   4.666  1.3472 -0.3535 -0.7609
15256TIP3   OH267258   0.226   5.095  14.157 -0.2845  0.1539  0.1086
15256TIP3    H167259   0.157   5.155  14.130 -0.2569  0.9652  1.7150
15256TIP3    H267260   0.285   5.090  14.082 -0.0693  2.4759  0.0663
15257TIP3   OH267261   5.744   6.691  16.437 -0.3417 -0.6274  0.6784
15257TIP3    H167262   5.795   6.626  16.486 -0.5597 -2.3737 -1.2583
15257TIP3    H267263   5.782   6.689  16.349 -1.2138  0.9659  0.2271
15258TIP3   OH267264   4.049   6.303   1.229  0.2533  0.2390 -0.4107
15258TIP3    H167265   3.980   6.236   1.218  0.1372  0.2743  0.0721
15258TIP3    H267266   4.107   6.266   1.296  0.8095  0.1281 -0.9541
15259TIP3   OH267267   3.456   3.387  13.429  0.3464  0.0194 -0.4848
15259TIP3    H167268   3.483   3.300  13.457  0.4136 -0.1972 -1.1959
15259TIP3    H267269   3.403   3.421  13.501  0.5519 -0.4943 -0.0881
15260TIP3   OH267270   5.688   1.105  11.461  0.1708 -0.2098 -0.4386
15260TIP3    H167271   5.664   1.185  11.509  0.9205 -0.2928  0.0971
15260TIP3    H267272   5.625   1.100  11.390  0.0702  0.8396 -0.4460
15261TIP3   OH267273   5.127   2.650  11.225 -0.3919 -0.1288 -0.0586
15261TIP3    H167274   5.047   2.614  11.186 -1.4467  2.5914 -0.5823
15261TIP3    H267275   5.097   2.726  11.275  1.9882  1.8227 -1.4222
15262TIP3   OH267276   5.709   4.681   2.526 -0.4133 -0.3535  0.3046
15262TIP3    H167277   5.728   4.753   2.586 -0.1952  0.7421 -1.0308
15262TIP3    H267278   5.790   4.631   2.522  0.8011  1.6292 -1.7864
15263TIP3   OH267279   1.993   6.669   6.276 -0.6135  0.4500  0.5339
15263TIP3    H167280   2.000   6.597   6.213 -1.9126  1.0037 -0.2663
15263TIP3    H267281   2.078   6.669   6.320  0.3075 -0.0045 -1.1469
15264TIP3   OH267282   4.909   3.858   3.933 -0.1555 -0.1194  0.0027
15264TIP3    H167283   4.910   3.820   3.846 -1.4902 -1.6308  0.6118
15264TIP3    H267284   4.993   3.904   3.939  0.4552 -0.9228 -1.6574
15265TIP3   OH267285   4.995   0.234  14.710 -0.3469  0.0263  0.1435
15265TIP3    H167286   4.957   0.146  14.713 -0.4712  0.0344 -0.8641
15265TIP3    H267287   4.932   0.286  14.661  0.2407  0.4102 -0.2195
15266TIP3   OH267288   6.102   2.078   4.932  1.1124 -0.2289 -0.3936
15266TIP3    H167289   6.073   2.091   4.842 -0.3708  1.4368  0.2685
15266TIP3    H267290   6.082   1.986   4.951  0.3701 -0.2803 -1.3778
15267TIP3   OH267291   0.196   5.536   6.085  0.2552  0.1529 -0.4620
15267TIP3    H167292   0.141   5.498   6.153 -1.9169  1.7935 -1.2042
15267TIP3    H267293   0.185   5.631   6.096  0.8295  0.4767 -2.3197
15268TIP3   OH267294   4.053   3.806   1.129 -0.1545 -0.2666  0.0904
15268TIP3    H167295   4.032   3.835   1.218 -1.7686  3.2052 -1.2216
15268TIP3    H267296   3.977   3.756   1.102 -1.6921  2.2973 -0.6529
15269TIP3   OH267297   5.379   4.561  14.164  0.0687  0.8010 -0.1609
15269TIP3    H167298   5.358   4.639  14.113 -0.0159  0.6979 -0.2850
15269TIP3    H267299   5.332   4.490  14.120 -0.5736  0.8241  0.4745
15270TIP3   OH267300   6.203   1.302   0.813 -0.2156  1.0784  0.2284
15270TIP3    H167301   6.128   1.248   0.786 -1.1628  2.5029 -0.0569
15270TIP3    H267302   6.255   1.310   0.733 -1.5291  2.8755 -0.5148
15271TIP3   OH267303   1.899   6.423   4.279 -0.1923 -0.1316 -0.1991
15271TIP3    H167304   1.814   6.404   4.238 -1.2823  3.3976  0.1319
15271TIP3    H267305   1.881   6.424   4.373 -0.5925  3.2536 -0.1843
15272TIP3   OH267306   3.685   1.457  14.037 -0.3687  0.0684  0.3081
15272TIP3    H167307   3.769   1.468  14.082 -0.4097  0.8472  0.2020
15272TIP3    H267308   3.683   1.527  13.972 -0.4264 -0.8635 -0.7383
15273TIP3   OH267309   3.815   0.375   1.860 -0.2908 -0.3203  0.1391
15273TIP3    H167310   3.763   0.295   1.855  1.0801 -1.1922 -1.1999
15273TIP3    H267311   3.810   0.402   1.952 -0.8906 -1.8743  0.5888
15274TIP3   OH267312   0.432   4.649  12.681  0.2372  0.4350 -1.5666
15274TIP3    H167313   0.359   4.627  12.738  1.7079 -0.2624  0.1467
15274TIP3    H267314   0.418   4.741  12.658  0.1055  1.0697  0.7815
15275TIP3   OH267315   6.358   3.072   3.005  0.1315 -0.4705 -0.1103
15275TIP3    H167316   6.297   3.069   3.079  0.4973  0.0072  0.2189
15275TIP3    H267317   6.412   3.149   3.022 -0.6147  0.4095 -1.5454
15276TIP3   OH267318   4.747   3.985   0.771  0.1728 -0.6306 -0.3359
15276TIP3    H167319   4.793   3.919   0.822 -0.0140  0.7333  1.7040
15276TIP3    H267320   4.693   4.032   0.835  0.5989  1.7411 -1.6062
15277TIP3   OH267321   1.158   3.293  12.591  0.1616 -0.5075 -0.1907
15277TIP3    H167322   1.177   3.206  12.555 -0.4247 -0.5243 -0.4766
15277TIP3    H267323   1.224   3.306  12.659 -0.0174 -1.3623  0.1536
15278TIP3   OH267324   4.547   1.776  12.919 -0.7018  0.0939 -0.1795
15278TIP3    H167325   4.604   1.837  12.872 -2.0660  1.3706 -0.2478
15278TIP3    H267326   4.483   1.832  12.963 -1.5840 -1.2658  0.3280
15279TIP3   OH267327   1.445   4.674  16.796 -0.6967 -0.1052 -0.1169
15279TIP3    H167328   1.389   4.720  16.858 -1.9475  0.8523 -1.8943
15279TIP3    H267329   1.395   4.597  16.770 -0.7712  0.2288 -0.9734
15280TIP3   OH267330   6.701   0.371  12.290  0.1054 -0.5834  0.1370
15280TIP3    H167331   6.682   0.430  12.364 -0.8867  0.6073 -1.0158
15280TIP3    H267332   6.767   0.417  12.239  0.1020 -0.9716 -0.2207
15281TIP3   OH267333   0.497   2.714   1.663  0.0179 -0.1105  0.3895
15281TIP3    H167334   0.469   2.630   1.701 -0.3728  0.6595  1.8638
15281TIP3    H267335   0.591   2.718   1.682  0.3393 -0.8184 -0.9182
15282TIP3   OH267336   5.876   0.724  16.346  0.5219 -0.0589 -0.2836
15282TIP3    H167337   5.898   0.631  16.358  0.1648 -0.0564  0.4485
15282TIP3    H267338   5.960   0.767  16.331  0.6947 -0.4892 -0.5979
15283TIP3   OH267339   5.787   2.124  13.497 -0.2783 -0.1188  0.2596
15283TIP3    H167340   5.822   2.150  13.411 -0.5167  0.8398  0.4398
15283TIP3    H267341   5.772   2.030  13.489  0.1029 -0.1199 -0.6083
15284TIP3   OH267342   4.928   0.688   0.261 -0.6878 -0.0005  0.0689
15284TIP3    H167343   4.976   0.720   0.184 -0.1764  0.1571  0.4505
15284TIP3    H267344   4.991   0.634   0.308 -0.2892  1.6940  1.5508
15285TIP3   OH267345   6.182   6.814   6.514 -0.0712 -0.0590 -0.1680
15285TIP3    H167346   6.249   6.869   6.554  2.0980 -1.9250 -1.0123
15285TIP3    H267347   6.188   6.834   6.420 -1.8995  0.9246 -0.1237
15286TIP3   OH267348   3.250   2.361   4.057  0.3036  0.6769 -0.5113
15286TIP3    H167349   3.183   2.305   4.096  1.5765  0.3811  1.3609
15286TIP3    H267350   3.200   2.428   4.010 -1.2492 -1.0855 -1.4772
15287TIP3   OH267351   2.245   5.175   4.439  0.0114  0.2561 -0.7827
15287TIP3    H167352   2.243   5.252   4.382  0.1870  0.1945 -0.8728
15287TIP3    H267353   2.266   5.102   4.380  1.6981  0.4031 -0.4138
15288TIP3   OH267354   3.151   6.430   1.864  0.3245  0.2636 -0.5949
15288TIP3    H167355   3.240   6.429   1.830  1.1586 -0.9716  1.4773
15288TIP3    H267356   3.161   6.432   1.959 -1.8651 -0.1120 -0.2960
15289TIP3   OH267357   6.683   5.374  12.977 -0.7023  0.0665  0.0902
15289TIP3    H167358   6.774   5.404  12.975 -0.4436 -0.6493  0.7333
15289TIP3    H267359   6.638   5.437  13.033 -1.6210  3.0331 -3.5940
15290TIP3   OH267360   6.508   6.345   2.123  1.2678 -0.2931  0.0996
15290TIP3    H167361   6.516   6.288   2.200  0.3885 -0.2069  0.2660
15290TIP3    H267362   6.484   6.430   2.159  1.8274  0.0021 -0.2064
15291TIP3   OH267363   4.462   0.539   5.538  0.1556 -0.4309 -0.5580
15291TIP3    H167364   4.464   0.461   5.594  2.0555 -1.4384 -1.8836
15291TIP3    H267365   4.370   0.563   5.533 -0.3792 -2.0239  0.6681
15292TIP3   OH267366   3.742   6.619  13.007  0.0480  0.0535 -0.1354
15292TIP3    H167367   3.694   6.701  13.018 -1.1815 -0.7261  0.6418
15292TIP3    H267368   3.726   6.572  13.089 -0.8822 -1.7593 -1.2992
15293TIP3   OH267369   6.742   3.816  13.696  0.2653 -0.1211  0.1861
15293TIP3    H167370   6.834   3.830  13.721  0.2170  0.3125  0.1150
15293TIP3    H267371   6.740   3.833  13.602  0.0101  0.3505  0.2769
15294TIP3   OH267372   4.285   4.994  11.948 -0.5784 -0.1533 -0.0971
15294TIP3    H167373   4.275   4.986  11.853 -0.7975  1.8852 -0.2837
15294TIP3    H267374   4.359   4.937  11.970 -0.6332 -0.7744 -1.4545
15295TIP3   OH267375   1.787   3.737   6.092 -0.8023 -0.0491  0.2891
15295TIP3    H167376   1.812   3.820   6.133  0.6986 -1.1159  1.6566
15295TIP3    H267377   1.784   3.756   5.998 -1.0357  1.6599  0.6181
15296TIP3   OH267378   3.456   1.218  14.922  0.0670 -0.0585  0.3391
15296TIP3    H167379   3.537   1.186  14.964 -0.3615 -0.5749  0.7845
15296TIP3    H267380   3.414   1.138  14.889  0.4412  0.3289 -1.1965
15297TIP3   OH267381   6.750   1.665  11.489  0.0138 -0.0750 -0.1972
15297TIP3    H167382   6.697   1.591  11.519 -1.1354  1.5333  2.0292
15297TIP3    H267383   6.840   1.641  11.511 -0.5099 -0.1897  2.0631
15298TIP3   OH267384   6.195   5.243   4.685 -0.1881 -0.1654  0.4489
15298TIP3    H167385   6.139   5.170   4.655 -0.5451  0.1620  0.3164
15298TIP3    H267386   6.271   5.240   4.626 -0.5160 -0.0181  0.0181
15299TIP3   OH267387   1.379   5.026   3.784 -0.0897  0.1659 -0.0212
15299TIP3    H167388   1.310   5.083   3.818 -0.3320  1.1418 -1.9870
15299TIP3    H267389   1.332   4.956   3.739  0.2205 -0.9222  1.2941
15300TIP3   OH267390   1.710   2.054   2.471  0.0212 -0.6417  0.1287
15300TIP3    H167391   1.769   2.109   2.420 -0.7614  0.2315  0.1600
15300TIP3    H267392   1.754   1.969   2.474  1.3858  0.0447  0.3317
15301TIP3   OH267393   5.030   6.602  15.398 -0.0765 -0.2615  0.5396
15301TIP3    H167394   5.056   6.659  15.326 -0.8369 -0.1216  0.3699
15301TIP3    H267395   4.949   6.640  15.432 -0.3081 -0.9310  0.7701
15302TIP3   OH267396   1.997   2.897   3.835  0.2493  0.0980 -0.4328
15302TIP3    H167397   1.902   2.909   3.837  0.1810 -0.2506 -1.2044
15302TIP3    H267398   2.030   2.975   3.790  0.4696  0.9108  1.0759
15303TIP3   OH267399   1.031   4.564  13.273 -0.2338 -0.1018 -0.5270
15303TIP3    H167400   1.003   4.576  13.363  0.8463 -0.9157 -0.0588
15303TIP3    H267401   0.974   4.494  13.240  0.9213 -1.4826  0.2986
15304TIP3   OH267402   3.388   5.983  16.989 -0.4630 -0.3348 -0.9463
15304TIP3    H167403   3.314   5.952  17.041 -0.9849 -0.1664 -1.5793
15304TIP3    H267404   3.464   5.937  17.026 -0.7957 -0.0921  0.0604
15305TIP3   OH267405   6.524   6.550  13.854 -0.1069  0.3472  0.2214
15305TIP3    H167406   6.550   6.591  13.936  0.4405 -1.1630  0.8350
15305TIP3    H267407   6.445   6.500  13.876 -1.8343  2.3834 -0.9154
15306TIP3   OH267408   3.065   0.091  14.504 -0.2206  0.1736 -0.0391
15306TIP3    H167409   2.985   0.046  14.531 -0.9862  1.0186 -0.8159
15306TIP3    H267410   3.048   0.184  14.522  0.0154  0.5245 -1.4798
15307TIP3   OH267411   5.447   5.322   3.672 -0.3566  0.7232  0.6981
15307TIP3    H167412   5.408   5.246   3.716  0.8231  0.1408  0.8112
15307TIP3    H267413   5.455   5.295   3.581 -1.1976  1.2566  0.4602
15308TIP3   OH267414   4.292   5.695   6.245  0.0513 -0.1124  0.5415
15308TIP3    H167415   4.255   5.608   6.229 -0.9100  0.4707 -0.5286
15308TIP3    H267416   4.237   5.733   6.314 -0.1162 -0.0009  0.3475
15309TIP3   OH267417   0.004   2.444  14.664  0.4053 -0.2119  0.5363
15309TIP3    H167418   0.036   2.455  14.575  0.0446  3.3589  0.7079
15309TIP3    H267419   0.081   2.414  14.713  0.6666 -1.9757 -0.8490
15310TIP3   OH267420   5.407   3.394   6.415 -0.2687 -0.2908  0.0366
15310TIP3    H167421   5.442   3.353   6.494 -0.5237 -0.6019 -0.0140
15310TIP3    H267422   5.416   3.488   6.432  0.0901 -0.3598  0.2498
15311TIP3   OH267423   1.113   0.981   4.710  0.3042 -0.6537  0.3694
15311TIP3    H167424   1.024   0.945   4.712  0.3495 -0.7682  1.8925
15311TIP3    H267425   1.147   0.963   4.798  2.0655 -1.1849 -0.3878
15312TIP3   OH267426   0.376   0.190  15.073 -0.3133 -0.2069 -0.0801
15312TIP3    H167427   0.360   0.270  15.022 -0.3102  0.2947  0.6980
15312TIP3    H267428   0.303   0.132  15.049 -0.3406  0.0380 -0.6150
15313TIP3   OH267429   0.827   3.014   1.181 -0.1709 -0.0204  0.3941
15313TIP3    H167430   0.812   3.062   1.262 -1.4313 -0.8564  0.6871
15313TIP3    H267431   0.922   3.011   1.171  0.0635 -0.8556  2.4277
15314TIP3   OH267432   6.844   1.313  11.451  0.5747  0.1458 -0.1500
15314TIP3    H167433   6.851   1.339  11.543  1.4124 -3.5476  1.0319
15314TIP3    H267434   6.924   1.347  11.410  1.6569 -0.5922  1.2607
15315TIP3   OH267435   0.833   5.936   1.488 -0.0490 -0.1005  0.0229
15315TIP3    H167436   0.821   6.025   1.452  0.8341 -0.5432 -1.4841
15315TIP3    H267437   0.758   5.887   1.455 -0.2735 -0.0436  0.4419
15316TIP3   OH267438   2.508   6.274  16.009  0.5389 -0.0258  0.0062
15316TIP3    H167439   2.516   6.182  16.034 -1.4165  0.0582  1.0975
15316TIP3    H267440   2.520   6.274  15.914  0.5733 -1.3946 -0.0047
15317TIP3   OH267441   1.043   1.573   1.212  0.7922 -0.1995 -0.2522
15317TIP3    H167442   1.035   1.505   1.146  0.4914  0.2545 -0.6929
15317TIP3    H267443   1.085   1.646   1.167 -2.3645  1.3773 -0.9569
15318TIP3   OH267444   6.173   6.241  13.236 -0.3312 -0.0567  0.5428
15318TIP3    H167445   6.215   6.217  13.319 -1.3542  1.6882  1.6575
15318TIP3    H267446   6.111   6.171  13.219 -0.7657  0.0032  1.7755
15319TIP3   OH267447   4.298   4.976  13.809  0.2366 -0.0432 -0.6982
15319TIP3    H167448   4.363   4.957  13.876 -0.7496  0.1255  0.3425
15319TIP3    H267449   4.323   4.921  13.734  1.8868  0.4470 -0.5452
15320TIP3   OH267450   5.598   3.747  13.983  0.3460  0.2434 -0.5776
15320TIP3    H167451   5.532   3.684  14.012  0.6110  0.9232  1.6957
15320TIP3    H267452   5.548   3.813  13.934 -0.2247 -0.6367 -1.2134
15321TIP3   OH267453   3.426   1.268  15.803 -0.2492 -0.2473 -0.1011
15321TIP3    H167454   3.374   1.241  15.727 -0.2803  0.6739 -0.4191
15321TIP3    H267455   3.425   1.192  15.861  1.1521 -1.5992 -1.7257
15322TIP3   OH267456   0.620   1.704   4.586 -0.2043  0.2170  0.3973
15322TIP3    H167457   0.551   1.730   4.646  1.0620 -1.0731  2.5247
15322TIP3    H267458   0.698   1.693   4.641  0.9212 -1.4630 -1.3805
15323TIP3   OH267459   6.035   1.721  16.959  0.1557  0.1870  0.4690
15323TIP3    H167460   5.963   1.747  16.903 -0.5451 -2.0388  0.2499
15323TIP3    H267461   6.097   1.794  16.955 -1.3208  1.4227 -0.6365
15324TIP3   OH267462   1.664   4.388  10.886 -0.0316 -0.0288 -0.1290
15324TIP3    H167463   1.733   4.443  10.924 -3.1041  2.8351  1.8377
15324TIP3    H267464   1.608   4.450  10.839 -2.4941 -1.8201  0.2730
15325TIP3   OH267465   4.448   4.214  15.824 -0.1946  0.0744 -0.7761
15325TIP3    H167466   4.461   4.258  15.740 -0.5918 -1.0971 -1.4780
15325TIP3    H267467   4.514   4.144  15.825  1.3486  1.4577  0.9240
15326TIP3   OH267468   6.411   3.292  11.604 -0.4098 -0.4883  0.4141
15326TIP3    H167469   6.392   3.266  11.694  1.2296  0.2099  1.0163
15326TIP3    H267470   6.370   3.378  11.595  0.8068  0.2028  1.1008
15327TIP3   OH267471   5.825   6.801  14.411 -0.4920 -0.7878 -0.3241
15327TIP3    H167472   5.740   6.797  14.366  0.3206 -2.1236 -1.8563
15327TIP3    H267473   5.847   6.710  14.429  0.0101 -0.3636  1.3152
15328TIP3   OH267474   3.589   5.124   0.043  0.7367  0.2716 -0.2586
15328TIP3    H167475   3.640   5.126  -0.039 -2.0402  3.2405 -2.1802
15328TIP3    H267476   3.623   5.199   0.093  0.7863 -0.0686  0.2200
15329TIP3   OH267477   3.429   4.031   1.131 -0.0452  0.0487 -0.0552
15329TIP3    H167478   3.431   3.984   1.214 -2.5661  0.7341  0.4917
15329TIP3    H267479   3.519   4.061   1.118  0.7567 -1.4696  1.5786
15330TIP3   OH267480   5.831   5.824   5.040  0.0817 -0.5744  0.2136
15330TIP3    H167481   5.845   5.755   4.975  1.5578  1.2256 -1.5031
15330TIP3    H267482   5.902   5.886   5.025 -0.4513  0.7204  2.5407
15331TIP3   OH267483   5.157   2.301   6.788 -0.4110 -0.3121  0.7231
15331TIP3    H167484   5.200   2.376   6.830 -1.9134 -0.0105  1.8105
15331TIP3    H267485   5.228   2.240   6.769  0.6774  0.8110  1.0274
15332TIP3   OH267486   1.942   5.096   0.780  0.5677 -0.0516  0.1426
15332TIP3    H167487   1.949   5.121   0.688  0.3923  0.8018  0.3420
15332TIP3    H267488   1.847   5.092   0.796  0.5924 -1.0121  0.0854
15333TIP3   OH267489   3.889   1.064   4.915 -0.4197  0.3192  0.3189
15333TIP3    H167490   3.869   1.125   4.986 -1.1778  0.5206 -0.0587
15333TIP3    H267491   3.825   1.085   4.847  0.5073  0.3611 -0.5634
15334TIP3   OH267492   0.887   1.751   3.647  0.4704 -0.5836 -0.2047
15334TIP3    H167493   0.889   1.678   3.585 -0.5062 -1.3792  0.6599
15334TIP3    H267494   0.918   1.713   3.729 -1.6121 -0.5019  0.6857
15335TIP3   OH267495   5.644   5.564  16.575 -0.3318  0.4622 -0.7988
15335TIP3    H167496   5.640   5.569  16.670 -0.7996  1.4997 -0.8540
15335TIP3    H267497   5.733   5.590  16.553 -0.7904  2.2098 -0.7196
15336TIP3   OH267498   0.327   2.323  13.484 -0.9619  0.0334 -0.8188
15336TIP3    H167499   0.243   2.289  13.513 -1.3524  0.3983 -1.4815
15336TIP3    H267500   0.315   2.342  13.391 -0.7016  1.7326 -0.5547
15337TIP3   OH267501   2.662   3.174   2.859  0.0900  0.5504  0.5742
15337TIP3    H167502   2.650   3.247   2.919 -1.6974  0.6137  0.2186
15337TIP3    H267503   2.753   3.148   2.870  0.2245  1.5482  2.1626
15338TIP3   OH267504   0.025   3.022   5.954 -0.1580 -0.2715 -0.4410
15338TIP3    H167505   0.063   3.005   5.868 -0.7455  0.3331 -0.8302
15338TIP3    H267506   0.084   3.085   5.995  1.7396 -2.6641  0.7962
15339TIP3   OH267507   1.214   4.907   5.684 -0.1981 -0.0677 -0.4902
15339TIP3    H167508   1.127   4.930   5.717  0.4745  1.1776  0.4641
15339TIP3    H267509   1.271   4.979   5.710  1.2848 -1.1783 -0.4832
15340TIP3   OH267510   4.850   6.611   3.774 -0.3275  0.2684  1.0068
15340TIP3    H167511   4.888   6.680   3.829  0.0229  0.0913  0.9893
15340TIP3    H267512   4.825   6.655   3.693  0.1499  0.3229  0.8868
15341TIP3   OH267513   0.568   0.208  10.544  0.1866  0.2204 -0.4472
15341TIP3    H167514   0.490   0.183  10.495  0.0105  0.1551 -0.1414
15341TIP3    H267515   0.539   0.279  10.601  0.2100 -0.1776  0.0667
15342TIP3   OH267516   4.980   5.036   2.404  0.2075  0.0919 -0.0615
15342TIP3    H167517   4.948   4.985   2.478 -0.0260  1.0839  0.5412
15342TIP3    H267518   4.901   5.068   2.361  0.3562  0.2602 -0.2112
15343TIP3   OH267519   3.221   6.539   3.790 -0.0902 -0.1922 -0.1169
15343TIP3    H167520   3.212   6.444   3.801 -1.3692 -0.2185 -1.0661
15343TIP3    H267521   3.280   6.549   3.716  1.1267 -0.2050  0.8338
15344TIP3   OH267522   0.825   2.938  11.835 -0.0334 -0.2482  0.1855
15344TIP3    H167523   0.850   2.893  11.754  5.0213  0.3885  1.0416
15344TIP3    H267524   0.836   2.871  11.903  0.7849  0.5047  0.8036
15345TIP3   OH267525   3.135   5.546   1.814 -0.2083  0.1270  0.5232
15345TIP3    H167526   3.056   5.587   1.778  0.1101 -0.8275 -1.3676
15345TIP3    H267527   3.113   5.453   1.821  0.4789 -0.0205  0.8136
15346TIP3   OH267528   2.056   6.069  16.314 -0.1486 -0.1873  0.0234
15346TIP3    H167529   1.968   6.086  16.280 -0.1548 -1.1775 -0.4666
15346TIP3    H267530   2.057   5.976  16.337  1.0553 -0.4348 -0.8822
15347TIP3   OH267531   5.247   2.390  15.570  0.7099 -0.5504 -0.8793
15347TIP3    H167532   5.192   2.468  15.559  1.5848  0.5056  1.4561
15347TIP3    H267533   5.188   2.317  15.555 -1.0705  0.5589  0.2627
15348TIP3   OH267534   4.345   5.498  11.943 -0.7573  0.0749  0.1501
15348TIP3    H167535   4.257   5.469  11.968 -0.9442  1.2782  1.0025
15348TIP3    H267536   4.403   5.437  11.987 -1.1189  1.4077  2.6757
15349TIP3   OH267537   0.174   5.118   1.964  0.1361 -0.0455 -0.3675
15349TIP3    H167538   0.142   5.205   1.940  0.0023  0.1821  0.6050
15349TIP3    H267539   0.161   5.112   2.058  0.0573 -1.1628 -0.4308
15350TIP3   OH267540   3.545   0.893  10.404  0.1408  0.2021  0.1285
15350TIP3    H167541   3.533   0.828  10.335  0.5911  1.0682 -0.7949
15350TIP3    H267542   3.640   0.909  10.404  0.5041 -1.3632  2.4500
15351TIP3   OH267543   6.722   2.755  12.871  0.5885  0.4287  0.1144
15351TIP3    H167544   6.636   2.795  12.883  1.1755  1.1541  2.1219
15351TIP3    H267545   6.773   2.819  12.822  0.6246  0.9127  0.7782
15352TIP3   OH267546   0.265   0.297  12.173 -0.4643 -0.4258 -0.3206
15352TIP3    H167547   0.286   0.260  12.258  1.5832  0.3430 -0.4422
15352TIP3    H267548   0.252   0.391  12.191  0.1674 -0.2283 -0.8708
15353TIP3   OH267549   6.454   1.048  11.378  0.0436 -0.1498  0.2329
15353TIP3    H167550   6.489   1.099  11.306  2.0386  1.0918  1.9819
15353TIP3    H267551   6.366   1.084  11.392  0.1129  0.4383 -0.7712
15354TIP3   OH267552   0.570   6.215  13.854  0.0860  0.3604  0.1347
15354TIP3    H167553   0.545   6.124  13.836 -0.2248  0.7541 -1.6291
15354TIP3    H267554   0.637   6.208  13.922  2.5328 -1.4943 -2.2458
15355TIP3   OH267555   5.127   0.377  14.890  0.3785 -0.1762  0.7337
15355TIP3    H167556   5.064   0.332  14.833 -1.5550  2.4179  0.6027
15355TIP3    H267557   5.176   0.434  14.831  0.5022  0.2809  1.2724
15356TIP3   OH267558   0.521   5.601  12.697  0.1356 -0.3609 -0.3988
15356TIP3    H167559   0.531   5.559  12.612  1.3074 -0.0265 -0.4426
15356TIP3    H267560   0.610   5.602  12.734 -0.3051 -0.2316  0.6960
15357TIP3   OH267561   5.766   6.650   4.166 -0.1845  0.0199  0.2485
15357TIP3    H167562   5.763   6.743   4.190 -0.9251  0.1076 -0.1730
15357TIP3    H267563   5.839   6.644   4.104 -0.4022  0.4036 -0.0502
15358TIP3   OH267564   6.720   5.212   2.059 -0.1153 -0.1570 -0.6747
15358TIP3    H167565   6.797   5.263   2.033  1.2529 -0.8629  1.6813
15358TIP3    H267566   6.756   5.134   2.101 -2.1401 -0.9891 -0.3780
15359TIP3   OH267567   3.581   5.279  12.508 -0.0553 -0.0863  0.0058
15359TIP3    H167568   3.619   5.272  12.595 -0.4840  0.0087  0.2056
15359TIP3    H267569   3.521   5.353  12.514  0.0994  0.0777 -0.4427
15360TIP3   OH267570   6.639   5.689  15.055  0.2111 -0.0933 -0.0017
15360TIP3    H167571   6.719   5.664  15.101  0.2306  0.3265  0.1924
15360TIP3    H267572   6.591   5.606  15.046  0.3920 -0.2471  0.4118
15361TIP3   OH267573   3.812   5.567   5.391 -0.3937  0.2754 -0.1477
15361TIP3    H167574   3.907   5.579   5.391 -0.3412 -0.0962 -0.5291
15361TIP3    H267575   3.777   5.653   5.412 -0.0173  0.9470 -2.0207
15362TIP3   OH267576   4.190   2.037  10.361  1.0596 -0.2057  0.3645
15362TIP3    H167577   4.154   2.092  10.292  1.3374  0.9299  1.1004
15362TIP3    H267578   4.121   2.033  10.427 -0.5585 -3.9432 -1.2483
15363TIP3   OH267579   0.271   1.997  16.592 -0.5093  0.4178 -0.5277
15363TIP3    H167580   0.193   2.033  16.635 -0.0082  0.0160  0.7630
15363TIP3    H267581   0.248   1.905  16.575  0.4121 -0.3222  1.8474
15364TIP3   OH267582   1.281   1.000   5.665 -0.1624  0.2039  0.1593
15364TIP3    H167583   1.360   1.052   5.649 -2.4483  3.1926 -2.8086
15364TIP3    H267584   1.226   1.056   5.720 -1.6221 -0.2284 -0.8153
15365TIP3   OH267585   5.751   0.735  14.172  0.1880 -0.3336  0.5576
15365TIP3    H167586   5.667   0.729  14.126  1.0117 -1.8852 -0.8310
15365TIP3    H267587   5.813   0.686  14.117  1.7227 -0.3768  2.2210
15366TIP3   OH267588   1.581   2.822   4.253  0.5487  0.3967  0.3603
15366TIP3    H167589   1.558   2.732   4.275  1.2125  0.3592  0.9456
15366TIP3    H267590   1.513   2.876   4.294  1.0038  0.2437  1.3535
15367TIP3   OH267591   0.139   3.831  13.025  0.2501  0.1701 -0.5007
15367TIP3    H167592   0.148   3.754  12.969  1.3871  0.4369 -0.7279
15367TIP3    H267593   0.229   3.857  13.044 -0.1021 -0.1585  1.8259
15368TIP3   OH267594   3.953   5.783   6.089  0.3201 -0.0630  0.1037
15368TIP3    H167595   3.872   5.806   6.133  0.3919 -1.3914  0.9719
15368TIP3    H267596   3.973   5.695   6.119  1.6892 -0.0531 -0.6833
15369TIP3   OH267597   6.233   3.388   0.530 -0.4287 -0.7346  0.2763
15369TIP3    H167598   6.259   3.334   0.604  0.0469  0.4165  0.9810
15369TIP3    H267599   6.185   3.461   0.568 -1.4008 -0.8392 -0.6869
15370TIP3   OH267600   3.380   1.684   2.969 -0.1647 -0.2243  0.1769
15370TIP3    H167601   3.381   1.589   2.955 -0.9063  0.0525 -2.2142
15370TIP3    H267602   3.289   1.709   2.953 -0.0286  0.8853  1.0139
15371TIP3   OH267603   6.422   3.473   1.348  0.0228  0.0011  0.2794
15371TIP3    H167604   6.407   3.415   1.273  0.7215  0.1329  0.0391
15371TIP3    H267605   6.365   3.548   1.332  0.1774  0.0327 -0.1239
15372TIP3   OH267606   0.907   0.090   4.592  0.7732 -0.4596 -0.1275
15372TIP3    H167607   0.951   0.075   4.508  1.4095 -0.1682  0.1428
15372TIP3    H267608   0.906   0.004   4.635 -0.3677 -0.8053 -0.7993
15373TIP3   OH267609   6.798   1.682  14.567 -0.0440 -0.0246  0.6478
15373TIP3    H167610   6.778   1.774  14.551 -4.9701 -1.2857 -2.8374
15373TIP3    H267611   6.795   1.673  14.662 -0.8895  3.1620  1.0244
15374TIP3   OH267612   6.739   5.085   3.359 -0.5907  0.4647  0.0991
15374TIP3    H167613   6.686   5.115   3.432 -1.4031 -0.2246 -0.1882
15374TIP3    H267614   6.703   5.130   3.282  0.0098  0.8904  0.0552
15375TIP3   OH267615   4.561   4.650   6.828 -0.2251  0.1094  0.1919
15375TIP3    H167616   4.589   4.559   6.816 -0.0711  0.2742 -0.8339
15375TIP3    H267617   4.467   4.649   6.813 -0.0201  0.3292 -1.2943
15376TIP3   OH267618   6.391   2.655  14.440  0.1232 -0.7137  1.1653
15376TIP3    H167619   6.296   2.655  14.452 -0.3452  1.6819 -1.4777
15376TIP3    H267620   6.416   2.747  14.445  2.1369 -1.1802  0.6878
15377TIP3   OH267621   1.182   3.886  11.309  0.0509  0.5346  0.2722
15377TIP3    H167622   1.164   3.795  11.283 -1.2573  0.6322  0.7404
15377TIP3    H267623   1.132   3.938  11.246 -0.7504  0.8504  1.1401
15378TIP3   OH267624   4.486   4.783   0.243  0.3814  0.0977 -0.2148
15378TIP3    H167625   4.432   4.862   0.241 -0.8836 -0.7387 -1.5224
15378TIP3    H267626   4.576   4.816   0.239 -0.1021  1.4866 -0.3149
15379TIP3   OH267627   2.538   2.525  12.632 -0.6634  0.3097  0.2253
15379TIP3    H167628   2.461   2.541  12.578 -0.6524 -0.7807 -0.1332
15379TIP3    H267629   2.591   2.464  12.580 -0.5801 -0.6372  1.3972
15380TIP3   OH267630   0.340   3.631  13.703 -0.2930 -0.0066  0.0373
15380TIP3    H167631   0.256   3.670  13.679 -1.0833 -1.9088 -0.4649
15380TIP3    H267632   0.388   3.702  13.746 -0.9232  2.0412 -2.4043
15381TIP3   OH267633   4.354   4.446  11.618  0.1031  0.0198  0.1749
15381TIP3    H167634   4.431   4.389  11.617 -0.5355 -0.8673  0.8148
15381TIP3    H267635   4.314   4.434  11.533 -0.9844 -1.8416  0.9019
15382TIP3   OH267636   1.192   0.726   5.222 -0.1297 -0.3734 -1.1286
15382TIP3    H167637   1.223   0.810   5.256 -2.4581  0.1702 -0.1393
15382TIP3    H267638   1.223   0.662   5.286 -0.4499  0.0520 -0.5419
15383TIP3   OH267639   2.842   0.237   4.169 -0.2644  0.2874 -0.0927
15383TIP3    H167640   2.830   0.228   4.075 -0.1439  1.1487 -0.2032
15383TIP3    H267641   2.800   0.320   4.191  1.5777  1.1977  0.2295
15384TIP3   OH267642   1.075   4.293   1.969 -0.0799 -0.4373  0.0369
15384TIP3    H167643   1.103   4.212   1.927  0.4367  0.1999 -0.8985
15384TIP3    H267644   0.990   4.312   1.928  0.3832  0.1379 -0.6870
15385TIP3   OH267645   2.379   4.355   2.603  0.0596 -0.2664 -0.0433
15385TIP3    H167646   2.451   4.300   2.635 -0.8259 -0.8614  1.0023
15385TIP3    H267647   2.308   4.293   2.586 -0.5440  0.4236 -0.0569
15386TIP3   OH267648   3.152   3.299   0.454 -0.8111  0.3176 -0.4397
15386TIP3    H167649   3.236   3.271   0.419 -0.7815  0.5271 -0.5353
15386TIP3    H267650   3.098   3.219   0.455  0.3972 -0.6369  2.6692
15387TIP3   OH267651   2.217   3.171  13.167  0.6257  0.4384 -0.3311
15387TIP3    H167652   2.280   3.109  13.130 -0.2714 -0.4435 -0.4339
15387TIP3    H267653   2.173   3.209  13.091  0.7669  0.7583 -0.2520
15388TIP3   OH267654   5.425   3.211   0.694 -0.0949  0.4699 -0.2380
15388TIP3    H167655   5.479   3.287   0.675 -1.5383  1.2905 -1.2867
15388TIP3    H267656   5.339   3.233   0.659 -0.6873 -1.4605 -0.1411
15389TIP3   OH267657   6.100   2.030   3.481 -0.2470 -0.4530  0.7716
15389TIP3    H167658   6.029   1.988   3.433 -0.4994 -0.7935  1.4263
15389TIP3    H267659   6.158   1.959   3.506  0.4933 -0.1387 -0.0216
15390TIP3   OH267660   3.773   0.529  16.194  0.0135  0.0351  0.2986
15390TIP3    H167661   3.783   0.552  16.102 -1.6594  2.5968  0.6518
15390TIP3    H267662   3.720   0.449  16.194 -0.5585  0.4025 -0.9418
15391TIP3   OH267663   3.572   1.458   0.627  0.2184 -0.3781 -0.5211
15391TIP3    H167664   3.610   1.447   0.714  1.2014 -1.2867 -1.0506
15391TIP3    H267665   3.478   1.448   0.640  0.0345  2.2712  0.8786
15392TIP3   OH267666   4.423   5.700   4.113 -0.0999  0.2983  0.7578
15392TIP3    H167667   4.437   5.794   4.126  0.0075  0.3816  0.0938
15392TIP3    H267668   4.351   5.695   4.051  2.5495  0.0931 -2.5794
15393TIP3   OH267669   5.669   0.468   1.630 -0.5204 -0.2371  0.3271
15393TIP3    H167670   5.593   0.472   1.572 -1.1830 -0.1567  1.1755
15393TIP3    H267671   5.677   0.556   1.666  1.3103  0.3568 -1.3658
15394TIP3   OH267672   2.299   2.319  16.821 -0.0362  0.5655 -0.0152
15394TIP3    H167673   2.229   2.349  16.879  0.1473 -0.4926  0.7665
15394TIP3    H267674   2.296   2.224  16.827 -0.9976  0.2884 -2.8837
15395TIP3   OH267675   4.486   1.526   2.431 -0.9290 -0.3193 -0.0358
15395TIP3    H167676   4.476   1.602   2.374 -1.3115 -0.1778  0.2132
15395TIP3    H267677   4.398   1.488   2.436 -0.5930 -1.2149 -0.7583
15396TIP3   OH267678   4.354   3.560   2.642  0.1845 -0.2662 -0.3606
15396TIP3    H167679   4.283   3.611   2.682  0.2867 -1.0214  0.8404
15396TIP3    H267680   4.323   3.542   2.554 -0.6534  0.3240 -0.2015
15397TIP3   OH267681   2.108   0.821   3.911 -0.1513 -0.2078  0.2500
15397TIP3    H167682   2.138   0.893   3.857 -1.4551 -2.0445 -3.1896
15397TIP3    H267683   2.027   0.853   3.951 -0.2407  0.5074 -0.4922
15398TIP3   OH267684   2.556   1.361  15.874  0.1194  0.0681  0.1230
15398TIP3    H167685   2.558   1.413  15.793  2.3449  0.9031  0.6467
15398TIP3    H267686   2.486   1.402  15.926 -0.3749  0.4293 -0.7953
15399TIP3   OH267687   1.150   1.619  16.423  0.0407 -0.7372  0.7147
15399TIP3    H167688   1.063   1.587  16.448 -0.2331  0.6472  1.6640
15399TIP3    H267689   1.194   1.636  16.507 -0.1176  2.0264  0.3310
15400TIP3   OH267690   1.283   2.201   4.330 -0.1912  0.3263  0.5544
15400TIP3    H167691   1.244   2.267   4.388  0.6940  1.1881  0.2008
15400TIP3    H267692   1.249   2.221   4.243 -2.2891 -1.5624  0.8446
15401TIP3   OH267693   1.871   3.087   2.468  0.2413 -0.0822  0.8372
15401TIP3    H167694   1.777   3.073   2.477  0.4035 -1.2106  0.9203
15401TIP3    H267695   1.905   3.003   2.437  1.2101  0.3422  0.7177
15402TIP3   OH267696   1.288   0.046  13.970  0.1196  0.4797 -0.3145
15402TIP3    H167697   1.205   0.057  13.923 -0.1907 -1.0304 -0.1819
15402TIP3    H267698   1.287  -0.046  13.998  1.3132  0.7600  0.7088
15403TIP3   OH267699   5.840   2.809   3.670  0.1724  0.1491  0.4185
15403TIP3    H167700   5.821   2.882   3.728 -0.1594  0.5447 -0.1826
15403TIP3    H267701   5.755   2.781   3.637  0.2126 -1.0156  1.2353
15404TIP3   OH267702   3.860   6.097  15.902 -0.4825 -0.1947 -0.2641
15404TIP3    H167703   3.804   6.022  15.881 -0.9286  0.6296 -2.2434
15404TIP3    H267704   3.938   6.084  15.848  0.3285 -0.2217  0.8686
15405TIP3   OH267705   1.743   0.749   0.669 -0.5718 -0.1762 -0.1730
15405TIP3    H167706   1.689   0.670   0.679  0.2453 -0.6206  0.9862
15405TIP3    H267707   1.755   0.757   0.574 -1.7467 -0.6818 -0.3963
15406TIP3   OH267708   1.250   0.685  10.634  0.1606  0.1784 -0.2937
15406TIP3    H167709   1.301   0.629  10.575 -0.7826 -1.2168  0.1642
15406TIP3    H267710   1.313   0.714  10.700  0.5256 -0.9798 -0.1125
15407TIP3   OH267711   3.538   6.067   1.385 -0.2987  0.3833  0.3526
15407TIP3    H167712   3.616   6.104   1.343 -0.2829  0.3030  0.3102
15407TIP3    H267713   3.477   6.140   1.392  0.2757  0.7667  1.6048
15408TIP3   OH267714   4.864   2.835  12.574  0.1244 -0.4884 -0.3258
15408TIP3    H167715   4.799   2.781  12.530 -1.1048  1.6125 -1.2831
15408TIP3    H267716   4.817   2.917  12.594  2.2265  0.7605 -0.2211
15409TIP3   OH267717   5.615   5.103  14.578  0.2860  0.8007  0.5004
15409TIP3    H167718   5.569   5.054  14.509 -0.1615  0.5749  0.9493
15409TIP3    H267719   5.603   5.050  14.657  4.7781 -1.4931 -0.0505
15410TIP3   OH267720   3.657   4.812  15.452  0.1919  0.5123  0.1831
15410TIP3    H167721   3.668   4.907  15.455 -2.2799  0.8426  0.7692
15410TIP3    H267722   3.599   4.797  15.377 -1.0955 -0.2959  1.2974
15411TIP3   OH267723   3.022   3.846   2.654 -0.0269  0.0064  0.1606
15411TIP3    H167724   2.929   3.865   2.648 -0.0278 -0.4270 -2.7345
15411TIP3    H267725   3.056   3.864   2.566  2.3326 -1.2624  0.7145
15412TIP3   OH267726   0.016   3.582  15.805 -0.3934  0.0477  0.7547
15412TIP3    H167727   0.101   3.537  15.811 -0.3426 -0.0233 -0.3685
15412TIP3    H267728   0.037   3.675  15.813  0.1186  0.2343 -1.9326
15413TIP3   OH267729   6.421   2.602  11.006 -0.5852 -0.3921  0.1367
15413TIP3    H167730   6.403   2.527  10.949  1.2510 -0.0909 -0.8912
15413TIP3    H267731   6.455   2.669  10.948  0.4771  0.2497  1.4543
15414TIP3   OH267732   6.829   4.369  11.829  0.8559  0.1045 -0.2101
15414TIP3    H167733   6.797   4.323  11.906  1.2435  0.1712 -0.0054
15414TIP3    H267734   6.772   4.445  11.821  0.2660 -0.3591 -0.5026
15415TIP3   OH267735   5.941   4.854   4.855  0.4441 -0.6223  0.1614
15415TIP3    H167736   5.899   4.815   4.931 -0.1790 -2.4150 -1.0289
15415TIP3    H267737   5.916   4.946   4.858  1.3733 -0.3979  2.6946
15416TIP3   OH267738   0.733   2.385   2.803 -0.2150  0.0813 -0.3715
15416TIP3    H167739   0.695   2.413   2.720  0.5306  1.8402 -0.1621
15416TIP3    H267740   0.823   2.417   2.800  0.0893 -0.6372  0.7335
15417TIP3   OH267741   4.628   0.811  12.045 -0.0922  0.4603 -0.2781
15417TIP3    H167742   4.652   0.796  12.137  0.8230 -0.4202 -0.6429
15417TIP3    H267743   4.675   0.743  11.997 -1.0439  0.5417 -1.3432
15418TIP3   OH267744   6.240   5.223  12.131 -0.3756  0.1333 -0.0064
15418TIP3    H167745   6.262   5.255  12.218  1.2550 -2.6903  0.7528
15418TIP3    H267746   6.268   5.293  12.072 -0.4600  1.6293  1.6319
15419TIP3   OH267747   4.107   6.169   4.647  0.1652  0.5712  0.0590
15419TIP3    H167748   4.058   6.152   4.727  0.3905  0.9232  0.2759
15419TIP3    H267749   4.142   6.257   4.658  1.8424 -0.1077  0.4499
15420TIP3   OH267750   5.637   1.102   2.848 -0.3482  0.0383  0.0635
15420TIP3    H167751   5.607   1.021   2.890  1.2178 -0.1300  0.9565
15420TIP3    H267752   5.607   1.172   2.906 -1.2004  0.0778 -0.4057
15421TIP3   OH267753   3.291   5.965  16.038  0.2420 -0.3487  0.2309
15421TIP3    H167754   3.330   6.023  15.973 -0.3086  0.8660  0.9467
15421TIP3    H267755   3.211   5.932  15.996  0.6437 -0.7410 -0.2410
15422TIP3   OH267756   5.525   6.796   3.946 -0.5050 -0.1319  0.3218
15422TIP3    H167757   5.496   6.734   4.014  1.0709 -0.6183  0.5791
15422TIP3    H267758   5.619   6.779   3.936 -0.4062  0.9920 -0.9006
15423TIP3   OH267759   4.506   6.447  11.589  0.1440 -0.2832 -0.1124
15423TIP3    H167760   4.511   6.369  11.533  0.3333 -0.2104 -0.2005
15423TIP3    H267761   4.598   6.471  11.603  0.0766  0.3343 -0.6677
15424TIP3   OH267762   4.068   0.157   4.423 -0.0672 -0.4081  0.5397
15424TIP3    H167763   4.049   0.247   4.450  1.2754  1.0116 -2.7506
15424TIP3    H267764   4.158   0.159   4.392  0.1238 -3.0111  0.7065
15425TIP3   OH267765   6.103   2.861   0.324 -0.4027  0.2078 -0.2739
15425TIP3    H167766   6.171   2.921   0.355 -0.7628  0.2899  0.3602
15425TIP3    H267767   6.068   2.821   0.403  0.8237 -1.9459 -0.7333
15426TIP3   OH267768   2.659   4.136  12.919  0.3950  0.4991  0.0790
15426TIP3    H167769   2.617   4.193  12.984  1.0810  0.5124  0.5219
15426TIP3    H267770   2.588   4.108  12.862 -0.4138 -0.3529  1.4584
15427TIP3   OH267771   4.854   4.938  17.093 -0.1817 -0.6375 -0.5072
15427TIP3    H167772   4.864   5.032  17.108  0.8115 -0.4505 -2.1656
15427TIP3    H267773   4.827   4.904  17.178 -3.8576  1.5540 -0.5492
15428TIP3   OH267774   1.058   2.391  12.311  0.3424  0.1395  0.2270
15428TIP3    H167775   1.139   2.441  12.307  0.6024 -0.3253 -0.4054
15428TIP3    H267776   1.036   2.373  12.220 -0.8088  0.7894  0.3611
15429TIP3   OH267777   3.769   6.041  16.309  0.6179  0.3318  0.4372
15429TIP3    H167778   3.684   6.014  16.275  0.9403 -3.5689  2.1869
15429TIP3    H267779   3.754   6.051  16.403  1.9017  0.5129  0.6393
15430TIP3   OH267780   3.484   4.130  14.246 -0.0574  0.0529  0.3099
15430TIP3    H167781   3.558   4.135  14.185 -0.4928 -0.0615 -0.2416
15430TIP3    H267782   3.429   4.205  14.222  0.6037  1.0192  1.7019
15431TIP3   OH267783   1.657   0.123   1.196 -0.0896  0.4849  0.1604
15431TIP3    H167784   1.625   0.203   1.238  0.7494  1.0258 -0.2021
15431TIP3    H267785   1.633   0.053   1.256 -0.0397  1.1106  0.9271
15432TIP3   OH267786   1.562   1.400  15.240 -0.1282  0.2050  0.2702
15432TIP3    H167787   1.647   1.445  15.241  0.4648 -0.8912  0.2819
15432TIP3    H267788   1.540   1.393  15.147  1.1179 -1.8820  0.0623
15433TIP3   OH267789   4.838   1.769   4.401 -0.0487  0.0283  0.0168
15433TIP3    H167790   4.866   1.687   4.442  0.0842 -0.4026 -0.9206
15433TIP3    H267791   4.758   1.746   4.353  0.6246  0.1531 -1.2117
15434TIP3   OH267792   6.093   6.311  11.590 -0.2908 -0.0248 -0.4262
15434TIP3    H167793   6.110   6.302  11.496 -0.1942 -1.1861 -0.3139
15434TIP3    H267794   6.001   6.338  11.594 -0.3270 -0.0629 -0.8575
15435TIP3   OH267795   5.959   4.692   4.403  0.2560 -0.8116 -0.0255
15435TIP3    H167796   5.975   4.777   4.361 -0.1746 -0.1404  1.1524
15435TIP3    H267797   5.903   4.646   4.341  1.2576 -0.6142 -1.1156
15436TIP3   OH267798   4.319   2.661  11.252  0.5174 -0.0631 -0.1243
15436TIP3    H167799   4.394   2.612  11.218  0.5801  0.6103 -0.9990
15436TIP3    H267800   4.311   2.735  11.193  0.0533  0.6604  0.8276
15437TIP3   OH267801   4.520   5.554  15.638  0.3616 -0.0045 -0.4770
15437TIP3    H167802   4.545   5.630  15.585 -1.7909 -0.0669 -1.6780
15437TIP3    H267803   4.576   5.560  15.716  0.5778  2.5636 -0.7324
15438TIP3   OH267804   2.113   3.064  10.687 -0.2388 -0.3603 -0.3333
15438TIP3    H167805   2.090   2.996  10.624  0.1758 -0.8843  0.0732
15438TIP3    H267806   2.166   3.126  10.638 -1.9044  0.5276 -1.1238
15439TIP3   OH267807   5.270   6.487  10.961  0.4605 -0.1125  0.1501
15439TIP3    H167808   5.337   6.493  10.893  0.4984  0.6995  0.2517
15439TIP3    H267809   5.198   6.440  10.920  0.0222  1.3532 -0.8406
15440TIP3   OH267810   6.713   5.529   1.755 -0.6746  0.5115  0.3411
15440TIP3    H167811   6.622   5.540   1.782 -1.3049  0.8913 -1.7535
15440TIP3    H267812   6.735   5.613   1.713  0.4268  0.1855  0.2424
15441TIP3   OH267813   1.667   6.170  12.710 -0.2642  0.0538  0.0864
15441TIP3    H167814   1.668   6.146  12.803  0.2574 -0.2508  0.0079
15441TIP3    H267815   1.578   6.203  12.695  0.3378  2.4507  1.2716
15442TIP3   OH267816   4.866   2.529  16.398  0.2382 -0.4076  0.3189
15442TIP3    H167817   4.849   2.573  16.481 -0.3515 -0.9347  0.4914
15442TIP3    H267818   4.946   2.479  16.414 -1.1701 -2.5192  1.4512
15443TIP3   OH267819   5.844   2.136   5.429  0.2443  0.7405 -0.1283
15443TIP3    H167820   5.760   2.105   5.462  0.1133  0.4877 -0.6727
15443TIP3    H267821   5.889   2.171   5.505 -0.3887  0.9537  0.1526
15444TIP3   OH267822   2.992   3.785  11.636  0.2983 -0.0424 -0.4371
15444TIP3    H167823   2.911   3.735  11.626  0.3430 -0.4539  0.9641
15444TIP3    H267824   3.048   3.728  11.689  0.8763  0.9185  0.0053
15445TIP3   OH267825   4.666   0.351  12.293  0.3906  0.0565  0.1280
15445TIP3    H167826   4.605   0.283  12.322  1.1772 -0.8669 -0.3217
15445TIP3    H267827   4.687   0.328  12.203  2.1865 -0.2559  0.5808
15446TIP3   OH267828   0.031   6.140  11.107  0.4073  0.1388  0.1034
15446TIP3    H167829   0.049   6.118  11.198 -0.4509 -0.9347  0.0268
15446TIP3    H267830  -0.063   6.124  11.096  0.1220  1.8962 -0.5223
15447TIP3   OH267831   2.293   6.352   0.683 -0.2707 -0.9800  0.3567
15447TIP3    H167832   2.305   6.341   0.777 -1.8762 -0.0168  0.7156
15447TIP3    H267833   2.200   6.336   0.668 -0.3532  0.3358 -0.8226
15448TIP3   OH267834   3.900   1.658   4.292  0.1659 -0.4722  0.5028
15448TIP3    H167835   3.893   1.745   4.254  1.2185 -0.2032  0.8905
15448TIP3    H267836   3.941   1.672   4.378  1.2118 -1.4179  0.1849
15449TIP3   OH267837   2.662   3.784  16.342 -0.0306 -0.0185 -0.1399
15449TIP3    H167838   2.606   3.708  16.324 -0.8467  0.9190 -1.7668
15449TIP3    H267839   2.694   3.812  16.256 -0.9484  2.3578  0.2031
15450TIP3   OH267840   4.609   6.513  14.388 -0.0145  0.3135 -0.1928
15450TIP3    H167841   4.563   6.454  14.327 -0.9331  1.6649 -0.8676
15450TIP3    H267842   4.599   6.471  14.473 -0.7375 -0.4677 -0.6391
15451TIP3   OH267843   4.415   2.458  14.562 -0.2831 -0.4239  0.7173
15451TIP3    H167844   4.397   2.391  14.628  1.0675  0.8150  2.4323
15451TIP3    H267845   4.345   2.523  14.575  1.6892  1.3876  3.2263
15452TIP3   OH267846   2.362   1.253  17.137 -0.2392 -0.4885 -0.1165
15452TIP3    H167847   2.381   1.192  17.065  2.2845 -0.9852  0.8736
15452TIP3    H267848   2.412   1.219  17.211 -1.1377  1.1639  1.3143
15453TIP3   OH267849   1.559   2.554   4.970 -0.0343 -0.1840  0.0167
15453TIP3    H167850   1.636   2.595   4.931  1.1676 -0.7184  1.7069
15453TIP3    H267851   1.555   2.589   5.058 -0.3235 -1.9193  0.7438
15454TIP3   OH267852   4.737   0.439   5.246 -0.9722 -0.1519  0.4109
15454TIP3    H167853   4.799   0.392   5.300 -0.9404 -0.7766 -0.1506
15454TIP3    H267854   4.651   0.415   5.280 -1.0042 -1.5253 -0.5612
15455TIP3   OH267855   2.166   4.784   4.075 -0.0144  0.3334 -0.6161
15455TIP3    H167856   2.161   4.741   4.160  0.3528  0.9123 -0.2934
15455TIP3    H267857   2.202   4.718   4.016 -1.4357 -0.4898 -0.6232
15456TIP3   OH267858   0.084   2.898  13.050  0.0183 -0.2015 -0.0625
15456TIP3    H167859  -0.002   2.862  13.028  0.2019 -1.5654  1.3019
15456TIP3    H267860   0.066   2.969  13.111 -0.0795 -1.9874  2.0871
15457TIP3   OH267861   3.697   3.193   3.625  0.3277 -0.0050 -0.7296
15457TIP3    H167862   3.632   3.126   3.604 -0.5553 -0.4156  2.7219
15457TIP3    H267863   3.652   3.253   3.684  1.7461  2.5115 -2.0281
15458TIP3   OH267864   3.331   6.716   1.902  0.1902  0.7593  0.6824
15458TIP3    H167865   3.381   6.649   1.949  0.6658 -0.7105 -1.7384
15458TIP3    H267866   3.239   6.696   1.923  0.3836  0.0558  0.9000
15459TIP3   OH267867   2.550   3.161   6.280  0.6688 -0.2987 -0.0157
15459TIP3    H167868   2.485   3.225   6.312  0.1948 -1.6522  1.9086
15459TIP3    H267869   2.517   3.076   6.309  2.7245 -1.1557 -0.0091
15460TIP3   OH267870   0.629   2.755   4.411  0.5432 -0.3013 -0.1061
15460TIP3    H167871   0.649   2.827   4.472  0.5629 -1.9179  1.9237
15460TIP3    H267872   0.557   2.709   4.453  1.1175 -1.9733 -0.8978
15461TIP3   OH267873   3.243   0.477   0.389  0.0525 -0.8509  0.8745
15461TIP3    H167874   3.186   0.539   0.344 -0.7991 -2.0796  0.1819
15461TIP3    H267875   3.195   0.394   0.386  1.2419 -1.6005  1.5750
15462TIP3   OH267876   1.069   4.153   3.253 -0.4837 -0.3700 -0.1139
15462TIP3    H167877   1.028   4.148   3.167  0.4098 -1.0253 -0.5213
15462TIP3    H267878   1.146   4.096   3.246  1.7831  2.4725 -0.1187
15463TIP3   OH267879   5.620   3.097   3.319 -0.1508  0.3024 -0.5138
15463TIP3    H167880   5.688   3.041   3.356  0.4382 -0.7083 -2.9084
15463TIP3    H267881   5.555   3.106   3.389  0.4610 -2.1617  0.4720
15464TIP3   OH267882   2.952   5.874   3.049  0.2888 -0.1059 -0.4403
15464TIP3    H167883   2.929   5.850   3.138  0.3361  1.0277 -0.1025
15464TIP3    H267884   2.868   5.883   3.004  0.2917 -1.9109 -0.8806
15465TIP3   OH267885   0.214   3.992   5.566  0.3386 -0.0536  0.5656
15465TIP3    H167886   0.194   4.005   5.474 -3.6468  0.0288  1.2556
15465TIP3    H267887   0.224   3.897   5.577 -1.7393 -0.3283  0.3824
15466TIP3   OH267888   1.931   0.284  15.780 -0.0452  0.1148 -0.3099
15466TIP3    H167889   1.859   0.286  15.718 -0.0738 -0.2388 -0.2922
15466TIP3    H267890   1.889   0.283  15.866 -0.0339 -0.4959 -0.3054
15467TIP3   OH267891   3.167   1.299   2.684  0.3096 -0.4356 -0.4588
15467TIP3    H167892   3.098   1.364   2.698  0.4874 -0.1807 -0.7792
15467TIP3    H267893   3.246   1.338   2.722  0.0751 -1.1591  0.8688
15468TIP3   OH267894   2.437   1.022   0.858  0.5055 -1.0861 -0.1962
15468TIP3    H167895   2.359   0.990   0.814  0.2295 -1.5610  0.6236
15468TIP3    H267896   2.509   0.993   0.802  0.0612  2.8217 -3.2282
15469TIP3   OH267897   0.287   3.311  14.619 -0.3678 -0.1157 -0.3271
15469TIP3    H167898   0.252   3.277  14.701  1.4961 -1.3553  0.0009
15469TIP3    H267899   0.241   3.394  14.606  0.0835  0.6669  2.5329
15470TIP3   OH267900   0.121   4.200   1.150 -0.1127 -0.1448  0.5166
15470TIP3    H167901   0.122   4.218   1.244 -2.4704  0.9482  0.4144
15470TIP3    H267902   0.044   4.248   1.117 -0.4849 -2.0362 -1.6534
15471TIP3   OH267903   1.746   6.752  12.674 -0.9833 -0.2113  0.0998
15471TIP3    H167904   1.703   6.815  12.617 -0.6857  2.2062  2.3310
15471TIP3    H267905   1.680   6.730  12.740 -0.6834 -1.2668  0.0686
15472TIP3   OH267906   2.980   4.097  16.130  0.4806  0.1244  0.7252
15472TIP3    H167907   3.048   4.163  16.113 -0.3651  0.3671 -2.1351
15472TIP3    H267908   2.915   4.143  16.183  0.8369  0.9875  0.4261
15473TIP3   OH267909   6.684   5.270   1.595  0.0740  0.2274 -0.3330
15473TIP3    H167910   6.608   5.284   1.538  0.3459  0.3868 -0.6565
15473TIP3    H267911   6.689   5.350   1.648 -2.3999 -1.2864  2.5824
15474TIP3   OH267912   2.660   3.875  11.209 -0.2929  0.1092  0.4854
15474TIP3    H167913   2.692   3.881  11.119 -0.6754 -0.4752  0.2993
15474TIP3    H267914   2.672   3.962  11.245  2.8386 -0.3775  0.8927
15475TIP3   OH267915   4.006   2.588   0.757  0.7400 -0.3557  0.5313
15475TIP3    H167916   3.956   2.574   0.837 -2.7052 -0.9876 -1.5461
15475TIP3    H267917   3.999   2.682   0.741  1.5044 -0.2146  0.9363
15476TIP3   OH267918   4.228   0.057   6.071 -0.6642  0.4960  0.4818
15476TIP3    H167919   4.197   0.042   5.981  3.4151 -0.1940 -1.0209
15476TIP3    H267920   4.243  -0.030   6.107 -0.3178  0.7838  1.0491
15477TIP3   OH267921   4.474   4.738  15.456  0.0945 -0.2558 -0.1260
15477TIP3    H167922   4.440   4.789  15.530  0.0176  3.2241 -2.3306
15477TIP3    H267923   4.396   4.696  15.419 -0.2149 -0.2079  0.4513
15478TIP3   OH267924   1.170   4.034  14.879 -0.1814  0.1837 -0.0093
15478TIP3    H167925   1.106   4.036  14.809  0.1297 -0.9414 -0.3535
15478TIP3    H267926   1.233   3.967  14.852  0.3087  0.2047  1.0221
15479TIP3   OH267927   0.572   6.238   4.538 -0.1678 -0.7322  1.1103
15479TIP3    H167928   0.646   6.205   4.588  0.6553 -1.0836 -0.2927
15479TIP3    H267929   0.609   6.259   4.452 -1.0563  1.9290  1.2846
15480TIP3   OH267930   4.111   0.764   0.680 -0.2238  0.2951  0.0415
15480TIP3    H167931   4.159   0.837   0.719  0.2401 -0.2822  0.5744
15480TIP3    H267932   4.062   0.803   0.607  1.7707  0.7482 -1.1192
15481TIP3   OH267933   1.414   1.434   5.326  0.3035  0.2504  0.0420
15481TIP3    H167934   1.425   1.398   5.414  0.0002 -0.7814 -0.3315
15481TIP3    H267935   1.387   1.360   5.272  0.5588  0.8487 -0.9470
15482TIP3   OH267936   2.797   6.236   1.633 -0.2952  0.3904  0.2195
15482TIP3    H167937   2.801   6.223   1.538  1.2566 -1.3495  0.4778
15482TIP3    H267938   2.734   6.170   1.664 -0.3382  0.5501  0.4786
15483TIP3   OH267939   4.586   1.951   3.669  0.2176 -0.5549  0.3295
15483TIP3    H167940   4.561   2.024   3.613 -2.5771 -0.3154  1.7211
15483TIP3    H267941   4.672   1.976   3.704 -0.6948  2.2010  0.8832
15484TIP3   OH267942   6.826   0.916   0.276 -0.8130  0.1451 -0.0776
15484TIP3    H167943   6.862   0.942   0.361  0.8242  0.2765 -0.7711
15484TIP3    H267944   6.777   0.836   0.294  0.0514 -0.1820  0.8891
15485TIP3   OH267945   4.451   2.191   2.777 -0.0749 -0.1366  0.0255
15485TIP3    H167946   4.472   2.237   2.859 -0.4451  0.9942 -0.4879
15485TIP3    H267947   4.534   2.187   2.731 -0.2213  0.9690 -0.3697
15486TIP3   OH267948   1.150   4.131   1.752  0.0706 -0.3618  0.3474
15486TIP3    H167949   1.172   4.038   1.746  0.8431 -0.1529 -0.1701
15486TIP3    H267950   1.235   4.176   1.755 -0.2793  0.2851  1.3698
15487TIP3   OH267951   6.596   0.499  11.750 -0.1479 -0.7137 -0.6531
15487TIP3    H167952   6.612   0.553  11.828  1.8359 -1.2383 -0.6276
15487TIP3    H267953   6.656   0.426  11.760 -2.3859 -2.6966 -0.9560
15488TIP3   OH267954   3.342   1.130  13.125  0.7105 -0.4629 -0.1131
15488TIP3    H167955   3.317   1.142  13.033  1.0011  0.0105 -0.1310
15488TIP3    H267956   3.422   1.078  13.122  0.0160 -1.5718 -0.0737
15489TIP3   OH267957   6.785   2.809  12.469 -0.4594  0.0772  0.0849
15489TIP3    H167958   6.727   2.860  12.525  0.9843 -0.8679  2.6306
15489TIP3    H267959   6.865   2.861  12.463  0.7605 -1.4056  2.1192
15490TIP3   OH267960   1.919   4.449   4.683  0.2744  0.9633 -0.3614
15490TIP3    H167961   1.924   4.381   4.615  1.4773  0.9420 -0.2817
15490TIP3    H267962   1.984   4.514   4.656  0.0782  1.4265  0.2708
15491TIP3   OH267963   6.249   4.172  16.606  0.1725  0.0653 -0.4362
15491TIP3    H167964   6.200   4.204  16.529  2.8892  1.7768 -1.6096
15491TIP3    H267965   6.263   4.079  16.588 -3.1260 -0.6992  0.3183
15492TIP3   OH267966   5.983   3.470  15.224  0.2854  0.2929  0.1602
15492TIP3    H167967   5.957   3.378  15.221  0.2207  0.2908  0.7352
15492TIP3    H267968   5.937   3.506  15.299 -0.9361  1.1929 -0.9745
15493TIP3   OH267969   3.841   3.824   4.268  0.0652 -0.4728  0.0496
15493TIP3    H167970   3.764   3.812   4.213  0.6443  0.1110 -0.9241
15493TIP3    H267971   3.881   3.738   4.272 -1.1018 -0.9929  1.3214
15494TIP3   OH267972   5.719   0.999  13.979  0.4340 -0.3187 -0.7542
15494TIP3    H167973   5.756   1.078  13.939  2.0497 -0.5409  0.2351
15494TIP3    H267974   5.770   0.928  13.941 -0.7331 -0.8949 -1.3141
15495TIP3   OH267975   5.540   1.790  15.838 -0.1107  0.0853 -0.1894
15495TIP3    H167976   5.627   1.820  15.864 -0.2883  1.0546 -0.6491
15495TIP3    H267977   5.480   1.855  15.874 -0.5910 -0.2150 -0.4338
15496TIP3   OH267978   3.897   4.572   2.022 -0.2466  0.4612 -0.1076
15496TIP3    H167979   3.974   4.574   1.966  0.5041  1.1987  0.9086
15496TIP3    H267980   3.827   4.540   1.966  0.2775  1.9752 -1.7037
15497TIP3   OH267981   2.518   2.309  16.333  0.0316  0.1236 -0.1064
15497TIP3    H167982   2.468   2.370  16.278 -1.2802 -0.2830  0.5813
15497TIP3    H267983   2.451   2.259  16.380  1.0908 -0.2123  1.1206
15498TIP3   OH267984   4.081   6.646   0.436 -0.2572 -0.1643  0.0157
15498TIP3    H167985   4.019   6.638   0.364 -0.1471 -0.8957 -0.0066
15498TIP3    H267986   4.097   6.740   0.444 -1.3357  0.0405 -0.0049
15499TIP3   OH267987   0.966   2.496   5.658 -0.5951  0.2696 -0.6249
15499TIP3    H167988   0.935   2.418   5.612 -1.3394  0.6374 -0.7534
15499TIP3    H267989   1.049   2.517   5.615 -0.1110 -0.7597 -0.2316
15500TIP3   OH267990   1.341   2.745   3.803  0.0670  0.4174 -0.0087
15500TIP3    H167991   1.264   2.798   3.823 -0.0453  0.0698  0.4886
15500TIP3    H267992   1.406   2.771   3.868 -0.0250 -0.1195  0.3127
15501TIP3   OH267993   5.841   4.983  10.517  0.5576 -0.4523  0.5044
15501TIP3    H167994   5.851   5.074  10.490  0.7226 -0.8394 -0.8192
15501TIP3    H267995   5.893   4.933  10.454 -3.0997 -1.8711 -1.7250
15502TIP3   OH267996   2.839   2.073  12.612  0.3518 -0.1833 -0.1172
15502TIP3    H167997   2.858   1.979  12.601 -0.8014 -0.4246 -0.1212
15502TIP3    H267998   2.861   2.091  12.703  3.6799  0.3286 -0.8724
15503TIP3   OH267999   0.620   1.310  15.387 -0.0725 -0.0481 -0.2720
15503TIP3    H168000   0.528   1.329  15.372  0.0612  2.0210  1.0556
15503TIP3    H268001   0.621   1.225  15.430 -1.5356  0.7401  1.4147
15504TIP3   OH268002   0.794   4.554   0.963  0.0716 -0.1283 -0.0426
15504TIP3    H168003   0.846   4.608   1.022 -0.9085  0.1420  0.5928
15504TIP3    H268004   0.799   4.466   1.000 -0.1736 -0.0414  0.2060
15505TIP3   OH268005   1.996   6.260  10.713 -0.3976  0.0624 -0.2513
15505TIP3    H168006   1.970   6.216  10.632 -1.6171  1.4619 -0.6620
15505TIP3    H268007   1.997   6.353  10.692  0.1597  0.3960  1.1073
15506TIP3   OH268008   5.333   2.930   2.946  0.3530  0.4439  0.1478
15506TIP3    H168009   5.356   2.957   3.035 -1.5961 -2.0546  1.5389
15506TIP3    H268010   5.246   2.966   2.933 -0.3260 -1.1047  0.2140
15507TIP3   OH268011   0.600   3.756  16.027 -0.0309 -0.3398  0.4132
15507TIP3    H168012   0.540   3.831  16.029  0.3277  0.0028 -0.8691
15507TIP3    H268013   0.542   3.679  16.029 -0.4227 -0.0321  1.1716
15508TIP3   OH268014   1.660   2.551   5.752 -0.0995 -0.1792  0.0292
15508TIP3    H168015   1.697   2.621   5.698 -0.0136 -0.4787 -0.3044
15508TIP3    H268016   1.649   2.590   5.838 -1.5718  0.7624 -0.5421
15509TIP3   OH268017   4.076   5.579   4.636 -0.1961 -0.7118 -0.1253
15509TIP3    H168018   4.109   5.591   4.547  0.8498 -0.0804  0.3302
15509TIP3    H268019   4.154   5.573   4.690 -0.8136  0.2432  0.9190
15510TIP3   OH268020   1.910   5.469   3.893 -0.2863  0.2891  0.0716
15510TIP3    H168021   1.952   5.399   3.943 -1.1928  1.2133  2.2601
15510TIP3    H268022   1.973   5.542   3.898  0.9097 -0.4219 -2.6651
15511TIP3   OH268023   5.948   4.548   2.510 -0.0486  0.2277 -0.3236
15511TIP3    H168024   6.009   4.504   2.568 -1.0249  0.3530  0.8312
15511TIP3    H268025   5.926   4.482   2.444  1.7704  0.3706 -1.1377
15512TIP3   OH268026   1.431   4.223   2.258 -0.1832  0.2292 -0.7058
15512TIP3    H168027   1.414   4.261   2.344  1.8346 -2.1291  0.8748
15512TIP3    H268028   1.515   4.262   2.231  1.3684 -2.0425  0.4573
15513TIP3   OH268029   3.716   4.530   3.594 -0.3076 -0.1550 -0.1703
15513TIP3    H168030   3.738   4.437   3.604 -0.4399 -0.1191  0.4995
15513TIP3    H268031   3.709   4.562   3.683 -0.9515  0.3426 -0.3976
15514TIP3   OH268032   3.045   5.586   0.729 -0.4904 -0.1922  0.3478
15514TIP3    H168033   3.042   5.680   0.743 -2.5723 -0.3020  1.0228
15514TIP3    H268034   2.960   5.565   0.690 -0.2200 -1.8324  0.5543
15515TIP3   OH268035   2.546   4.851  13.711 -0.0018 -0.2134  0.3104
15515TIP3    H168036   2.640   4.866  13.713 -0.1997  1.0836  2.4047
15515TIP3    H268037   2.528   4.797  13.788 -1.0167 -0.0958  0.1785
15516TIP3   OH268038   2.793   1.030  10.600  0.0015  0.2078 -0.1221
15516TIP3    H168039   2.781   1.089  10.527 -0.0851 -1.0888 -1.1959
15516TIP3    H268040   2.852   1.077  10.660 -0.8972  1.7705 -0.4185
15517TIP3   OH268041   2.030   4.085   3.699  0.2348  0.5661  0.3390
15517TIP3    H168042   2.004   4.052   3.614 -1.4766  2.1514  0.1604
15517TIP3    H268043   2.117   4.050   3.714  0.3240 -0.2257 -1.7839
15518TIP3   OH268044   0.393   6.720   3.425  0.5399 -0.0746 -0.2179
15518TIP3    H168045   0.479   6.760   3.412  0.0857  0.7297 -0.8311
15518TIP3    H268046   0.359   6.763   3.504  1.1040 -1.1312  0.6294
15519TIP3   OH268047   6.472   4.404  15.982 -0.4827 -0.2148  0.0152
15519TIP3    H168048   6.454   4.323  15.934 -3.6669  0.5075 -0.1852
15519TIP3    H268049   6.535   4.377  16.050 -1.5920 -2.9214  0.1099
15520TIP3   OH268050   3.101   3.353  17.085  0.0641 -0.1372  0.5834
15520TIP3    H168051   3.079   3.364  16.992 -3.0507  0.2436  1.2699
15520TIP3    H268052   3.067   3.266  17.107  1.3986 -0.5175  1.2731
15521TIP3   OH268053   0.631   0.213   4.410  0.2882  0.1052  0.1982
15521TIP3    H168054   0.581   0.162   4.474  1.8782 -0.8280  0.7868
15521TIP3    H268055   0.721   0.211   4.444  0.8692  1.0417 -1.1996
15522TIP3   OH268056   4.048   1.501  11.784  0.0150 -0.8181 -0.6880
15522TIP3    H168057   4.143   1.506  11.777 -0.0172 -0.0157 -0.6669
15522TIP3    H268058   4.016   1.532  11.699 -0.2276 -1.3385 -0.7915
15523TIP3   OH268059   6.839   3.213  16.396 -0.3374 -0.6772  0.4265
15523TIP3    H168060   6.891   3.189  16.320  1.5540  0.9231  1.1340
15523TIP3    H268061   6.760   3.252  16.360 -0.6820 -2.2792 -0.6704
15524TIP3   OH268062   4.093   2.154  16.206  0.3386  0.2175 -0.1603
15524TIP3    H168063   4.097   2.071  16.254  0.6496 -0.1535 -0.8181
15524TIP3    H268064   4.084   2.129  16.115 -0.0699  0.9226 -0.3170
15525TIP3   OH268065   6.508   5.953   4.307  0.4687  0.4477  0.1126
15525TIP3    H168066   6.524   5.962   4.213 -0.7700 -1.0920 -0.3001
15525TIP3    H268067   6.594   5.960   4.347  1.2018 -0.1618 -1.2858
15526TIP3   OH268068   3.354   5.916   4.681  0.4420 -0.1806 -0.0768
15526TIP3    H168069   3.422   5.917   4.613 -0.0914  0.1277 -0.6113
15526TIP3    H268070   3.317   5.828   4.676  0.0621  0.0017 -0.5331
15527TIP3   OH268071   3.312   1.074  16.011 -0.0909 -0.1723 -0.4486
15527TIP3    H168072   3.279   0.986  15.991  0.3698 -0.4541 -0.0007
15527TIP3    H268073   3.264   1.101  16.089 -1.4230  0.6635 -1.5190
15528TIP3   OH268074   5.078   4.008   4.168 -0.2903 -0.1549 -0.5451
15528TIP3    H168075   5.157   3.987   4.217  0.3854  0.4298 -1.3418
15528TIP3    H268076   5.085   4.102   4.150 -1.3977 -0.0015 -0.2342
15529TIP3   OH268077   0.950   1.744  13.172  0.1295  0.6239 -0.0786
15529TIP3    H168078   0.943   1.685  13.097  0.1726  0.0024  0.4082
15529TIP3    H268079   0.938   1.689  13.248  1.1532  1.0641  0.4238
15530TIP3   OH268080   4.953   3.553   1.059 -0.5635 -0.4972 -0.0154
15530TIP3    H168081   4.976   3.475   1.109  2.1602 -0.8383 -1.5577
15530TIP3    H268082   4.888   3.523   0.996 -1.2579 -0.9483  0.8993
15531TIP3   OH268083   3.903   1.153  17.038 -0.3888  0.0634 -0.2762
15531TIP3    H168084   3.983   1.178  16.991 -0.6902  1.4799 -0.0856
15531TIP3    H268085   3.892   1.221  17.104 -1.7049 -0.1702 -0.2341
15532TIP3   OH268086   1.185   5.062  16.455 -0.3999  0.1670 -0.3116
15532TIP3    H168087   1.216   5.118  16.527 -2.9078  0.4524  0.6467
15532TIP3    H268088   1.183   4.974  16.493  0.0312  0.0131 -0.6404
15533TIP3   OH268089   3.954   5.164   5.418  0.4091 -0.1416  0.3361
15533TIP3    H168090   3.954   5.075   5.454 -0.7747 -0.5836 -0.6969
15533TIP3    H268091   4.016   5.211   5.474  1.6078 -1.7739  0.4797
15534TIP3   OH268092   3.622   6.844  16.197 -0.1517  0.2815  0.0986
15534TIP3    H168093   3.592   6.834  16.107 -0.7458  0.8406  0.2274
15534TIP3    H268094   3.542   6.833  16.250 -0.2165  2.0956  0.4339
15535TIP3   OH268095   1.038   3.539  15.949  0.7443  0.1606  0.5500
15535TIP3    H168096   1.014   3.607  15.886  0.5176 -1.1138 -0.7931
15535TIP3    H268097   1.054   3.587  16.031 -0.1293  1.7398 -0.1497
15536TIP3   OH268098   3.783   0.360   3.475  0.0489 -0.5231  0.6449
15536TIP3    H168099   3.754   0.277   3.439 -2.9145 -0.1487  1.8579
15536TIP3    H268100   3.781   0.421   3.401 -0.3882 -0.9564  0.2968
15537TIP3   OH268101   2.820   5.786  16.100  0.4296  0.0310  0.2520
15537TIP3    H168102   2.737   5.738  16.104 -0.4488  1.5875  2.8512
15537TIP3    H268103   2.880   5.735  16.155  0.9405 -0.5267 -0.7812
15538TIP3   OH268104   5.468   6.303  13.531  0.1999 -0.2404 -0.3276
15538TIP3    H168105   5.534   6.354  13.578  1.1108 -1.7574  0.0955
15538TIP3    H268106   5.414   6.263  13.600  1.0898 -1.8846 -0.5276
15539TIP3   OH268107   1.956   6.202   4.728 -0.4373  0.3088  0.0029
15539TIP3    H168108   1.915   6.129   4.682 -0.2845  0.2245  0.0022
15539TIP3    H268109   1.976   6.168   4.815  0.0056  0.2271 -0.1299
15540TIP3   OH268110   2.027   2.314  14.597 -0.2312  0.1654 -0.5068
15540TIP3    H168111   2.002   2.310  14.505 -0.5082  3.1154 -0.6764
15540TIP3    H268112   2.118   2.286  14.599 -0.0894  0.4842 -1.7626
15541TIP3   OH268113   1.705   0.794  12.661 -1.3214 -0.1720 -0.5946
15541TIP3    H168114   1.722   0.810  12.568 -0.0022  0.1588 -0.3272
15541TIP3    H268115   1.654   0.869  12.690 -0.2327  0.6247 -0.6752
15542TIP3   OH268116   5.654   3.101  10.272  0.1874  0.1599  0.0404
15542TIP3    H168117   5.570   3.068  10.241 -0.1963  0.5224  0.6631
15542TIP3    H268118   5.647   3.196  10.263  1.0889  0.1254 -1.2781
15543TIP3   OH268119   5.090   6.552  12.419 -0.3506 -0.0144  0.3672
15543TIP3    H168120   5.149   6.591  12.354 -0.8409  0.5777  0.2722
15543TIP3    H268121   5.087   6.459  12.395  0.0398  0.0678 -0.0139
15544TIP3   OH268122   6.513   4.731  12.032 -0.8694 -0.7030 -0.2178
15544TIP3    H168123   6.548   4.726  11.943 -2.4375  1.4264 -1.0354
15544TIP3    H268124   6.479   4.820  12.039  1.4080  0.0851  3.4030
15545TIP3   OH268125   2.934   5.354   1.464 -0.2178  0.0861 -0.5607
15545TIP3    H168126   2.859   5.316   1.418 -0.5858  2.3989 -2.0784
15545TIP3    H268127   2.994   5.379   1.394  2.0094 -1.6522  0.6259
15546TIP3   OH268128   4.420   2.982   3.574 -0.1009  0.3564 -0.0478
15546TIP3    H168129   4.415   2.891   3.605 -3.5630  1.0094  1.7477
15546TIP3    H268130   4.338   2.997   3.528  0.7838  2.3872 -1.1054
15547TIP3   OH268131   4.528   6.226   2.006 -0.3491 -0.2418 -0.0506
15547TIP3    H168132   4.500   6.181   1.926 -1.1641  1.2942 -0.6735
15547TIP3    H268133   4.584   6.163   2.051 -3.1667 -2.7234  0.2390
15548TIP3   OH268134   6.025   5.532   4.541  0.3830  0.3925  0.4678
15548TIP3    H168135   6.105   5.484   4.519  0.0612  0.0841 -0.0273
15548TIP3    H268136   5.973   5.470   4.592 -0.3923 -0.0798 -0.8646
15549TIP3   OH268137   5.886   6.543  14.475  0.8311 -0.3489  0.0594
15549TIP3    H168138   5.880   6.460  14.428 -1.8160 -0.3811  0.3071
15549TIP3    H268139   5.954   6.529  14.541  0.4387 -2.3269  0.0898
15550TIP3   OH268140   4.023   1.243   4.585 -0.0694 -0.5409  0.3255
15550TIP3    H168141   3.957   1.312   4.595 -1.8362 -1.7470 -2.0919
15550TIP3    H268142   4.093   1.285   4.534  0.2434  0.2258  1.3418
15551TIP3   OH268143   6.117   0.473   0.970 -0.4409  0.2749 -0.2544
15551TIP3    H168144   6.127   0.474   1.065  0.0198 -0.5818 -0.2842
15551TIP3    H268145   6.106   0.380   0.948 -0.7281  0.4819 -1.0207
15552TIP3   OH268146   6.571   3.718  14.259 -0.2721 -0.4269 -0.1485
15552TIP3    H168147   6.635   3.736  14.190 -0.7328 -0.4887 -0.6054
15552TIP3    H268148   6.515   3.650  14.222 -2.1563  1.3680 -0.8150
15553TIP3   OH268149   0.693   2.247   6.513 -0.3713 -0.6976  0.7799
15553TIP3    H168150   0.645   2.188   6.455  0.2157 -0.6566  0.2392
15553TIP3    H268151   0.699   2.200   6.596  1.6342 -2.2105 -0.1442
15554TIP3   OH268152   2.447   5.776  17.021 -0.7193  0.0551 -0.4963
15554TIP3    H168153   2.380   5.754  16.956 -0.4209  0.0110 -0.7954
15554TIP3    H268154   2.514   5.822  16.971 -0.8246  0.6756 -0.0791
15555TIP3   OH268155   4.279   1.342   2.434  0.0155  0.2187  0.0409
15555TIP3    H168156   4.330   1.287   2.493  0.6085  1.0589  0.3204
15555TIP3    H268157   4.262   1.286   2.358  1.3605 -0.0701 -0.0670
15556TIP3   OH268158   6.408   3.954   0.981  0.5418  0.0023  0.7372
15556TIP3    H168159   6.472   3.886   1.002  1.9974  1.5461  1.5787
15556TIP3    H268160   6.460   4.021   0.936 -1.1459 -0.0983 -1.5147
15557TIP3   OH268161   0.851   5.540   5.752 -0.2916 -0.2791 -0.7638
15557TIP3    H168162   0.938   5.549   5.712  0.4827  1.4517  1.1660
15557TIP3    H268163   0.805   5.621   5.729 -0.8325 -0.4919 -0.4483
15558TIP3   OH268164   3.150   2.307  12.203 -0.0123 -0.5638 -0.4194
15558TIP3    H168165   3.071   2.269  12.165  0.5148 -1.5124 -0.5929
15558TIP3    H268166   3.218   2.242  12.188  0.5897 -0.2037  0.6195
15559TIP3   OH268167   3.636   6.107  12.022 -0.2305 -0.5024  0.2514
15559TIP3    H168168   3.728   6.079  12.031 -0.3009 -1.2092 -0.9246
15559TIP3    H268169   3.591   6.067  12.096 -0.1616 -2.9523 -0.9117
15560TIP3   OH268170   2.588   4.681   2.634 -0.0117 -0.6529  0.1738
15560TIP3    H168171   2.503   4.702   2.597  0.6397  1.9114 -0.0604
15560TIP3    H268172   2.584   4.713   2.724  1.1831  1.0256 -0.3197
15561TIP3   OH268173   1.841   1.292   6.428 -0.3574  0.6521 -0.0043
15561TIP3    H168174   1.900   1.343   6.371  1.3612 -0.4122  0.7398
15561TIP3    H268175   1.780   1.357   6.463  0.8141  1.9534 -0.2485
15562TIP3   OH268176   1.475   6.576  11.354 -0.0078  0.3082  0.6103
15562TIP3    H168177   1.455   6.619  11.437 -2.2269 -0.9855  0.8208
15562TIP3    H268178   1.518   6.494  11.380  1.1670  0.8152  0.3491
15563TIP3   OH268179   5.361   1.869  13.084  0.3097  0.1674 -0.6250
15563TIP3    H168180   5.345   1.778  13.110 -1.3574  0.5068 -0.3109
15563TIP3    H268181   5.296   1.919  13.134  0.3713  1.3874 -1.7332
15564TIP3   OH268182   2.439   2.932   0.155  0.3095 -0.0373 -0.3351
15564TIP3    H168183   2.444   3.026   0.137 -1.1894 -0.1498 -1.5941
15564TIP3    H268184   2.476   2.922   0.243 -2.2308  2.1759  1.1481
15565TIP3   OH268185   1.374   3.950   2.199  0.3102  0.1499  0.1375
15565TIP3    H168186   1.354   3.925   2.109  0.0318 -0.7182  0.4384
15565TIP3    H268187   1.376   4.046   2.197 -0.4555  0.1597 -0.6315
15566TIP3   OH268188   2.308   3.215   5.834 -0.4034  0.7184 -0.2425
15566TIP3    H168189   2.345   3.248   5.752  4.1738  0.7008  1.5178
15566TIP3    H268190   2.283   3.294   5.882  0.9369  1.0358 -0.0329
15567TIP3   OH268191   4.890   5.948   0.436  0.2048 -0.4992  0.2296
15567TIP3    H168192   4.797   5.937   0.417  0.1420  0.8776 -0.4186
15567TIP3    H268193   4.892   6.012   0.507  0.6707  1.1562 -1.2006
15568TIP3   OH268194   1.252   3.242   1.941  0.1562  0.3840 -0.6393
15568TIP3    H168195   1.323   3.305   1.926  1.4428 -0.3126  1.9434
15568TIP3    H268196   1.225   3.259   2.032 -0.5553 -1.7323 -0.4183
15569TIP3   OH268197   1.767   6.156  13.465  0.2100 -0.2344  0.2071
15569TIP3    H168198   1.845   6.210  13.478  0.6403 -0.6978 -0.4090
15569TIP3    H268199   1.772   6.129  13.374 -2.0204  1.8088 -0.6197
15570TIP3   OH268200   3.730   3.938  15.207 -0.5758  0.1773  0.0472
15570TIP3    H168201   3.747   3.882  15.283  0.3375  0.9712  0.4552
15570TIP3    H268202   3.682   3.882  15.146 -0.0377 -0.9211  0.5990
15571TIP3   OH268203   4.225   3.756   2.403 -0.1968  0.1993 -0.0386
15571TIP3    H168204   4.300   3.698   2.397 -1.4353 -1.6054  0.9951
15571TIP3    H268205   4.193   3.764   2.313  0.3565 -0.2081 -0.2750
15572TIP3   OH268206   6.494   0.086  14.463 -0.2242  0.1350  0.2849
15572TIP3    H168207   6.448   0.163  14.429 -0.3286 -0.3779 -0.7704
15572TIP3    H268208   6.437   0.012  14.440  0.7793 -0.4409 -0.4131
15573TIP3   OH268209   1.459   3.634   1.727 -0.0987 -0.3236  0.1223
15573TIP3    H168210   1.506   3.555   1.700 -0.4125  0.0810 -1.8229
15573TIP3    H268211   1.418   3.666   1.646  0.2828  2.0030  0.7728
15574TIP3   OH268212   1.403   3.973   1.357 -0.3393  0.3795  0.2224
15574TIP3    H168213   1.485   3.946   1.315  0.2369  2.9255 -0.5237
15574TIP3    H268214   1.342   3.986   1.285 -0.3192  1.7501  0.4198
15575TIP3   OH268215   4.764   4.101   5.370 -0.3086 -0.2399 -0.0712
15575TIP3    H168216   4.825   4.114   5.298 -0.2238  0.9102  0.1964
15575TIP3    H268217   4.754   4.187   5.410 -1.3934 -0.5914  0.4683
15576TIP3   OH268218   1.121   1.681  15.337 -0.2757  0.1963 -0.3453
15576TIP3    H168219   1.176   1.648  15.409 -0.0990  0.7322 -0.2356
15576TIP3    H268220   1.155   1.637  15.259  0.5291  0.7881 -0.3291
15577TIP3   OH268221   5.508   0.981   4.820 -0.2143  0.7320  0.6538
15577TIP3    H168222   5.512   1.073   4.797 -0.9236  0.8889  1.1384
15577TIP3    H268223   5.526   0.935   4.737 -1.1200  1.2913  0.1353
15578TIP3   OH268224   5.451   1.842  14.887 -0.0993  0.0635  0.6280
15578TIP3    H168225   5.414   1.771  14.939 -0.7917  0.8667  1.2544
15578TIP3    H268226   5.412   1.831  14.800  0.3429 -0.7221  0.5136
15579TIP3   OH268227   6.029   4.025   0.421  0.3169 -0.6598  0.0854
15579TIP3    H168228   5.999   4.050   0.508 -1.6292 -0.2495 -0.6451
15579TIP3    H268229   5.969   3.955   0.394 -1.0074  1.1325 -1.9890
15580TIP3   OH268230   4.740   5.646   0.020  0.0424 -0.0094 -0.2030
15580TIP3    H168231   4.689   5.608   0.092 -0.6650  0.3103 -0.5231
15580TIP3    H268232   4.682   5.713  -0.017  0.7700  0.4791 -0.4693
15581TIP3   OH268233   3.863   1.205   1.923  0.6033  0.3014  0.3744
15581TIP3    H168234   3.823   1.219   1.838 -0.8161 -2.5373  0.4676
15581TIP3    H268235   3.954   1.233   1.912  0.4136  0.1415 -2.0040
15582TIP3   OH268236   3.524   1.654  14.168  0.6352 -0.0559  0.3108
15582TIP3    H168237   3.487   1.729  14.122 -0.3320  0.7180  2.2488
15582TIP3    H268238   3.618   1.658  14.148  0.1963 -0.2912 -2.2395
15583TIP3   OH268239   6.456   2.575   4.043  0.5042 -0.0588  0.3681
15583TIP3    H168240   6.546   2.591   4.018  0.1039  0.4428 -0.8157
15583TIP3    H268241   6.461   2.506   4.109  1.8257  0.7495  1.1525
15584TIP3   OH268242   2.481   4.911  15.824 -0.2797 -0.1832  0.1647
15584TIP3    H168243   2.475   4.995  15.870 -1.1339  1.1040 -2.1499
15584TIP3    H268244   2.572   4.883  15.838 -0.2590  0.5907  1.8090
15585TIP3   OH268245   0.281   6.347   1.428  0.2620  0.0828  0.2309
15585TIP3    H168246   0.191   6.330   1.456  0.3105 -1.9597 -0.7125
15585TIP3    H268247   0.272   6.376   1.337  0.5107  0.8829  0.4526
15586TIP3   OH268248   5.032   1.412   6.366  1.0388 -0.2834  0.3115
15586TIP3    H168249   4.941   1.407   6.336  0.4932 -0.0368  1.8425
15586TIP3    H268250   5.084   1.393   6.288 -0.2972  0.3848 -0.7837
15587TIP3   OH268251   2.120   4.402  16.996 -0.0933 -0.1243 -0.0768
15587TIP3    H168252   2.030   4.393  17.027  0.5234 -1.1464  1.5555
15587TIP3    H268253   2.113   4.452  16.915 -2.0072  0.8370  0.6329
15588TIP3   OH268254   4.227   1.036   4.091  0.2398 -0.2368  0.4955
15588TIP3    H168255   4.266   1.080   4.016  0.9636 -0.8086  0.5210
15588TIP3    H268256   4.171   0.968   4.053 -1.6377  1.2864  0.4377
15589TIP3   OH268257   1.244   5.597   4.553 -0.2619 -0.6117 -0.5646
15589TIP3    H168258   1.265   5.529   4.617 -1.6993  1.6221  2.5581
15589TIP3    H268259   1.330   5.626   4.521  0.7296 -0.5846  1.8327
15590TIP3   OH268260   0.612   4.016  12.830 -0.4043 -0.3128  0.3165
15590TIP3    H168261   0.686   3.998  12.772 -0.7989 -0.9576  0.0071
15590TIP3    H268262   0.640   4.092  12.881  0.8599 -1.1089  0.8774
15591TIP3   OH268263   6.674   5.707   1.138  0.4381  0.0025 -0.0916
15591TIP3    H168264   6.593   5.663   1.113  1.2644 -1.6354 -0.0411
15591TIP3    H268265   6.648   5.773   1.202 -0.7489 -1.1410  0.6411
15592TIP3   OH268266   4.376   6.717   1.878  0.1911  0.2649  0.2274
15592TIP3    H168267   4.340   6.634   1.909  0.8933 -0.1633 -0.0763
15592TIP3    H268268   4.464   6.695   1.846 -0.3980  0.7299 -1.8426
15593TIP3   OH268269   5.433   0.784  12.216  0.6397 -0.5233 -0.0689
15593TIP3    H168270   5.416   0.787  12.122  1.0549 -1.6407 -0.2000
15593TIP3    H268271   5.527   0.797  12.225  0.4586  0.6374  0.2795
15594TIP3   OH268272   0.894   4.405  14.580 -0.1729  0.8923  0.0756
15594TIP3    H168273   0.800   4.409  14.600 -0.7323 -0.6190 -1.8954
15594TIP3    H268274   0.898   4.359  14.496  2.4695 -0.9922  1.1180
15595TIP3   OH268275   5.397   4.328  14.907 -0.2913 -0.1753  0.7153
15595TIP3    H168276   5.368   4.416  14.883  0.6260  0.4360  1.7631
15595TIP3    H268277   5.318   4.274  14.900 -1.0521  0.8937  0.8359
15596TIP3   OH268278   0.573   3.291   4.568  0.4016 -0.0463  0.1109
15596TIP3    H168279   0.529   3.208   4.588 -0.2878  0.5056  0.9770
15596TIP3    H268280   0.555   3.307   4.476 -0.4830 -0.2697  0.2395
15597TIP3   OH268281   5.796   6.598  13.060 -0.7148 -0.7976  0.5457
15597TIP3    H168282   5.726   6.533  13.070 -0.2817 -0.9856  3.0655
15597TIP3    H268283   5.751   6.682  13.066 -1.0409 -0.8563 -0.7867
15598TIP3   OH268284   4.661   2.221   1.841  0.0275  0.1729 -0.0690
15598TIP3    H168285   4.601   2.227   1.915 -0.3934  0.1402 -0.4033
15598TIP3    H268286   4.614   2.263   1.768  0.9497  1.3654 -0.0045
15599TIP3   OH268287   2.251   4.253  15.168 -0.2554  0.2059  0.6393
15599TIP3    H168288   2.249   4.225  15.259 -2.4234  1.6027  1.0856
15599TIP3    H268289   2.257   4.349  15.173 -2.7988  0.5064 -0.5694
15600TIP3   OH268290   1.695   4.433  13.301 -0.3222  0.5534  0.2848
15600TIP3    H168291   1.750   4.359  13.275 -0.4227  0.1620  1.1579
15600TIP3    H268292   1.754   4.508  13.300  0.0609  0.2620  0.5079
15601TIP3   OH268293   2.175   6.163  13.697  0.2788  0.0489  0.6292
15601TIP3    H168294   2.191   6.094  13.633  2.5552  0.1314  1.0072
15601TIP3    H268295   2.085   6.191  13.681  0.2105 -1.1200 -1.3478
15602TIP3   OH268296   1.168   5.504   6.051 -0.3227  0.9495 -0.5174
15602TIP3    H168297   1.086   5.460   6.031 -1.2849  1.4862  1.8274
15602TIP3    H268298   1.170   5.579   5.992 -1.6431  1.0377 -0.4785
15603TIP3   OH268299   6.787   4.709  14.655 -0.2830 -0.2517 -0.3112
15603TIP3    H168300   6.697   4.701  14.622 -0.6330 -2.1384  0.9076
15603TIP3    H268301   6.824   4.783  14.607 -2.5867  0.8021 -0.6127
15604TIP3   OH268302   3.155   2.686   2.844  0.6333  0.2328 -0.2832
15604TIP3    H168303   3.138   2.729   2.761 -0.7362 -1.3195 -0.8543
15604TIP3    H268304   3.103   2.734   2.908  0.4783  0.4807 -0.5980
15605TIP3   OH268305   0.059   3.082   0.380  1.1157 -0.2422  0.3604
15605TIP3    H168306   0.080   2.989   0.368 -0.4033 -0.5224 -0.2492
15605TIP3    H268307   0.045   3.115   0.291  1.8124  0.6401  0.5577
15606TIP3   OH268308   5.765   2.416  13.607  0.0666  0.2188 -0.0934
15606TIP3    H168309   5.736   2.337  13.561  1.5081 -0.1746 -0.3794
15606TIP3    H268310   5.850   2.392  13.644  0.5289  1.6365 -0.1765
15607TIP3   OH268311   0.807   1.355  16.804 -0.1025 -0.7943  0.0314
15607TIP3    H168312   0.840   1.348  16.894 -0.4432 -1.3540  0.1198
15607TIP3    H268313   0.717   1.324  16.809 -0.3206 -0.2344 -0.3947
15608TIP3   OH268314   1.703   5.207  16.161  0.9551 -0.4117  0.0460
15608TIP3    H168315   1.666   5.251  16.085 -1.2479 -2.7147 -0.3281
15608TIP3    H268316   1.698   5.273  16.231  0.9185  1.0028 -1.2350
15609TIP3   OH268317   4.349   6.675   0.575 -0.3973  0.3544  0.0705
15609TIP3    H168318   4.270   6.729   0.569 -0.0869  0.7120 -1.0222
15609TIP3    H268319   4.376   6.682   0.667 -2.0801 -0.4486  0.6876
15610TIP3   OH268320   4.369   6.448   1.974 -0.0858 -0.2805 -0.9386
15610TIP3    H168321   4.430   6.380   2.002 -0.1025 -0.3273 -1.0166
15610TIP3    H268322   4.303   6.450   2.043 -0.4093 -0.7534 -1.2248
15611TIP3   OH268323   1.388   0.794   2.924 -0.2479  0.5242 -0.4174
15611TIP3    H168324   1.350   0.864   2.977 -1.6622 -0.4102 -0.1535
15611TIP3    H268325   1.328   0.720   2.934  1.3188 -0.8295 -0.4829
15612TIP3   OH268326   5.922   5.320   5.008  0.3257  0.0477 -0.1335
15612TIP3    H168327   5.906   5.384   5.078 -2.2114  0.2820 -0.8068
15612TIP3    H268328   5.937   5.238   5.054  1.6110  0.7269  0.7100
15613TIP3   OH268329   2.704   5.463   4.162  0.5513 -0.0408 -0.2460
15613TIP3    H168330   2.700   5.456   4.257  0.8307  0.3502 -0.2053
15613TIP3    H268331   2.788   5.425   4.137  0.3277 -0.4646 -0.3711
15614TIP3   OH268332   0.606   4.528   1.805 -0.1821 -0.5666  0.1036
15614TIP3    H168333   0.576   4.605   1.853 -0.4897 -0.5376 -0.1377
15614TIP3    H268334   0.610   4.555   1.714 -0.6919 -0.9564 -0.0378
15615TIP3   OH268335   2.177   5.454  15.170 -0.4885  0.3198 -0.1228
15615TIP3    H168336   2.117   5.389  15.133 -1.3413  0.6943  0.5585
15615TIP3    H268337   2.228   5.485  15.096 -1.0582 -0.1036 -0.7035
15616TIP3   OH268338   2.178   5.895  14.354  0.3339  0.4401 -0.4426
15616TIP3    H168339   2.152   5.804  14.364  3.5651 -0.8721 -2.4712
15616TIP3    H268340   2.156   5.936  14.437 -0.8822 -2.2762  0.6685
15617TIP3   OH268341   0.502   2.523  13.540  0.6771 -0.3207  1.0416
15617TIP3    H168342   0.463   2.436  13.533 -1.3041  0.6148 -0.5929
15617TIP3    H268343   0.506   2.554  13.450 -1.9293  2.5808  1.7630
15618TIP3   OH268344   1.705   3.974   0.529  0.5167  0.0960 -0.0081
15618TIP3    H168345   1.755   3.919   0.467 -0.3308 -0.8601  0.1220
15618TIP3    H268346   1.614   3.945   0.518 -0.1238  2.2069 -0.6676
15619TIP3   OH268347   1.328   2.049  12.575 -0.6123 -0.4507  0.5116
15619TIP3    H168348   1.290   2.001  12.501  0.2008 -0.2403 -0.0542
15619TIP3    H268349   1.403   1.996  12.602  0.5843  0.6751 -0.4164
15620TIP3   OH268350   2.496   4.199   4.510  0.1215 -0.4291 -0.1705
15620TIP3    H168351   2.568   4.221   4.569  1.0255  2.0714 -2.0457
15620TIP3    H268352   2.435   4.271   4.519 -0.5301 -0.8530 -1.0449
15621TIP3   OH268353   2.189   2.833  13.700 -0.5027  0.5202 -0.0205
15621TIP3    H168354   2.234   2.916  13.688 -0.5364  0.8989  2.1206
15621TIP3    H268355   2.227   2.775  13.635  0.4720  1.8382 -0.6539
15622TIP3   OH268356   2.410   1.284   0.570  0.1458  0.2197 -0.3695
15622TIP3    H168357   2.405   1.379   0.561  0.5958  0.1840 -1.0281
15622TIP3    H268358   2.324   1.259   0.605  0.2692  0.9344  0.4817
15623TIP3   OH268359   2.825   6.824   4.872  0.0342  0.4080  0.0637
15623TIP3    H168360   2.860   6.777   4.796  1.8954 -0.1120  1.1887
15623TIP3    H268361   2.753   6.876   4.836  1.0062  0.3702 -2.1021
15624TIP3   OH268362   4.413   5.651  10.295 -1.2011 -0.4440 -0.3312
15624TIP3    H168363   4.507   5.664  10.282 -1.6825  1.2450 -3.1324
15624TIP3    H268364   4.405   5.611  10.381  2.0619 -0.5324  0.0400
15625TIP3   OH268365   3.553   2.284  16.987  0.2614 -0.0893  0.1064
15625TIP3    H168366   3.608   2.206  16.990  2.0069  1.0841 -0.1165
15625TIP3    H268367   3.511   2.281  16.901  0.5010 -0.6474  0.0058
15626TIP3   OH268368   2.848   2.945   4.326  0.1506  0.4024 -0.4059
15626TIP3    H168369   2.800   2.941   4.409 -0.0798 -0.0155 -0.5565
15626TIP3    H268370   2.940   2.949   4.351  0.0500  0.9719 -0.1162
15627TIP3   OH268371   1.833   0.761   0.334  0.1289 -0.1772 -0.4382
15627TIP3    H168372   1.910   0.816   0.345  0.0315 -0.3842  1.7455
15627TIP3    H268373   1.860   0.675   0.368 -0.4451 -0.8516 -1.6059
15628TIP3   OH268374   2.290   5.821  16.758  0.4485  0.1182  0.2893
15628TIP3    H168375   2.249   5.775  16.684  1.5100 -1.5378  0.6773
15628TIP3    H268376   2.300   5.911  16.727 -1.3257  0.0302 -0.6623
15629TIP3   OH268377   4.299   6.464  15.194  0.3615  0.0119 -0.5197
15629TIP3    H168378   4.209   6.494  15.199  0.4577  0.2719 -0.3436
15629TIP3    H268379   4.321   6.467  15.101  0.5825  1.1103 -0.4387
15630TIP3   OH268380   3.182   5.858   3.524 -0.0528  0.0973  0.1533
15630TIP3    H168381   3.152   5.900   3.443  0.8323  2.1123  0.7841
15630TIP3    H268382   3.273   5.835   3.506 -0.2130 -0.5789  0.1880
15631TIP3   OH268383   3.453   5.343  16.015 -0.0283 -0.1295  0.6253
15631TIP3    H168384   3.446   5.344  15.920  0.5487  0.5399  0.5797
15631TIP3    H268385   3.528   5.286  16.033 -0.5187 -0.7619  0.7198
15632TIP3   OH268386   1.305   4.797  12.191  0.2995  0.3815 -0.2920
15632TIP3    H168387   1.247   4.873  12.191  0.1129  0.2404 -0.3359
15632TIP3    H268388   1.296   4.759  12.278  1.2626  1.0611  0.1256
15633TIP3   OH268389   2.391   3.329   1.358 -0.0314  0.5470 -0.4030
15633TIP3    H168390   2.418   3.237   1.354 -0.9117  0.2790 -0.4963
15633TIP3    H268391   2.467   3.377   1.326 -0.1359 -0.2668 -2.0052
15634TIP3   OH268392   1.732   3.193   1.663  0.8184  0.1904 -0.5994
15634TIP3    H168393   1.664   3.159   1.722  0.6517 -1.9265 -1.9269
15634TIP3    H268394   1.813   3.157   1.698  0.6325 -1.8134 -2.0600
15635TIP3   OH268395   6.394   1.052  16.207  0.5896  0.3297 -0.1060
15635TIP3    H168396   6.346   1.064  16.288  0.3812  1.9389 -0.4343
15635TIP3    H268397   6.415   0.959  16.205 -1.2304 -0.1399  0.7566
15636TIP3   OH268398   0.716   3.427   2.153  0.1548 -0.5155  0.2857
15636TIP3    H168399   0.692   3.392   2.067  0.5208  1.0739 -0.4934
15636TIP3    H268400   0.800   3.471   2.139 -0.4150  0.9170  1.1464
15637TIP3   OH268401   6.076   4.402  12.631 -0.4932 -0.0624  0.4968
15637TIP3    H168402   6.155   4.450  12.654 -0.9660  0.1217  1.8650
15637TIP3    H268403   6.094   4.312  12.655 -0.3967 -0.1694  0.0214
15638TIP3   OH268404   2.388   6.061   3.442 -0.4953 -0.6886 -0.0203
15638TIP3    H168405   2.379   6.046   3.536 -1.1634  0.9594  0.2267
15638TIP3    H268406   2.398   6.156   3.435  2.6486 -1.0221 -1.4038
15639TIP3   OH268407   4.110   4.424   3.571  0.5037 -0.5521  0.3844
15639TIP3    H168408   4.183   4.376   3.610  0.1409 -1.8990 -0.5268
15639TIP3    H268409   4.089   4.492   3.635  1.6176 -1.0446  1.3054
15640TIP3   OH268410   5.227   5.949  13.583  0.6595 -0.0960  0.6326
15640TIP3    H168411   5.238   6.028  13.637 -2.2070 -0.0237  1.2793
15640TIP3    H268412   5.184   5.981  13.503  1.3799 -0.7536 -0.0340
15641TIP3   OH268413   5.691   1.448  13.471 -0.4075 -0.2174  0.7426
15641TIP3    H168414   5.640   1.387  13.524  1.1558 -1.6174  0.7361
15641TIP3    H268415   5.684   1.414  13.382  1.4435 -1.1582  0.9090
15642TIP3   OH268416   6.132   2.407   0.325 -0.0304 -0.5949 -0.5906
15642TIP3    H168417   6.190   2.356   0.268  0.0378 -1.5625  0.3164
15642TIP3    H268418   6.182   2.486   0.345  0.6925 -1.0876 -0.4018
15643TIP3   OH268419   1.316   1.788   6.139 -0.5101 -0.5486 -0.3407
15643TIP3    H168420   1.270   1.718   6.184  0.0736 -0.6435  0.1212
15643TIP3    H268421   1.326   1.857   6.204  1.4334 -1.1702  0.1048
15644TIP3   OH268422   6.405   5.794  16.772 -0.0262 -0.2417  0.2209
15644TIP3    H168423   6.497   5.778  16.791  0.3515  3.1512  2.0935
15644TIP3    H268424   6.364   5.808  16.858 -1.6294  1.1282 -0.6907
15645TIP3   OH268425   4.576   0.107  13.337 -0.0170 -0.3436 -0.4247
15645TIP3    H168426   4.542   0.104  13.248 -1.2246  0.7652 -0.0341
15645TIP3    H268427   4.526   0.041  13.384 -0.6539  0.2957 -0.1805
15646TIP3   OH268428   5.912   2.856  14.530  0.0592  0.2643 -0.0819
15646TIP3    H168429   5.839   2.911  14.559  0.2340  0.4111  0.0949
15646TIP3    H268430   5.983   2.919  14.513  0.2320  0.1024  0.0310
15647TIP3   OH268431   1.008   6.374  12.647 -0.1508  0.3921 -0.1270
15647TIP3    H168432   1.060   6.322  12.585 -0.6593  1.1627 -1.2226
15647TIP3    H268433   0.923   6.331  12.648 -0.8165  1.5813 -1.6158
15648TIP3   OH268434   4.899   5.734  13.661 -0.0890 -0.0806 -0.0230
15648TIP3    H168435   4.860   5.657  13.701  0.5367 -1.0961 -1.2786
15648TIP3    H268436   4.854   5.808  13.701 -0.3393 -1.0729  1.5925
15649TIP3   OH268437   6.437   3.966   0.060 -0.0761 -0.3370 -0.5170
15649TIP3    H168438   6.375   4.039   0.052 -0.8472 -1.0344 -0.9660
15649TIP3    H268439   6.454   3.940  -0.031  1.1398  0.0608 -0.4166
15650TIP3   OH268440   4.980   0.207   0.143  0.1888  0.4613 -0.0525
15650TIP3    H168441   5.061   0.233   0.100  1.5378 -1.0138  1.4688
15650TIP3    H268442   4.934   0.154   0.077  1.3796 -0.2854 -0.3186
15651TIP3   OH268443   5.040   1.976   4.460 -0.1112  0.5281 -0.2132
15651TIP3    H168444   4.976   1.905   4.460 -1.1029  1.4117 -0.3928
15651TIP3    H268445   5.007   2.039   4.397 -0.9454  2.6332  2.1588
15652TIP3   OH268446   4.494   2.399  13.895 -0.4417  0.2816  0.0084
15652TIP3    H168447   4.479   2.475  13.839 -1.1030  0.8246  0.8936
15652TIP3    H268448   4.589   2.395  13.903 -0.3949  1.0056 -0.0707
15653TIP3   OH268449   2.105   5.805   5.947  0.2012  0.0351  0.3590
15653TIP3    H168450   2.056   5.742   5.999 -0.2975  1.2481  1.3916
15653TIP3    H268451   2.119   5.760   5.863 -0.9027 -1.1024  0.7496
15654TIP3   OH268452   2.431   4.170  12.089 -0.7579  0.5680  0.1314
15654TIP3    H168453   2.436   4.086  12.135 -2.3213  1.0093  1.2049
15654TIP3    H268454   2.483   4.230  12.143  1.3309  0.0987 -1.2473
15655TIP3   OH268455   1.661   6.486   0.372  0.2427 -0.8486 -0.1338
15655TIP3    H168456   1.635   6.430   0.445 -2.5289 -0.3844 -0.6707
15655TIP3    H268457   1.651   6.575   0.406 -4.4069 -0.4513 -1.8447
15656TIP3   OH268458   3.735   0.917  11.721  0.4871 -0.3064  0.7479
15656TIP3    H168459   3.778   1.000  11.702  3.1943 -1.3494  1.8504
15656TIP3    H268460   3.770   0.856  11.656 -2.5425 -0.4187 -0.9779
15657TIP3   OH268461   5.460   2.701  10.774  0.3388 -0.6149  0.1653
15657TIP3    H168462   5.489   2.618  10.812  1.8910 -0.9042 -1.5160
15657TIP3    H268463   5.393   2.733  10.835  0.4103 -2.5923  1.3774
15658TIP3   OH268464   0.353   6.685  13.744 -0.2446 -0.0845 -0.5202
15658TIP3    H168465   0.394   6.600  13.731  0.7057  0.5038 -1.5912
15658TIP3    H268466   0.281   6.668  13.804 -0.6599 -1.8213 -1.4354
15659TIP3   OH268467   0.342   2.760  14.289 -0.3616 -0.0993  0.2144
15659TIP3    H168468   0.300   2.844  14.305  1.0459  0.8267 -0.6795
15659TIP3    H268469   0.318   2.738  14.199  0.5801  0.1579 -0.1078
15660TIP3   OH268470   0.836   4.446  12.016 -0.1388  0.1170  0.2333
15660TIP3    H168471   0.816   4.364  12.061  1.1477 -0.7443 -0.6834
15660TIP3    H268472   0.929   4.462  12.036 -0.0275  0.6537 -0.6557
15661TIP3   OH268473   6.265   6.506  11.933  0.1798  0.0060  0.4396
15661TIP3    H168474   6.234   6.483  12.021 -0.1497 -1.1352  0.0420
15661TIP3    H268475   6.210   6.455  11.874  0.9241  0.1619 -0.4057
15662TIP3   OH268476   3.440   2.327   2.738 -0.3939  0.5030  0.3036
15662TIP3    H168477   3.518   2.362   2.781  0.2664  0.5177 -0.8573
15662TIP3    H268478   3.377   2.399   2.740 -0.1288  0.7276  0.6360
15663TIP3   OH268479   6.477   1.276  14.926 -0.2435  0.4597  0.0485
15663TIP3    H168480   6.425   1.204  14.890  1.3395 -0.4583 -0.5348
15663TIP3    H268481   6.556   1.234  14.960  1.3279  2.0036 -1.4680
15664TIP3   OH268482   6.591   5.374   0.378 -0.7984  0.6533  0.5523
15664TIP3    H168483   6.588   5.297   0.322 -0.4064  1.5168 -0.6942
15664TIP3    H268484   6.666   5.360   0.435  0.2379  0.8064 -0.7415
15665TIP3   OH268485   6.766   6.554   5.992  0.2767  0.3542 -0.8650
15665TIP3    H168486   6.810   6.611   6.055  1.4830 -1.1502 -0.2936
15665TIP3    H268487   6.707   6.501   6.045  2.7607 -2.3609 -0.5447
15666TIP3   OH268488   0.945   0.806  12.434 -0.3860 -0.7182  0.3402
15666TIP3    H168489   1.011   0.765  12.489 -1.2939 -0.3679  1.7328
15666TIP3    H268490   0.993   0.835  12.356  1.0330 -0.7369  1.1894
15667TIP3   OH268491   1.545   1.445   3.137  0.2453 -0.0873  0.2264
15667TIP3    H168492   1.500   1.409   3.213 -0.2457  1.2943  0.6178
15667TIP3    H268493   1.554   1.539   3.156 -0.2701  0.3691 -1.5950
15668TIP3   OH268494   2.385   2.162  10.286 -0.1885  0.0785 -0.3316
15668TIP3    H168495   2.368   2.198  10.373  3.1366 -0.8252  0.8819
15668TIP3    H268496   2.391   2.068  10.300  0.1270 -0.1144 -1.6076
15669TIP3   OH268497   6.524   2.924   3.326  0.0183  0.3759  0.2765
15669TIP3    H168498   6.569   2.985   3.269  1.7100  1.0288  2.1959
15669TIP3    H268499   6.592   2.865   3.359 -1.2164 -1.2138  0.1466
15670TIP3   OH268500   1.165   3.150  11.236 -0.1910 -0.5365 -0.8961
15670TIP3    H168501   1.250   3.159  11.279 -0.4765 -1.2529 -0.1632
15670TIP3    H268502   1.187   3.130  11.145  0.4209  0.5037 -0.9997
15671TIP3   OH268503   0.100   1.336   3.149 -0.3382 -0.2276 -0.6223
15671TIP3    H168504   0.027   1.387   3.114 -0.2324  1.0252  0.9049
15671TIP3    H268505   0.159   1.326   3.074 -1.0853  0.5749 -1.3499
15672TIP3   OH268506   3.334   1.875  12.359  0.0356  0.2741 -0.4084
15672TIP3    H168507   3.243   1.847  12.347 -0.2544  0.9983  0.0043
15672TIP3    H268508   3.380   1.842  12.281 -0.5064 -0.3905 -0.4523
15673TIP3   OH268509   4.928   3.525   2.044  0.5866 -0.0723 -0.3419
15673TIP3    H168510   5.001   3.478   2.003  0.3374  0.8678 -1.9902
15673TIP3    H268511   4.964   3.612   2.062  0.5477 -0.3311  1.0988
15674TIP3   OH268512   2.280   1.897   0.233  0.1577 -0.0337  0.0959
15674TIP3    H168513   2.242   1.834   0.172 -0.9780  0.7795 -0.0581
15674TIP3    H268514   2.327   1.959   0.177  0.1064  0.0546  0.1523
15675TIP3   OH268515   0.784   6.348  11.659 -0.1671 -0.1883 -0.4906
15675TIP3    H168516   0.841   6.349  11.582  1.2692  0.5404  0.5402
15675TIP3    H268517   0.724   6.422  11.646  0.2497  0.1013 -0.7900
15676TIP3   OH268518   2.378   2.316   1.188 -0.4718 -0.5606  0.0237
15676TIP3    H168519   2.368   2.243   1.249 -0.6488 -0.7209 -0.1974
15676TIP3    H268520   2.467   2.307   1.153 -0.0109  0.0865  0.9735
15677TIP3   OH268521   3.024   2.559   3.104  0.2976 -0.8518  0.0960
15677TIP3    H168522   2.988   2.569   3.016 -0.2940 -1.9085  0.2027
15677TIP3    H268523   3.107   2.512   3.090  1.5265  1.2159 -0.1086
15678TIP3   OH268524   5.617   2.711  16.484  0.1339  0.3453  0.2029
15678TIP3    H168525   5.643   2.660  16.560 -1.0542  2.0736  1.8575
15678TIP3    H268526   5.555   2.655  16.437 -2.6777  0.8025  3.0179
15679TIP3   OH268527   2.001   0.817   6.106  0.1573 -0.0119 -0.6940
15679TIP3    H168528   1.993   0.723   6.122  0.2713  0.2436  1.0128
15679TIP3    H268529   2.081   0.826   6.053  0.7507 -0.7980  0.0400
15680TIP3   OH268530   2.484   6.662   2.669 -0.0574 -0.5908 -0.0581
15680TIP3    H168531   2.476   6.575   2.630 -0.2453 -0.4449 -0.3461
15680TIP3    H268532   2.568   6.660   2.715 -0.3002 -1.0968  0.3813
15681TIP3   OH268533   2.538   1.839  14.641  0.0134  0.1686  0.5220
15681TIP3    H168534   2.502   1.868  14.557 -0.7886 -0.7568  0.5171
15681TIP3    H268535   2.623   1.801  14.619 -0.2541 -0.1993  0.0972
15682TIP3   OH268536   2.245   0.451  15.574  0.0524 -0.1110 -0.3701
15682TIP3    H168537   2.173   0.483  15.628  0.8543 -0.4325  0.9611
15682TIP3    H268538   2.205   0.389  15.514 -0.6720 -1.0646  1.0283
15683TIP3   OH268539   6.295   3.913  11.312 -0.0435 -0.6430  0.5110
15683TIP3    H168540   6.248   3.830  11.317  0.3755 -0.9438 -0.2239
15683TIP3    H268541   6.232   3.979  11.339 -0.7803 -1.0724 -0.1120
15684TIP3   OH268542   1.046   5.917  15.916 -0.1590  0.0235 -0.2789
15684TIP3    H168543   1.059   5.826  15.944 -1.9706 -0.5778 -1.2531
15684TIP3    H268544   1.010   5.961  15.993  0.8894 -0.0148  0.2516
15685TIP3   OH268545   3.593   6.083   2.617  1.0715  0.4161 -0.0214
15685TIP3    H168546   3.683   6.104   2.590  0.5338  0.6843 -1.7269
15685TIP3    H268547   3.604   6.025   2.692  2.6524  1.4783  0.6269
15686TIP3   OH268548   6.241   0.845   3.026  0.3545 -0.0901  0.1031
15686TIP3    H168549   6.275   0.922   3.072  2.4489 -0.5258 -0.5735
15686TIP3    H268550   6.147   0.861   3.017  0.4619  1.5887  1.4541
15687TIP3   OH268551   4.310   6.268  13.250 -0.4885 -0.1495  0.4466
15687TIP3    H168552   4.376   6.199  13.242  0.6248  0.6959  1.9775
15687TIP3    H268553   4.255   6.239  13.323 -1.3808 -0.4854 -0.3439
15688TIP3   OH268554   0.148   5.875   1.604 -0.5176  0.7579  0.1149
15688TIP3    H168555   0.150   5.889   1.509 -0.8068 -0.8413 -0.1585
15688TIP3    H268556   0.217   5.931   1.638  0.6861  0.1458 -1.2263
15689TIP3   OH268557   5.079   1.033  13.506 -0.0537  0.8106  0.3791
15689TIP3    H168558   5.057   0.984  13.426 -1.5317 -0.7077  1.6133
15689TIP3    H268559   5.056   1.123  13.486  0.2398  0.5754 -1.1330
15690TIP3   OH268560   5.265   4.209  16.812 -0.3372  0.3462 -0.1953
15690TIP3    H168561   5.266   4.206  16.908 -0.9945 -3.0809 -0.1467
15690TIP3    H268562   5.345   4.162  16.787  0.2395  1.8961 -1.3926
15691TIP3   OH268563   1.433   2.753  10.224  0.7031 -0.6604 -0.1047
15691TIP3    H168564   1.480   2.783  10.302  2.4179 -1.6719 -0.6839
15691TIP3    H268565   1.440   2.657  10.227 -2.8386 -1.0300  0.6267
15692TIP3   OH268566   3.792   1.201  11.615 -0.2129 -1.0255 -0.1972
15692TIP3    H168567   3.865   1.223  11.556  0.3149  2.8778  1.5951
15692TIP3    H268568   3.724   1.266  11.594 -0.0907  0.3733  3.1180
15693TIP3   OH268569   5.845   1.596  14.281 -0.0301  0.6163 -0.0924
15693TIP3    H168570   5.934   1.628  14.290  0.7683 -1.2791 -0.7661
15693TIP3    H268571   5.848   1.505  14.312 -1.8807  0.6945  0.4845
15694TIP3   OH268572   1.024   4.913   1.958  0.5708  0.1000 -0.0141
15694TIP3    H168573   1.043   4.887   1.868 -0.0070  1.0452 -0.4327
15694TIP3    H268574   1.101   4.888   2.008  1.0386 -0.1219 -0.8400
15695TIP3   OH268575   0.133   0.945  11.010 -0.8680  0.1858 -0.1021
15695TIP3    H168576   0.209   0.920  11.062 -1.2867 -0.0138  0.4242
15695TIP3    H268577   0.116   0.870  10.953 -1.7207 -0.4890  1.0087
15696TIP3   OH268578   1.036   0.539   4.853 -0.2008  0.3239  0.0097
15696TIP3    H168579   1.117   0.517   4.899 -0.6667  0.0190  0.7078
15696TIP3    H268580   0.970   0.485   4.895 -0.4590 -0.8265 -1.7899
15697TIP3   OH268581   4.863   4.837   2.935  0.4073 -0.2445  0.1053
15697TIP3    H168582   4.919   4.875   3.003  0.5324 -0.6552  0.2288
15697TIP3    H268583   4.774   4.846   2.970  0.1597  2.2706 -0.9494
15698TIP3   OH268584   5.619   1.914   1.991  0.2100  0.2200  0.7698
15698TIP3    H168585   5.690   1.874   1.940 -0.5736  1.5486 -1.5045
15698TIP3    H268586   5.543   1.859   1.974 -0.3021  1.2295 -0.4647
15699TIP3   OH268587   0.844   0.392   4.331 -0.1590  0.3458  0.5752
15699TIP3    H168588   0.931   0.377   4.368  0.1349  1.6298  0.4510
15699TIP3    H268589   0.808   0.464   4.382 -1.0000  0.0805  0.3697
15700TIP3   OH268590   3.417   5.746  14.592 -0.1918  0.6585 -0.5063
15700TIP3    H168591   3.455   5.682  14.531 -0.6105  0.4875 -0.5966
15700TIP3    H268592   3.484   5.812  14.603  0.2683  0.1779 -0.3794
15701TIP3   OH268593   6.056   6.714  13.738  0.2059  0.1757  0.1043
15701TIP3    H168594   6.078   6.763  13.817  0.2293 -0.8943  0.7889
15701TIP3    H268595   6.139   6.674  13.711  0.0499 -0.0539 -0.0366
15702TIP3   OH268596   3.244   0.217  14.860 -0.4803 -0.3698  0.0317
15702TIP3    H168597   3.192   0.180  14.931 -0.0713 -1.0521 -0.0089
15702TIP3    H268598   3.291   0.290  14.900  0.2601 -1.1587  0.6523
15703TIP3   OH268599   1.050   5.453  13.159 -0.5787 -0.4120 -0.0332
15703TIP3    H168600   0.996   5.469  13.237 -1.2180  0.4054 -0.6210
15703TIP3    H268601   1.069   5.359  13.162 -1.6961 -0.6482  0.4239
15704TIP3   OH268602   5.957   4.148  11.990 -0.5439 -0.6252 -0.0633
15704TIP3    H168603   5.999   4.098  12.060  0.3660  0.8603  0.4887
15704TIP3    H268604   5.975   4.239  12.011 -2.9301  0.0310 -0.5361
15705TIP3   OH268605   1.393   0.568   1.473 -0.2132  0.2674 -0.0303
15705TIP3    H168606   1.391   0.482   1.429  2.4234 -0.9272  1.9488
15705TIP3    H268607   1.453   0.620   1.420 -0.6242  0.3947 -0.3777
15706TIP3   OH268608   5.996   5.631   3.086  0.1485  0.0504  0.3688
15706TIP3    H168609   6.008   5.660   3.176 -0.0205  2.3890 -0.2875
15706TIP3    H268610   6.045   5.694   3.033 -2.7994  1.1212 -1.3922
15707TIP3   OH268611   3.469   5.545   6.047  0.2929  0.1670  0.2947
15707TIP3    H168612   3.455   5.479   5.979  0.5055 -0.6629  1.0474
15707TIP3    H268613   3.561   5.536   6.071 -0.2018 -0.7809  1.9483
15708TIP3   OH268614   4.938   1.721  12.005 -0.4829 -0.0984 -0.0653
15708TIP3    H168615   4.995   1.776  12.058 -1.5078  0.7847  0.1721
15708TIP3    H268616   4.903   1.780  11.938  0.0962 -0.9893 -1.1819
15709TIP3   OH268617   5.441   1.785  13.671  0.4013 -0.0388 -0.3335
15709TIP3    H168618   5.408   1.835  13.746  2.7882 -0.1503  0.8889
15709TIP3    H268619   5.432   1.844  13.597  0.9390  1.3402  0.6526
15710TIP3   OH268620   0.484   5.711   1.711 -0.4543  0.3663 -0.8006
15710TIP3    H168621   0.542   5.757   1.772  1.5839 -2.8520 -0.0579
15710TIP3    H268622   0.543   5.665   1.652 -2.3231 -0.8563 -1.8158
15711TIP3   OH268623   1.801   6.744   6.458 -0.4628  0.1774 -0.0768
15711TIP3    H168624   1.859   6.721   6.386 -3.4465  0.6383 -2.8572
15711TIP3    H268625   1.808   6.839   6.465  0.2198  0.0895  0.7138
15712TIP3   OH268626   2.564   4.417   2.989 -0.1670 -0.2235  0.0449
15712TIP3    H168627   2.649   4.404   3.030  0.8893  0.9733 -1.6546
15712TIP3    H268628   2.559   4.347   2.923 -1.2187 -1.2412  1.1457
15713TIP3   OH268629   2.927   1.635  14.916 -0.6470  0.3519  0.1508
15713TIP3    H168630   3.005   1.686  14.892 -0.9327  0.1651 -1.2983
15713TIP3    H268631   2.922   1.642  15.011  1.1855  0.3089  0.2989
15714TIP3   OH268632   5.065   4.698   1.226 -0.2892  0.5078 -0.4257
15714TIP3    H168633   5.049   4.607   1.202 -1.9997  0.8533 -0.7233
15714TIP3    H268634   5.067   4.697   1.322  1.0868 -0.0295 -0.4375
15715TIP3   OH268635   3.324   3.714   4.096  0.1667  0.2545  0.4206
15715TIP3    H168636   3.300   3.630   4.136  1.5023 -0.2236  0.2765
15715TIP3    H268637   3.267   3.778   4.138 -1.8637 -0.8960 -0.4587
15716TIP3   OH268638   6.313   3.945   0.451 -0.5539 -0.1235 -0.7559
15716TIP3    H168639   6.301   3.934   0.545 -0.5601  1.6317 -0.5058
15716TIP3    H268640   6.225   3.940   0.414 -0.7831  0.9492 -0.4121
15717TIP3   OH268641   0.420   3.002   0.649 -0.2698  0.3015 -0.2172
15717TIP3    H168642   0.462   3.028   0.732 -0.9443  0.5752  0.0395
15717TIP3    H268643   0.492   3.002   0.586  0.4230 -0.7244  0.5382
15718TIP3   OH268644   1.292   5.588  12.147 -0.0346 -0.1747  0.1628
15718TIP3    H168645   1.255   5.501  12.160 -0.6851  0.2391  1.2871
15718TIP3    H268646   1.221   5.648  12.169  0.3608  0.6519 -0.7341
15719TIP3   OH268647   2.702   0.448  14.595 -0.0039 -0.2761  0.2481
15719TIP3    H168648   2.730   0.539  14.606 -0.9373  0.0929 -0.2283
15719TIP3    H268649   2.624   0.455  14.539 -0.0727 -1.3736  0.1991
15720TIP3   OH268650   3.607   5.059   0.837  0.4913 -0.3092  0.1190
15720TIP3    H168651   3.533   5.105   0.797  1.1665  2.3026  1.6217
15720TIP3    H268652   3.588   4.967   0.822 -3.0464  0.2185  0.3856
15721TIP3   OH268653   0.612   1.844  15.580  0.1910  0.4684  0.9397
15721TIP3    H168654   0.612   1.808  15.669  1.3678  0.0940  0.8119
15721TIP3    H268655   0.553   1.919  15.584 -0.7674 -0.3004  1.7114
15722TIP3   OH268656   4.092   2.902   1.393 -0.0019  0.0171 -0.3296
15722TIP3    H168657   4.109   2.838   1.324 -0.9554 -0.1743 -0.3925
15722TIP3    H268658   4.147   2.874   1.466  0.6044 -0.0875 -0.8117
15723TIP3   OH268659   3.350   5.792   5.680  0.5484 -0.2061 -0.2576
15723TIP3    H168660   3.333   5.798   5.586 -1.2787 -0.0655  0.0449
15723TIP3    H268661   3.279   5.738   5.714  0.9770  0.0435  1.0921
15724TIP3   OH268662   0.434   4.019  16.290  0.0718 -0.6541 -0.9060
15724TIP3    H168663   0.525   4.037  16.313 -0.1945  0.1497 -0.4268
15724TIP3    H268664   0.432   4.021  16.195  0.4564 -0.1209 -0.9080
15725TIP3   OH268665   4.684   1.118   5.558  0.2212  0.0371 -0.2406
15725TIP3    H168666   4.606   1.062   5.553  0.0628 -0.0087  1.8527
15725TIP3    H268667   4.650   1.207   5.546  0.0652 -0.0893 -0.7732
15726TIP3   OH268668   4.635   1.820  16.675 -0.0166 -0.0366  0.0829
15726TIP3    H168669   4.609   1.889  16.736 -0.8408 -1.2341  1.1467
15726TIP3    H268670   4.568   1.823  16.606  0.1714  0.4598 -0.0848
15727TIP3   OH268671   4.792   5.177   1.510  0.1568 -0.3633  0.0446
15727TIP3    H168672   4.871   5.183   1.456 -0.5916 -1.0481 -1.1881
15727TIP3    H268673   4.740   5.109   1.467 -1.9055  1.3132 -0.2329
15728TIP3   OH268674   4.063   1.619  13.936 -0.1967 -0.1795  0.1583
15728TIP3    H168675   4.074   1.533  13.894  0.7857  0.0338 -0.0396
15728TIP3    H268676   3.997   1.604  14.004 -0.8528 -0.8299 -0.6080
15729TIP3   OH268677   0.781   2.423   5.923 -0.3465  0.0177  0.0472
15729TIP3    H168678   0.816   2.432   6.011 -1.1457 -1.2542  0.5192
15729TIP3    H268679   0.834   2.353   5.883 -1.6353 -1.2343  0.4347
15730TIP3   OH268680   0.261   2.594   5.658  0.2475  0.0615 -0.0655
15730TIP3    H168681   0.238   2.618   5.568  0.4817 -1.0073 -0.4247
15730TIP3    H268682   0.302   2.507   5.650  0.0648 -0.1443  1.0952
15731TIP3   OH268683   2.576   3.896   2.151 -0.5117  0.3906  1.1046
15731TIP3    H168684   2.572   3.838   2.075  0.7415  2.4446 -0.6373
15731TIP3    H268685   2.492   3.942   2.151 -0.2879  0.8066  0.5883
15732TIP3   OH268686   3.800   6.102  12.335 -0.6522 -0.4036  0.6023
15732TIP3    H168687   3.739   6.029  12.325 -0.3062 -0.6236  0.0333
15732TIP3    H268688   3.744   6.179  12.350 -1.2673 -0.1338 -2.4051
15733TIP3   OH268689   6.353   1.505  14.014  0.5258 -0.0175 -0.2049
15733TIP3    H168690   6.309   1.431  13.972  0.6997 -0.1074 -0.2312
15733TIP3    H268691   6.289   1.576  14.011  0.3376 -0.1838 -0.1295
15734TIP3   OH268692   0.775   1.407   5.377  0.1318 -0.7058 -0.0211
15734TIP3    H168693   0.708   1.339   5.374  0.9167 -1.6273  1.8373
15734TIP3    H268694   0.735   1.477   5.428  0.4668 -1.1695  0.9068
15735TIP3   OH268695   0.478   4.605   5.783  1.0208  0.3389 -0.2115
15735TIP3    H168696   0.446   4.515   5.775  0.4805  0.4351  0.6926
15735TIP3    H268697   0.573   4.597   5.773  1.0429 -0.4258  0.4473
15736TIP3   OH268698   5.313   3.759   3.777  0.3072 -0.4691 -0.0723
15736TIP3    H168699   5.378   3.822   3.809 -1.0627 -0.6021  3.4020
15736TIP3    H268700   5.237   3.812   3.754  0.6221 -0.5520 -1.3762
15737TIP3   OH268701   1.608   6.763   1.365  0.1356 -0.2174 -0.0419
15737TIP3    H168702   1.667   6.748   1.439 -0.0930  3.4823  1.0667
15737TIP3    H268703   1.521   6.739   1.398  0.1098  0.9212  0.7765
15738TIP3   OH268704   2.410   1.463  16.105  0.0242 -0.5548 -0.1857
15738TIP3    H168705   2.502   1.435  16.108  0.6683  1.4549  0.2965
15738TIP3    H268706   2.382   1.460  16.196  0.4366  1.3054  0.0275
15739TIP3   OH268707   5.488   2.485   5.503 -0.5874 -0.5857  0.0701
15739TIP3    H168708   5.505   2.406   5.555 -2.7046 -0.6389  0.7960
15739TIP3    H268709   5.492   2.455   5.412  1.8100 -0.7823  0.1600
15740TIP3   OH268710   2.701   2.106   0.912  0.1301  0.0662 -0.2868
15740TIP3    H168711   2.733   2.124   1.001 -1.3081  1.4885 -0.0057
15740TIP3    H268712   2.719   2.186   0.863 -0.7529 -0.0160 -0.7731
15741TIP3   OH268713   4.995   2.654  15.603  0.2405 -0.7221 -0.3819
15741TIP3    H168714   4.936   2.605  15.546 -2.1231  0.0554  1.2297
15741TIP3    H268715   4.938   2.686  15.673  1.5048  4.3801 -1.3220
15742TIP3   OH268716   2.502   2.331  14.974  0.0065  0.0343  0.7705
15742TIP3    H168717   2.564   2.280  15.026  1.0099  0.3554 -0.0943
15742TIP3    H268718   2.441   2.266  14.939  0.3578 -0.3819  0.9270
15743TIP3   OH268719   0.205   1.154   1.166 -0.0643  0.2637 -0.5472
15743TIP3    H168720   0.284   1.124   1.123 -0.0211 -0.1032 -0.2204
15743TIP3    H268721   0.181   1.234   1.120  0.9256  0.8037 -0.1475
15744TIP3   OH268722   4.110   4.465   5.195 -0.2739  0.1688  0.5277
15744TIP3    H168723   4.032   4.413   5.176 -0.8020  1.2754 -0.4881
15744TIP3    H268724   4.177   4.433   5.135 -0.3424  0.1086  0.4844
15745TIP3   OH268725   3.240   1.991  14.378 -0.2478 -0.2381  0.1593
15745TIP3    H168726   3.326   1.949  14.370  0.3210  0.3248  2.6105
15745TIP3    H268727   3.195   1.968  14.297  1.7063 -1.6891 -0.6000
15746TIP3   OH268728   2.402   3.872   3.134 -0.4402 -0.0817 -0.6273
15746TIP3    H168729   2.421   3.868   3.040  0.6347  0.6756 -0.4674
15746TIP3    H268730   2.413   3.964   3.156 -0.5987 -0.2694  0.2548
15747TIP3   OH268731   4.971   5.270   6.176 -0.1919  0.3163  0.3864
15747TIP3    H168732   5.010   5.262   6.263  1.3356 -0.4151 -0.3285
15747TIP3    H268733   5.012   5.348   6.138 -1.5569  1.1903  0.6438
15748TIP3   OH268734   4.803   4.920  16.406  0.2963  0.3643  0.3049
15748TIP3    H168735   4.752   4.967  16.472 -2.0502  0.3811 -1.4040
15748TIP3    H268736   4.764   4.946  16.323  3.1016  0.2958 -1.1455
15749TIP3   OH268737   5.184   2.336   3.988 -0.3481  0.0104  0.2283
15749TIP3    H168738   5.227   2.285   3.920 -0.4069  0.4090 -0.1085
15749TIP3    H268739   5.253   2.391   4.025 -0.5060  0.4576 -0.1326
15750TIP3   OH268740   3.085   3.539   3.327  0.3462 -0.2384  0.2272
15750TIP3    H168741   3.170   3.506   3.297 -0.0804 -0.3989 -0.8566
15750TIP3    H268742   3.067   3.613   3.268  0.3135  0.6092  1.2697
15751TIP3   OH268743   4.819   3.857   5.544  0.4527 -0.1565  0.1611
15751TIP3    H168744   4.786   3.911   5.472  0.2636 -1.4614 -0.7782
15751TIP3    H268745   4.806   3.910   5.622  1.2022  1.5531 -0.8150
15752TIP3   OH268746   3.856   1.407   2.619  0.2125 -0.3785  0.2923
15752TIP3    H168747   3.781   1.371   2.667  0.2878  1.6895  2.1091
15752TIP3    H268748   3.928   1.401   2.682  0.9120  0.1796 -0.4521
15753TIP3   OH268749   1.735   6.496  13.733 -0.7816  0.0785 -0.2506
15753TIP3    H168750   1.646   6.461  13.725 -0.6865 -0.5985  1.3650
15753TIP3    H268751   1.790   6.433  13.687 -1.2378  1.2912 -2.6496
15754TIP3   OH268752   4.646   5.053   2.701 -0.3621  0.1866 -0.1385
15754TIP3    H168753   4.668   5.140   2.668 -1.0350 -0.1431 -1.5464
15754TIP3    H268754   4.728   5.018   2.736  0.3812  0.6185 -1.4048
15755TIP3   OH268755   3.268   2.051  11.612  0.0230  0.1715 -0.6851
15755TIP3    H168756   3.303   1.964  11.592 -3.0408 -1.2217 -0.5756
15755TIP3    H268757   3.242   2.087  11.527 -0.4890  0.1436 -0.5428
15756TIP3   OH268758   3.574   1.040   0.259 -0.3730 -0.2041 -0.2226
15756TIP3    H168759   3.520   0.967   0.289  1.2839 -1.0427  0.9127
15756TIP3    H268760   3.575   1.101   0.333  0.1867 -0.1878 -0.2368
15757TIP3   OH268761   0.979   6.569  16.647 -0.4465  0.3684 -0.1186
15757TIP3    H168762   1.013   6.496  16.596 -3.8307 -0.7122 -1.1184
15757TIP3    H268763   0.998   6.546  16.738  3.1720  0.9487 -0.5778
15758TIP3   OH268764   5.502   5.263   4.033  0.5585  0.4869 -0.0250
15758TIP3    H168765   5.575   5.319   4.009  0.5400  0.2922 -0.5560
15758TIP3    H268766   5.441   5.320   4.080  0.6003  0.8820 -0.4496
15759TIP3   OH268767   0.960   1.816  11.428 -0.0438  0.7872 -0.0572
15759TIP3    H168768   1.001   1.753  11.369 -2.3271  0.1418 -1.0624
15759TIP3    H268769   1.009   1.808  11.509 -0.5125 -2.6799  0.0392
15760TIP3   OH268770   1.119   4.980   5.090  0.4039 -0.1625 -0.4309
15760TIP3    H168771   1.118   4.984   5.186  0.4909  0.4435 -0.4512
15760TIP3    H268772   1.204   5.017   5.066  1.0967 -1.8197 -0.6875
15761TIP3   OH268773   2.095   0.572   5.523  0.4289  0.6416 -0.3705
15761TIP3    H168774   2.185   0.581   5.555 -0.0239  1.5216  0.7292
15761TIP3    H268775   2.048   0.645   5.563 -1.2694 -1.0483  0.8733
15762TIP3   OH268776   0.034   1.832   3.021  0.3361 -0.0936 -0.0263
15762TIP3    H168777   0.079   1.794   3.096  0.2307 -0.8748 -0.3577
15762TIP3    H268778  -0.055   1.847   3.052  0.5641  0.5849  0.3335
15763TIP3   OH268779   0.873   5.528  15.445  0.1178  0.2971  0.2040
15763TIP3    H168780   0.900   5.494  15.530  1.0423 -1.4768 -0.7404
15763TIP3    H268781   0.918   5.612  15.437  1.6716 -0.4615  0.6303
15764TIP3   OH268782   1.014   2.093  11.578  0.1718 -0.2071  0.4635
15764TIP3    H168783   1.051   2.152  11.514  0.6318 -0.3420  0.6010
15764TIP3    H268784   0.945   2.045  11.531  0.5690 -0.3733  0.0478
15765TIP3   OH268785   0.942   4.788  12.104  0.4989 -0.2721 -0.5089
15765TIP3    H168786   0.987   4.709  12.131 -1.3796 -0.7617  1.4131
15765TIP3    H268787   0.956   4.792  12.009  0.4003 -3.0540 -0.7151
15766TIP3   OH268788   0.662   1.823  11.084  0.3221  0.7873  0.4236
15766TIP3    H168789   0.742   1.778  11.058  0.1650 -0.4917  2.0172
15766TIP3    H268790   0.667   1.908  11.040  2.6538  0.8320  0.6485
15767TIP3   OH268791   1.966   0.351   0.062 -0.4875 -0.3199  0.2589
15767TIP3    H168792   1.878   0.367   0.028 -0.1457  1.4485  0.1062
15767TIP3    H268793   2.021   0.414   0.017  0.7897 -1.0692  0.7132
15768TIP3   OH268794   0.043   3.347   2.615  0.2686  0.0158  0.8002
15768TIP3    H168795   0.074   3.271   2.665  0.5964 -0.8187 -0.6082
15768TIP3    H268796   0.105   3.354   2.542 -0.2498  1.1434  0.4487
15769TIP3   OH268797   1.187   6.515  11.603 -0.4473  0.0209 -0.3442
15769TIP3    H168798   1.272   6.472  11.596  0.1065  1.0974 -0.5460
15769TIP3    H268799   1.158   6.526  11.512  0.0262  1.2126 -0.3635
15770TIP3   OH268800   1.315   3.471  13.225  0.6219 -0.2418 -0.1545
15770TIP3    H168801   1.274   3.403  13.277 -1.7578  2.3862  1.7268
15770TIP3    H268802   1.355   3.530  13.289  2.8175  0.0931 -1.7057
15771TIP3   OH268803   5.317   4.354   2.218  0.0718 -0.0094  0.3581
15771TIP3    H168804   5.377   4.422   2.250 -0.2543  1.1011 -1.2233
15771TIP3    H268805   5.365   4.272   2.229  1.4136  0.7231  0.2154
15772TIP3   OH268806   1.588   1.196   0.327  0.1157 -0.0373 -0.5436
15772TIP3    H168807   1.671   1.240   0.312  0.5530 -0.2596  1.0836
15772TIP3    H268808   1.609   1.103   0.325  0.0139 -0.0853  0.4317
15773TIP3   OH268809   1.282   4.594  13.169  0.0695  0.5534 -0.4159
15773TIP3    H168810   1.334   4.638  13.236 -1.8322  0.4979  1.1903
15773TIP3    H268811   1.211   4.552  13.217 -1.0634  0.0090 -2.4272
15774TIP3   OH268812   5.276   3.024  16.296 -0.0011  0.0521  0.0906
15774TIP3    H168813   5.189   3.006  16.332  0.1076  0.1061  0.3761
15774TIP3    H268814   5.306   3.101  16.343  0.3507 -0.1746  0.2446
15775TIP3   OH268815   5.548   1.492  16.438  0.1608 -0.0823  0.0284
15775TIP3    H168816   5.505   1.411  16.411  1.7151 -0.2494 -2.1906
15775TIP3    H268817   5.482   1.537  16.491 -0.9180 -2.5415  0.9681
15776TIP3   OH268818   0.894   4.287  12.264  0.2721 -0.1464 -0.2807
15776TIP3    H168819   0.935   4.202  12.247 -1.6718 -0.9743 -1.1410
15776TIP3    H268820   0.820   4.267  12.322 -0.1990  0.9672 -0.4722
15777TIP3   OH268821   3.943   4.911   2.457 -0.6974  0.3592  0.1871
15777TIP3    H168822   3.917   4.836   2.510 -1.0792  0.1083 -0.3485
15777TIP3    H268823   3.945   4.985   2.518  2.3063 -0.5268  1.3412
15778TIP3   OH268824   5.558   6.171  15.232 -0.1914  0.1142  0.4163
15778TIP3    H168825   5.547   6.254  15.277  0.2610 -0.6965  2.1321
15778TIP3    H268826   5.653   6.154  15.236 -0.3293 -0.6998  0.5601
15779TIP3   OH268827   6.468   1.970   5.125  0.1281 -0.0196 -0.4029
15779TIP3    H168828   6.399   2.037   5.129 -0.1763 -0.3325 -0.3408
15779TIP3    H268829   6.474   1.937   5.215 -0.2809 -0.6319 -0.5977
15780TIP3   OH268830   6.211   5.669  17.128 -0.1956 -0.0696  0.1434
15780TIP3    H168831   6.167   5.584  17.124  0.9226 -0.6480 -0.2990
15780TIP3    H268832   6.225   5.684  17.222 -0.7624 -0.1783  0.2475
15781TIP3   OH268833   5.420   2.885   0.126  0.2749  0.3610 -0.5338
15781TIP3    H168834   5.435   2.803   0.080  1.0992  0.8310 -1.1316
15781TIP3    H268835   5.463   2.873   0.211  0.9681  0.3844 -0.8666
15782TIP3   OH268836   4.236   3.847  16.282  0.8728 -0.1991  0.0128
15782TIP3    H168837   4.242   3.796  16.363  3.3163  0.2187  0.1634
15782TIP3    H268838   4.143   3.864  16.272  0.4546 -0.5709  2.5531
15783TIP3   OH268839   3.130   3.970  15.276  0.4534  0.1868  0.3968
15783TIP3    H168840   3.196   3.904  15.255  2.2103  1.8826  0.3202
15783TIP3    H268841   3.171   4.022  15.346 -1.3403  0.5341  1.2366
15784TIP3   OH268842   1.792   0.067   2.203 -0.0511  0.2286  0.8013
15784TIP3    H168843   1.759   0.017   2.277 -0.9851  0.8188  0.8095
15784TIP3    H268844   1.815   0.152   2.239 -2.4157  1.2330  0.1336
15785TIP3   OH268845   4.344   1.229   0.297 -0.1622 -0.0877 -0.3119
15785TIP3    H168846   4.257   1.219   0.257  0.1037 -1.8299 -0.5304
15785TIP3    H268847   4.375   1.140   0.309  1.6285  0.5001 -0.2642
15786TIP3   OH268848   3.937   5.490   0.411  0.3655 -0.8679  0.4040
15786TIP3    H168849   3.960   5.488   0.504 -2.2727  3.0276  1.3970
15786TIP3    H268850   3.981   5.569   0.378 -1.7426 -0.0552 -0.6080
15787TIP3   OH268851   3.587   0.747   5.816  0.0641  0.0609  0.1735
15787TIP3    H168852   3.602   0.715   5.727 -0.2478 -0.9154  0.4604
15787TIP3    H268853   3.551   0.672   5.863  1.0591  0.2883  1.3659
15788TIP3   OH268854   3.888   4.664   6.213  0.2362  0.2858  0.2839
15788TIP3    H168855   3.928   4.631   6.293  1.0787 -0.8067 -0.5590
15788TIP3    H268856   3.800   4.627   6.213 -0.2062  1.2852  1.2877
15789TIP3   OH268857   4.826   3.026  16.663 -0.3325 -0.4699  0.1685
15789TIP3    H168858   4.759   3.010  16.729  0.7809 -0.6964  1.2696
15789TIP3    H268859   4.907   2.992  16.702  0.8024  1.5618 -0.3081
15790TIP3   OH268860   3.572   4.530   4.380  0.0017 -0.0541  0.2065
15790TIP3    H168861   3.483   4.565   4.389  0.2195  0.9584 -1.1117
15790TIP3    H268862   3.566   4.440   4.410 -1.6361 -0.2016 -0.4574
15791TIP3   OH268863   1.976   6.152  11.463 -0.2711  0.5658  0.4810
15791TIP3    H168864   1.905   6.212  11.485  0.7547  1.8369  0.3770
15791TIP3    H268865   1.943   6.104  11.386 -0.7100  1.7192 -0.0823
15792TIP3   OH268866   3.428   1.398   1.142 -0.4993  0.1546  0.0100
15792TIP3    H168867   3.354   1.425   1.198  0.1096  0.3050  0.7637
15792TIP3    H268868   3.503   1.445   1.178 -0.1662  0.6346 -1.2510
15793TIP3   OH268869   0.279   1.343   6.169 -0.1582  0.4415 -0.5171
15793TIP3    H168870   0.200   1.378   6.126 -0.4657  2.2950  1.3971
15793TIP3    H268871   0.261   1.352   6.262  1.7750 -0.4218 -0.0309
15794TIP3   OH268872   2.798   5.143  16.207 -0.3816 -0.4042  0.0546
15794TIP3    H168873   2.834   5.222  16.247 -0.3416 -0.5891  0.3852
15794TIP3    H268874   2.703   5.151  16.218 -0.5265  0.4505 -1.4930
15795TIP3   OH268875   4.641   1.139  12.340  0.2881 -0.3483  0.0746
15795TIP3    H168876   4.735   1.135  12.361  0.1871 -1.5041  0.3593
15795TIP3    H268877   4.634   1.097  12.255  0.0873  0.2121 -0.1885
15796TIP3   OH268878   2.113   5.853   4.422  0.1541  0.3596 -0.1993
15796TIP3    H168879   2.163   5.810   4.491  1.1376 -3.9280 -3.2192
15796TIP3    H268880   2.176   5.909   4.377  0.0079  1.5191  0.9605
15797TIP3   OH268881   3.096   2.003   1.599  0.5581  0.4613  0.2054
15797TIP3    H168882   3.147   2.055   1.662  0.3794  1.2315 -0.2774
15797TIP3    H268883   3.097   2.054   1.519 -1.1509  0.6054  0.2415
15798TIP3   OH268884   1.143   4.186   1.337  0.3861  0.4878 -0.0404
15798TIP3    H168885   1.058   4.227   1.321 -0.2058  1.1157  3.7248
15798TIP3    H268886   1.195   4.255   1.379  1.4907 -0.8511  0.8789
15799TIP3   OH268887   2.299   4.652   2.595 -0.1260  0.0734 -0.0479
15799TIP3    H168888   2.344   4.568   2.603  0.1887  0.2787  0.3798
15799TIP3    H268889   2.216   4.630   2.553 -0.4735 -0.6183  0.9428
15800TIP3   OH268890   2.394   6.750   1.995 -0.0622  0.1902 -0.1473
15800TIP3    H168891   2.309   6.720   2.028  0.1179  0.4229  0.5448
15800TIP3    H268892   2.407   6.835   2.036  0.1317  0.5255 -0.9048
15801TIP3   OH268893   4.039   3.903   2.563  0.1898  0.5932 -0.3436
15801TIP3    H168894   4.116   3.876   2.513  0.0811  2.0365 -1.3551
15801TIP3    H268895   4.067   3.900   2.654  0.8834 -0.5755 -0.5775
15802TIP3   OH268896   3.511   0.226  11.758 -0.6896  0.4530 -0.0609
15802TIP3    H168897   3.417   0.244  11.759 -0.8618 -0.2876  1.8594
15802TIP3    H268898   3.531   0.207  11.667 -2.0502  2.3059 -0.8025
15803TIP3   OH268899   0.046   3.514  13.785 -0.3842  0.0695  0.0706
15803TIP3    H168900   0.008   3.506  13.697  1.9238 -2.1002 -0.8627
15803TIP3    H268901   0.032   3.429  13.826 -0.4466  0.6976  1.4148
15804TIP3   OH268902   3.528   0.891   1.634  0.7821 -0.6371 -0.5538
15804TIP3    H168903   3.489   0.966   1.589 -0.4438 -0.9406 -0.0109
15804TIP3    H268904   3.605   0.927   1.678 -0.1111  0.4185  0.1744
15805TIP3   OH268905   5.447   1.527   4.895 -0.4955 -0.3562  0.3116
15805TIP3    H168906   5.356   1.496   4.894 -0.2847 -1.0522 -2.0354
15805TIP3    H268907   5.467   1.545   4.803  1.2829  1.2336  0.9482
15806TIP3   OH268908   5.051   3.820   2.283  0.0834 -0.2601 -0.4829
15806TIP3    H168909   4.976   3.766   2.309 -0.0715 -0.3315 -1.0575
15806TIP3    H268910   5.029   3.850   2.194  1.0948 -0.9324 -0.9800
15807TIP3   OH268911   5.022   2.418  16.891  0.2924  0.3931 -0.5625
15807TIP3    H168912   5.033   2.509  16.865 -1.0450  0.2688 -1.6704
15807TIP3    H268913   5.044   2.367  16.813 -2.2716 -0.0430 -1.1031
15808TIP3   OH268914   2.480   2.608  14.375 -0.1707  0.3191 -0.2346
15808TIP3    H168915   2.428   2.689  14.376  0.4086  0.6963  0.7668
15808TIP3    H268916   2.426   2.546  14.326 -2.6832  0.0030  2.6230
15809TIP3   OH268917   0.442   1.229   4.861  0.1991  0.1990 -0.2619
15809TIP3    H168918   0.469   1.228   4.769 -1.3661 -1.3142 -0.7596
15809TIP3    H268919   0.384   1.304   4.867 -1.6429 -1.0778 -1.1797
15810TIP3   OH268920   1.921   4.874  15.008 -0.4497 -0.0828  0.0916
15810TIP3    H168921   1.939   4.873  15.102  0.3962  0.1113 -0.0653
15810TIP3    H268922   2.005   4.856  14.967 -0.5564  1.0515 -0.6691
15811TIP3   OH268923   2.084   5.497  12.068 -0.5631  0.2291  0.2089
15811TIP3    H168924   2.136   5.424  12.033 -0.6277 -0.6522  1.8500
15811TIP3    H268925   2.023   5.519  11.997  2.1397  1.5195 -1.9372
15812TIP3   OH268926   2.818   2.367  15.013 -0.0549  0.4466 -0.5183
15812TIP3    H168927   2.834   2.418  14.933  1.4732 -0.2423 -0.6961
15812TIP3    H268928   2.781   2.284  14.981  0.6734  0.1219 -0.5386
15813TIP3   OH268929   1.563   5.472   3.141 -0.3970  0.0564 -0.4491
15813TIP3    H168930   1.653   5.471   3.174 -0.3644  0.1095 -0.5325
15813TIP3    H268931   1.508   5.471   3.219 -0.3436 -1.1661 -0.4037
15814TIP3   OH268932   0.785   4.771   1.857 -0.5479  0.2121  0.2580
15814TIP3    H168933   0.856   4.714   1.826  0.1162  1.2438 -0.1683
15814TIP3    H268934   0.823   4.817   1.933 -1.5770 -0.9829  1.5565
15815TIP3   OH268935   2.482   1.914  14.906  0.0295 -0.7001  0.4596
15815TIP3    H168936   2.504   1.884  14.818  0.7812 -0.9552  0.7305
15815TIP3    H268937   2.508   1.842  14.963  1.4993  0.2916  1.0832
15816TIP3   OH268938   1.063   0.995  10.772 -0.4911 -1.0822 -0.3835
15816TIP3    H168939   1.130   1.014  10.838 -0.4406 -0.8351 -0.5046
15816TIP3    H268940   1.005   0.932  10.815  0.9479 -2.8927 -0.9681
15817TIP3   OH268941   2.462   2.201   1.997 -0.0596  0.2897  0.1176
15817TIP3    H168942   2.556   2.186   1.990 -0.1872 -0.7214  0.3819
15817TIP3    H268943   2.429   2.185   1.909 -0.2336 -1.4264  0.4586
15818TIP3   OH268944   0.736   5.022  15.830 -0.1064  0.1986  0.0926
15818TIP3    H168945   0.774   5.080  15.764  0.6016 -0.3400  0.0178
15818TIP3    H268946   0.703   4.947  15.781  2.4070 -1.2897  0.4620
15819TIP3   OH268947   5.421   2.884   4.451 -0.5521  0.0864  0.1368
15819TIP3    H168948   5.497   2.942   4.446 -1.7011  1.6172 -0.3368
15819TIP3    H268949   5.389   2.893   4.541  0.2264 -1.1328  0.5607
15820TIP3   OH268950   0.121   4.104  11.532 -0.2339 -0.2816 -0.3629
15820TIP3    H168951   0.162   4.190  11.537 -0.2449 -0.2654 -0.5479
15820TIP3    H268952   0.035   4.116  11.572  1.1509 -1.0924  3.2806
15821TIP3   OH268953   3.742   4.430   0.152 -0.4083  0.1196 -0.7264
15821TIP3    H168954   3.764   4.373   0.225  0.8231  1.2172 -0.1974
15821TIP3    H268955   3.818   4.427   0.095 -0.0348  1.6737 -0.3687
15822TIP3   OH268956   1.132   3.105   5.717 -0.1360 -0.3079  0.9469
15822TIP3    H168957   1.216   3.146   5.741 -0.6465  2.9065 -1.9901
15822TIP3    H268958   1.076   3.122   5.793  0.6766  1.5268  1.2118
15823TIP3   OH268959   1.690   0.816   2.947  0.3263 -0.6871  0.0798
15823TIP3    H168960   1.741   0.746   2.907  0.1016 -1.1329  0.5702
15823TIP3    H268961   1.599   0.785   2.944 -0.4015  1.2284 -3.3174
15824TIP3   OH268962   0.132   2.954  11.275  0.0283 -0.4354 -0.4993
15824TIP3    H168963   0.069   2.949  11.347  0.0184  1.5336 -0.3129
15824TIP3    H268964   0.204   3.007  11.310  0.5343 -0.3820 -1.5844
15825TIP3   OH268965   2.587   5.023  15.010 -0.4276 -0.1966 -0.1425
15825TIP3    H168966   2.681   5.014  14.993 -0.4303  1.3777 -1.2276
15825TIP3    H268967   2.582   5.072  15.092 -0.3490 -1.8828  0.9078
15826TIP3   OH268968   2.899   3.374   2.683  0.2115 -0.0119 -0.3652
15826TIP3    H168969   2.957   3.331   2.621  0.2205 -1.5415  0.6580
15826TIP3    H268970   2.816   3.383   2.637  0.5951  0.1000 -1.0462
15827TIP3   OH268971   3.931   4.980   2.079 -0.1399  0.1417 -0.1581
15827TIP3    H168972   3.931   4.885   2.064  2.2032 -0.4073  2.4194
15827TIP3    H268973   3.862   4.995   2.143  1.3910 -0.3886  1.7043
15828TIP3   OH268974   2.256   4.396  13.678 -0.8672  0.2313  0.2887
15828TIP3    H168975   2.203   4.473  13.657 -0.1049  0.5674 -0.4236
15828TIP3    H268976   2.210   4.323  13.635  0.8341  0.9354 -3.0245
15829TIP3   OH268977   1.312   0.080  11.263  0.0045 -0.4624  0.1908
15829TIP3    H168978   1.346   0.119  11.344 -0.2249  1.8981 -0.7671
15829TIP3    H268979   1.391   0.061  11.212  0.0866  0.3152  0.0111
15830TIP3   OH268980   3.595   2.134  13.383 -0.6129 -0.5380  0.6117
15830TIP3    H168981   3.682   2.136  13.343 -0.8749  1.5451 -0.0024
15830TIP3    H268982   3.557   2.220  13.362 -2.2941 -0.8706  2.0216
15831TIP3   OH268983   3.328   3.314   3.203 -0.9084 -0.5943 -0.0338
15831TIP3    H168984   3.307   3.368   3.127  0.3227  0.1997  0.1643
15831TIP3    H268985   3.421   3.329   3.219 -0.7342 -2.1127  0.5722
15832TIP3   OH268986   3.660   4.591  11.327  0.0397 -0.3575  0.0450
15832TIP3    H168987   3.752   4.572  11.348 -0.4234 -1.1593  1.4257
15832TIP3    H268988   3.656   4.686  11.323  0.5772 -0.2472  1.6704
15833TIP3   OH268989   2.248   6.819  11.743 -0.7292  0.7241  0.4015
15833TIP3    H168990   2.182   6.886  11.760 -2.3875 -0.9928  1.2488
15833TIP3    H268991   2.235   6.796  11.651 -0.3304  1.3684  0.1796
15834TIP3   OH268992   2.203   5.388  17.013  0.3436 -0.3830  0.1048
15834TIP3    H168993   2.191   5.476  16.979 -1.4037  0.0849  1.7360
15834TIP3    H268994   2.270   5.349  16.957  2.4603  2.5397  0.3784
15835TIP3   OH268995   3.634   3.952  11.521 -0.5743 -0.1751  0.5369
15835TIP3    H168996   3.545   3.930  11.552 -1.2564  2.2489  0.4942
15835TIP3    H268997   3.674   3.997  11.595  0.6441 -1.1605  0.5153
15836TIP3   OH268998   1.536   3.635  14.718  0.0099  0.3195 -0.5364
15836TIP3    H168999   1.494   3.702  14.772  1.7709  1.6721 -0.7806
15836TIP3    H269000   1.602   3.597  14.775 -1.2194 -1.5662 -0.2674
15837TIP3   OH269001   5.707   6.358  13.945  0.1125 -0.5298 -0.7762
15837TIP3    H169002   5.793   6.379  13.982  0.4737 -1.9783 -0.7496
15837TIP3    H269003   5.667   6.444  13.928  0.1869  0.2484  2.3543
15838TIP3   OH269004   5.806   4.775  16.723  0.3446  0.1826 -0.0593
15838TIP3    H169005   5.816   4.742  16.634 -1.3164 -0.0145 -0.2096
15838TIP3    H269006   5.871   4.844  16.731  0.1022  0.6268 -1.6552
15839TIP3   OH269007   5.164   6.244   1.005 -0.3447 -0.4019 -0.0643
15839TIP3    H169008   5.105   6.254   1.080 -0.1183  0.3545  0.0190
15839TIP3    H269009   5.138   6.312   0.944  0.2669 -0.2336 -0.1460
15840TIP3   OH269010   6.055   4.754  16.284 -0.5534  0.5475  0.1936
15840TIP3    H169011   6.056   4.753  16.380 -0.4719 -1.5675  0.2244
15840TIP3    H269012   5.966   4.730  16.261  0.4185 -3.5196 -0.1089
15841TIP3   OH269013   3.012   1.142  16.506  0.1260 -0.3020  0.3593
15841TIP3    H169014   2.948   1.181  16.447 -0.1752 -0.6628  0.4445
15841TIP3    H269015   3.091   1.196  16.496  0.7443 -1.4871 -1.8541
15842TIP3   OH269016   3.968   0.249  12.196  0.2307  0.0933  0.6235
15842TIP3    H169017   3.882   0.217  12.167  0.3778 -0.3732  0.6961
15842TIP3    H269018   4.030   0.186  12.160  0.5249  0.2856  0.7919
15843TIP3   OH269019   4.301   3.593  11.560 -0.3602  0.1412  0.9872
15843TIP3    H169020   4.322   3.576  11.652 -0.2790 -0.9615  0.7735
15843TIP3    H269021   4.385   3.616  11.520 -0.5275  1.5184  1.3520
15844TIP3   OH269022   2.206   0.700   4.210 -0.1781  0.2327 -0.0740
15844TIP3    H169023   2.159   0.673   4.132 -1.6877  2.5028 -0.0389
15844TIP3    H269024   2.261   0.773   4.181  0.1786  0.2946  0.7344
15845TIP3   OH269025   1.830   0.828   1.340 -0.4706 -0.2432  0.4981
15845TIP3    H169026   1.829   0.855   1.248 -1.4516 -0.8356  0.3043
15845TIP3    H269027   1.898   0.881   1.381  0.8934 -0.8753 -0.8398
15846TIP3   OH269028   0.439   3.445  16.472  0.6701  0.2955 -0.2702
15846TIP3    H169029   0.379   3.496  16.526  1.9307  1.7224 -0.1375
15846TIP3    H269030   0.410   3.354  16.483  0.2330  0.6424  1.9710
15847TIP3   OH269031   1.914   5.049   4.283  0.2194  0.0089  0.1444
15847TIP3    H169032   1.883   4.980   4.225  0.3027 -0.6854  0.9079
15847TIP3    H269033   1.905   5.129   4.232 -2.0447 -0.2543  0.0205
15848TIP3   OH269034   3.753   2.034  11.777  0.3739  0.3294 -0.6946
15848TIP3    H169035   3.811   1.968  11.815 -0.8565 -0.6748 -0.4905
15848TIP3    H269036   3.669   1.989  11.767 -0.5688  1.9232 -0.3459
15849TIP3   OH269037   1.816   3.589  16.645  0.8579 -0.2351 -0.4233
15849TIP3    H169038   1.794   3.581  16.738  2.5317  1.8582  0.2328
15849TIP3    H269039   1.765   3.664  16.615 -0.3551 -1.4388 -1.4748
15850TIP3   OH269040   4.354   4.821  14.812 -0.1299  0.7633 -1.1066
15850TIP3    H169041   4.292   4.893  14.821 -1.4639 -0.6085  1.8759
15850TIP3    H269042   4.440   4.860  14.830 -0.5888  1.9389 -1.4208
15851TIP3   OH269043   1.049   6.553   0.372  0.4683 -0.1738  0.3819
15851TIP3    H169044   1.123   6.607   0.402 -0.0609  1.3347 -0.8662
15851TIP3    H269045   0.977   6.615   0.363 -0.0733 -0.9977 -1.5161
15852TIP3   OH269046   2.961   1.219  10.771  0.2065  0.2671  0.7937
15852TIP3    H169047   2.973   1.238  10.678  1.1645 -0.4861  0.7483
15852TIP3    H269048   3.044   1.243  10.811 -0.1039  0.3161  1.4188
15853TIP3   OH269049   6.314   1.725   5.357  0.1931  0.3245 -0.1731
15853TIP3    H169050   6.254   1.702   5.428 -0.2794  2.1656  0.0883
15853TIP3    H269051   6.353   1.642   5.330 -0.5117 -0.5747  1.4295
15854TIP3   OH269052   2.543   5.917   5.103  0.5430  0.2830 -0.1067
15854TIP3    H169053   2.464   5.945   5.057  0.3454 -0.4239 -0.2085
15854TIP3    H269054   2.564   5.831   5.065 -1.8184 -2.2585  3.6556
15855TIP3   OH269055   1.415   2.029  11.334  0.3812 -0.4506  0.1102
15855TIP3    H169056   1.384   1.960  11.275  0.4491 -1.9491  1.7574
15855TIP3    H269057   1.460   1.983  11.404  0.7207  1.3032  1.1100
15856TIP3   OH269058   4.293   4.380  11.370 -0.3277 -0.0619 -0.0128
15856TIP3    H169059   4.348   4.302  11.359 -1.7877 -1.2200  0.5382
15856TIP3    H269060   4.235   4.380  11.294 -0.2914  0.5212 -0.0421
15857TIP3   OH269061   5.413   6.598  10.391  0.7410 -0.2023  0.0357
15857TIP3    H169062   5.323   6.616  10.365  0.8994 -1.5544 -1.6233
15857TIP3    H269063   5.458   6.681  10.379  0.0127  0.1233 -0.5328
15858TIP3   OH269064   3.347   5.789   5.399 -0.3431 -0.0012 -0.0132
15858TIP3    H169065   3.362   5.855   5.331  0.7740 -0.4511 -0.2229
15858TIP3    H269066   3.281   5.731   5.362 -1.0473  0.7665  0.0143
15859TIP3   OH269067   2.755   0.623  14.943  0.6564 -0.0173 -0.4086
15859TIP3    H169068   2.688   0.691  14.944 -1.1716 -1.5694 -2.8934
15859TIP3    H269069   2.758   0.590  15.033  1.6274  3.2116  0.8573
15860TIP3   OH269070   0.718   1.796  14.197  0.3362  0.1470 -0.6507
15860TIP3    H169071   0.805   1.798  14.157 -0.4607  1.4983 -2.4820
15860TIP3    H269072   0.704   1.885  14.227  0.1624 -0.4314  1.0714
15861TIP3   OH269073   2.893   1.943  17.139  0.5843 -0.0579  0.1417
15861TIP3    H169074   2.865   1.861  17.180 -0.9967  0.9669  1.2005
15861TIP3    H269075   2.904   1.921  17.046  0.1428 -1.4440  0.3960
15862TIP3   OH269076   3.493   1.802   3.306  0.2396  0.4122  0.4796
15862TIP3    H169077   3.447   1.729   3.347  0.0144  0.2381 -0.0598
15862TIP3    H269078   3.561   1.761   3.253 -0.3022  0.5365 -0.3417
15863TIP3   OH269079   5.836   1.656   6.166  0.5383  0.3926  0.5721
15863TIP3    H169080   5.816   1.718   6.236 -0.8328  0.2612  0.3262
15863TIP3    H269081   5.754   1.647   6.117  1.4100  0.3641 -0.9642
15864TIP3   OH269082   3.692   4.456   5.260  0.1532  0.2561 -0.5339
15864TIP3    H169083   3.770   4.485   5.212  0.6637 -0.3706 -0.0957
15864TIP3    H269084   3.626   4.523   5.241  0.7560  0.7263 -1.0134
15865TIP3   OH269085   0.696   0.586   4.563  0.2320  0.7702 -0.0435
15865TIP3    H169086   0.728   0.499   4.588  0.5379  0.4924 -1.3240
15865TIP3    H269087   0.601   0.576   4.558  0.0947  1.0091  1.5830
15866TIP3   OH269088   6.090   2.423  16.973  0.0114  0.1837  0.6357
15866TIP3    H169089   6.096   2.415  16.878  0.4061 -0.5478  0.7199
15866TIP3    H269090   6.176   2.457  17.000 -1.0533  3.3910  0.4558
15867TIP3   OH269091   4.908   2.348   4.010  0.3542 -0.5995  0.6188
15867TIP3    H169092   4.906   2.405   3.933  0.4484 -0.3942  0.7673
15867TIP3    H269093   5.001   2.342   4.033  0.3920 -1.1468  0.3574
15868TIP3   OH269094   4.503   5.962   0.601 -0.0897 -0.2205  0.2216
15868TIP3    H169095   4.479   6.047   0.565  0.3549  1.0060  2.6503
15868TIP3    H269096   4.525   5.909   0.524 -0.2743  1.8573 -1.3449
15869TIP3   OH269097   6.008   4.484  13.250  0.3339  0.5576  0.4727
15869TIP3    H169098   6.017   4.389  13.249 -0.1214  0.5084 -0.8398
15869TIP3    H269099   5.919   4.500  13.284  0.2424  0.5006  0.2579
15870TIP3   OH269100   2.224   1.819   4.227 -0.1865  0.0011  0.1829
15870TIP3    H169101   2.238   1.861   4.142 -1.0337  0.5693  0.3111
15870TIP3    H269102   2.176   1.884   4.278  0.5058 -0.2553  1.1764
15871TIP3   OH269103   2.058   1.229  14.006 -0.0553  0.1685  0.0868
15871TIP3    H169104   2.050   1.268  13.919  0.7591  0.1484  0.0003
15871TIP3    H269105   1.968   1.203  14.029 -0.2032 -0.2718 -0.9458
15872TIP3   OH269106   1.107   5.917   1.398 -0.4589  0.2715  0.5585
15872TIP3    H169107   1.012   5.906   1.405 -0.5288  0.7863  0.4600
15872TIP3    H269108   1.122   5.927   1.304 -0.2284 -0.5009  0.5142
15873TIP3   OH269109   5.570   0.859   2.991  0.0248 -0.2350 -0.0936
15873TIP3    H169110   5.474   0.855   3.000 -0.0297 -1.1073 -0.8287
15873TIP3    H269111   5.602   0.816   3.070 -0.2366 -1.1009 -0.4437
15874TIP3   OH269112   0.658   6.739  13.205  0.2916  0.5337 -0.0760
15874TIP3    H169113   0.707   6.694  13.274  0.0958 -2.2387 -1.5950
15874TIP3    H269114   0.721   6.799  13.166  1.7121 -0.9075 -0.1293
15875TIP3   OH269115   1.315   0.226   5.272 -0.0595 -0.2214 -0.8431
15875TIP3    H169116   1.351   0.219   5.184 -2.2443 -2.6660 -1.7050
15875TIP3    H269117   1.326   0.138   5.309 -0.4049  0.3913  0.7972
15876TIP3   OH269118   3.315   4.380   2.663 -0.0373 -0.0100  0.3204
15876TIP3    H169119   3.408   4.364   2.675  0.3378  1.2635 -0.6497
15876TIP3    H269120   3.288   4.317   2.596  0.1323 -0.3316  0.5510
15877TIP3   OH269121   2.687   0.179   0.745  0.3003  0.0575  0.0136
15877TIP3    H169122   2.652   0.121   0.813  0.8241 -2.2425 -1.5746
15877TIP3    H269123   2.630   0.256   0.748 -1.9127 -1.5182  0.6555
15878TIP3   OH269124   3.859   1.834   3.737 -0.5012 -0.3584 -0.1582
15878TIP3    H169125   3.824   1.803   3.821 -0.4740 -1.1230 -0.4228
15878TIP3    H269126   3.867   1.755   3.684 -0.5341  0.1272 -0.8914
15879TIP3   OH269127   3.040   3.837   3.996 -0.2983 -0.4159 -0.4712
15879TIP3    H169128   3.061   3.773   3.928 -0.0584  1.2749 -2.0863
15879TIP3    H269129   3.026   3.785   4.075 -2.0095 -2.6407 -2.0949
15880TIP3   OH269130   4.955   3.338  14.356  0.0633 -0.1401 -0.0053
15880TIP3    H169131   4.925   3.422  14.323 -0.5081  0.2418  1.4025
15880TIP3    H269132   4.988   3.292  14.279 -0.9730  0.7879 -1.0400
15881TIP3   OH269133   6.342   5.748   5.572 -0.5463 -0.1211  0.0143
15881TIP3    H169134   6.301   5.662   5.573  1.5279 -1.1888 -0.4148
15881TIP3    H269135   6.392   5.751   5.654  3.0907 -1.3628 -1.9083
15882TIP3   OH269136   4.312   4.765   1.827 -0.0702  0.2069  0.2206
15882TIP3    H169137   4.292   4.812   1.746 -0.9543  0.1377  0.3856
15882TIP3    H269138   4.400   4.795   1.851 -0.5399  1.6575  0.2188
15883TIP3   OH269139   2.608   4.548  11.844  0.0622  0.0584  0.0481
15883TIP3    H169140   2.652   4.517  11.923 -0.2507  0.8299  0.5295
15883TIP3    H269141   2.557   4.624  11.872  0.6818  0.9318 -1.0698
15884TIP3   OH269142   1.292   2.887   0.992  0.0322  0.4951  0.2002
15884TIP3    H169143   1.328   2.820   0.934 -1.6559  0.3937 -0.8008
15884TIP3    H269144   1.356   2.958   0.990  1.3522 -0.6560  0.4572
15885TIP3   OH269145   4.726   4.764   1.146  0.4018 -0.1940 -0.1211
15885TIP3    H169146   4.753   4.704   1.076  0.9354 -1.1856  0.9028
15885TIP3    H269147   4.652   4.720   1.188 -0.9031  1.0960 -0.9770
15886TIP3   OH269148   0.803   5.176   4.887  0.5000 -0.2930  0.3005
15886TIP3    H169149   0.826   5.083   4.894 -0.7169 -0.7466 -1.2742
15886TIP3    H269150   0.886   5.222   4.902  1.8605 -1.7514 -2.1116
15887TIP3   OH269151   1.794   4.192   2.371 -0.2000  0.6822 -0.3910
15887TIP3    H169152   1.881   4.166   2.339  0.4861  1.0229  1.1581
15887TIP3    H269153   1.739   4.115   2.353  0.6690  0.0445 -0.3947
15888TIP3   OH269154   2.854   2.518   1.091  0.6997 -0.0322 -0.0410
15888TIP3    H169155   2.848   2.554   1.179 -0.2903 -0.2895  0.0077
15888TIP3    H269156   2.948   2.506   1.076  0.8355 -2.8419  2.1674
15889TIP3   OH269157   1.276   6.069   4.549  0.1648 -0.4469 -0.5957
15889TIP3    H169158   1.189   6.104   4.563  0.0680 -0.6797 -0.6087
15889TIP3    H269159   1.276   6.041   4.458  0.8321  1.1821 -1.1429
15890TIP3   OH269160   1.254   3.093   5.430 -0.1551  0.3616  0.4327
15890TIP3    H169161   1.310   3.015   5.426  2.2897  1.6758  3.8417
15890TIP3    H269162   1.194   3.076   5.502  0.6355  1.6547  1.4477
15891TIP3   OH269163   4.798   2.670   3.805  0.0173  0.4586 -0.4649
15891TIP3    H169164   4.813   2.650   3.713 -0.7384  0.8733 -0.6791
15891TIP3    H269165   4.873   2.631   3.850 -0.2224 -0.7861 -1.1222
15892TIP3   OH269166   4.366   1.906  11.536  0.0098  0.1465  0.2402
15892TIP3    H169167   4.386   1.999  11.547 -1.9718  0.6209  0.2403
15892TIP3    H269168   4.452   1.863  11.534  1.0001  2.0278 -0.3795
15893TIP3   OH269169   0.927   5.506   4.673  0.3499  0.5012  0.2756
15893TIP3    H169170   0.863   5.493   4.743 -0.3926 -0.9652 -0.6210
15893TIP3    H269171   0.881   5.479   4.594  3.0105 -3.9569 -0.0795
15894TIP3   OH269172   0.889   4.247  12.934 -0.1479  0.3055  0.2970
15894TIP3    H169173   0.885   4.247  13.029 -1.9911 -0.2884  0.2637
15894TIP3    H269174   0.979   4.225  12.913 -0.5031 -3.2694  1.9066
15895TIP3   OH269175   5.984   1.143   0.151 -0.3197  0.0995  0.0960
15895TIP3    H169176   5.939   1.209   0.203 -0.0385  0.8136 -0.5572
15895TIP3    H269177   6.029   1.192   0.082 -1.3443 -0.8858 -1.3241
15896TIP3   OH269178   0.174   6.007   3.444 -0.2292 -0.0404  0.0949
15896TIP3    H169179   0.125   5.971   3.371  0.2126 -0.9222  0.2220
15896TIP3    H269180   0.142   5.960   3.521  2.0772 -2.0548 -0.0319
15897TIP3   OH269181   2.243   4.718  11.426 -0.1843  0.0375 -0.4760
15897TIP3    H169182   2.167   4.669  11.459  0.1329  0.2641  0.6411
15897TIP3    H269183   2.219   4.742  11.337 -1.2934 -0.1806 -0.2555
15898TIP3   OH269184   0.545   0.434  12.652  0.7105  0.3650 -0.5243
15898TIP3    H169185   0.579   0.354  12.692  2.5467  0.8857 -0.9265
15898TIP3    H269186   0.621   0.473  12.608 -0.5903  1.2702 -2.1104
15899TIP3   OH269187   2.230   5.334   4.230  0.3066  0.5836  0.2750
15899TIP3    H169188   2.285   5.325   4.152  1.5269  0.5425  1.1108
15899TIP3    H269189   2.181   5.415   4.215  2.3269  1.9503  0.4921
15900TIP3   OH269190   4.544   5.660   1.846  0.8928  0.0080 -0.0901
15900TIP3    H169191   4.493   5.587   1.882  0.8434  0.0254 -0.1249
15900TIP3    H269192   4.570   5.711   1.922 -0.5224  0.9082 -0.1845
15901TIP3   OH269193   1.980   5.464   2.094  0.2302  0.8007  0.4252
15901TIP3    H169194   1.910   5.416   2.050 -0.4098  0.5207  1.7095
15901TIP3    H269195   1.937   5.540   2.133  0.3033 -0.1424  2.4971
15902TIP3   OH269196   3.328   3.009  13.902  0.2312  0.4627  0.3792
15902TIP3    H169197   3.349   2.916  13.889 -0.5913  0.2693  0.3527
15902TIP3    H269198   3.233   3.013  13.893  0.3238  1.4329 -0.3237
15903TIP3   OH269199   5.473   4.715   0.109 -0.3146 -0.1234 -0.2100
15903TIP3    H169200   5.488   4.622   0.123  0.2348  0.0325  0.2797
15903TIP3    H269201   5.410   4.740   0.177  1.2418  0.3235  1.1268
15904TIP3   OH269202   0.472   6.015   2.532 -0.7777  0.4993  0.6149
15904TIP3    H169203   0.392   5.977   2.568 -0.3134  0.3323  1.4983
15904TIP3    H269204   0.517   5.942   2.490  0.1121  0.0129  2.3095
15905TIP3   OH269205   5.355   1.177   1.209  0.3921  0.0388 -0.4691
15905TIP3    H169206   5.326   1.228   1.285 -0.8044  0.0480 -0.8995
15905TIP3    H269207   5.306   1.095   1.216 -1.0296  0.6899 -2.0991
15906TIP3   OH269208   2.583   6.455   4.236  0.6301 -0.2292  0.5382
15906TIP3    H169209   2.504   6.424   4.192  0.9384  0.8832 -0.8930
15906TIP3    H269210   2.552   6.512   4.305  0.1603 -1.0416  1.0122
15907TIP3   OH269211   0.559   0.263  13.185  0.1977  0.1292  0.5871
15907TIP3    H169212   0.628   0.236  13.246  0.6544  1.1071  0.5188
15907TIP3    H269213   0.510   0.329  13.234  0.2813  0.5799  0.0662
15908TIP3   OH269214   3.030   1.856  16.203  0.0548  0.3241 -0.2717
15908TIP3    H169215   3.054   1.821  16.289  0.2923 -0.0978 -0.5070
15908TIP3    H269216   2.964   1.922  16.222 -0.1743 -0.0349  0.2076
15909TIP3   OH269217   1.463   5.112   3.405 -0.2903 -0.0972 -0.3350
15909TIP3    H169218   1.523   5.042   3.431  0.0879 -0.1832 -1.4190
15909TIP3    H269219   1.511   5.193   3.421  1.3657 -0.2015 -3.9978
15910TIP3   OH269220   0.223   2.147  14.329  0.3987 -0.1309 -0.0429
15910TIP3    H169221   0.165   2.200  14.274 -0.1900 -0.2223  0.4711
15910TIP3    H269222   0.287   2.110  14.268 -0.9914 -1.2573 -0.8883
15911TIP3   OH269223   3.650   5.834  13.031 -0.6936 -0.0484 -0.1260
15911TIP3    H169224   3.573   5.850  13.086 -0.9577  0.9357 -0.7585
15911TIP3    H269225   3.656   5.912  12.976 -0.3447 -0.9445 -1.3877
15912TIP3   OH269226   1.241   5.943  14.627  0.5017 -0.1434 -0.6845
15912TIP3    H169227   1.241   5.964  14.534 -1.4293 -0.6630 -0.8243
15912TIP3    H269228   1.277   5.855  14.632  0.3600 -0.2162 -0.9590
15913TIP3   OH269229   0.786   4.650   0.553  0.2756  0.0652 -0.3124
15913TIP3    H169230   0.721   4.668   0.621 -0.1432 -2.2386 -0.0051
15913TIP3    H269231   0.739   4.664   0.471  0.0835  0.6306 -0.1084
15914TIP3   OH269232   0.574   2.803  16.689 -0.2264  0.3198  0.0883
15914TIP3    H169233   0.545   2.876  16.634 -3.3770 -0.4056  0.5843
15914TIP3    H269234   0.605   2.845  16.769 -0.9184  1.1884 -0.0707
15915TIP3   OH269235   0.028   4.250   3.923 -0.0869  0.5479 -0.0888
15915TIP3    H169236   0.067   4.313   3.863 -0.0200  0.5328 -0.0614
15915TIP3    H269237  -0.060   4.283   3.939 -0.4342  0.0597 -0.9192
15916TIP3   OH269238   1.582   2.394  14.585 -0.0107  0.3710  0.2369
15916TIP3    H169239   1.532   2.475  14.580  0.3700  0.6668  1.1120
15916TIP3    H269240   1.555   2.354  14.667 -0.7591 -0.7858 -0.5314
15917TIP3   OH269241   3.807   0.428   6.126  0.7543 -0.6139 -0.2938
15917TIP3    H169242   3.884   0.465   6.170  2.7808 -3.2712 -1.3115
15917TIP3    H269243   3.773   0.363   6.188 -0.8903  0.6749  0.2323
15918TIP3   OH269244   1.811   4.920   4.095  0.6361 -0.1817  0.0377
15918TIP3    H169245   1.837   4.831   4.069  0.5582 -0.2404  0.1587
15918TIP3    H269246   1.724   4.932   4.057  0.3658 -0.4053  0.5797
15919TIP3   OH269247   5.446   3.956  15.764  0.7142  0.2327 -0.0823
15919TIP3    H169248   5.485   3.868  15.761 -0.4300 -0.3473  1.2040
15919TIP3    H269249   5.491   4.004  15.694  2.6705 -0.8235  0.3860
15920TIP3   OH269250   2.396   2.061  12.503 -0.0611  0.7726  0.8613
15920TIP3    H169251   2.458   2.126  12.534  0.2690  0.5769  0.6221
15920TIP3    H269252   2.437   2.025  12.424 -0.5113  0.6926  0.6622
15921TIP3   OH269253   5.930   2.281   3.052  0.1183  0.0210  0.1794
15921TIP3    H169254   5.869   2.346   3.016 -1.4742 -0.5898  1.6258
15921TIP3    H269255   5.979   2.249   2.976  0.7544  2.6499 -0.6338
15922TIP3   OH269256   2.712   5.849  11.892  0.3795 -0.2277  0.6185
15922TIP3    H169257   2.622   5.876  11.879  0.4028 -1.4936 -3.2034
15922TIP3    H269258   2.764   5.916  11.847  1.3927  0.1458  2.2300
15923TIP3   OH269259   0.186   6.749  11.599  0.1214  0.4510  0.2857
15923TIP3    H169260   0.105   6.796  11.578  0.4090  0.4796 -0.7824
15923TIP3    H269261   0.202   6.770  11.691 -0.9433  0.6540  0.4428
15924TIP3   OH269262   4.958   0.158  15.167 -0.0928 -0.2486 -0.6123
15924TIP3    H169263   5.004   0.233  15.203  0.6511 -1.3445  0.8454
15924TIP3    H269264   5.016   0.124  15.098 -0.7706  0.9026 -1.7880
15925TIP3   OH269265   2.717   3.977  14.686  0.3302  0.1641  0.4259
15925TIP3    H169266   2.647   4.013  14.631 -0.7288 -0.4064  1.3408
15925TIP3    H269267   2.715   4.032  14.765  0.0716 -0.6127  0.9723
15926TIP3   OH269268   0.665   4.694  13.318  0.0686  0.0224 -0.6270
15926TIP3    H169269   0.725   4.766  13.337  0.1462  0.2461 -1.6265
15926TIP3    H269270   0.698   4.620  13.369 -0.0007  0.6802  0.4046
15927TIP3   OH269271   4.405   0.118   4.015 -0.1262  0.4060 -0.4834
15927TIP3    H169272   4.411   0.096   3.922  0.6027  1.1045 -0.6165
15927TIP3    H269273   4.458   0.052   4.059  0.0829  0.4707 -0.6367
15928TIP3   OH269274   5.524   4.076  16.800 -0.0367  0.5414 -0.1112
15928TIP3    H169275   5.557   4.052  16.714  0.8408  1.1667  0.0382
15928TIP3    H269276   5.588   4.039  16.862  0.7297  2.2007  0.1621
15929TIP3   OH269277   5.071   1.197  11.961 -0.1780  0.3022 -0.0475
15929TIP3    H169278   4.985   1.155  11.968 -1.0114  1.1979 -3.3239
15929TIP3    H269279   5.065   1.273  12.019 -1.1196 -0.2760  0.6648
15930TIP3   OH269280   3.985   0.405   4.495  0.2966 -0.0639 -0.5182
15930TIP3    H169281   4.012   0.478   4.438 -0.2335 -1.1204 -2.2108
15930TIP3    H269282   3.922   0.444   4.556 -0.5015  0.7840 -1.8337
15931TIP3   OH269283   6.414   6.341  14.609  0.1411  0.2053 -0.4209
15931TIP3    H169284   6.457   6.267  14.566 -0.7182  1.2884 -3.3157
15931TIP3    H269285   6.325   6.341  14.576 -0.1275  2.0550  0.1637
15932TIP3   OH269286   4.251   0.362   3.511  0.0492 -0.2288  0.3482
15932TIP3    H169287   4.316   0.378   3.579 -0.9108  0.3979  1.1371
15932TIP3    H269288   4.224   0.449   3.482  0.7846 -0.4740 -1.1961
15933TIP3   OH269289   6.169   1.617  15.687  0.2059 -0.3216 -0.4970
15933TIP3    H169290   6.125   1.570  15.758  1.9137 -1.2310  0.0186
15933TIP3    H269291   6.237   1.557  15.657 -1.4755 -0.6482 -4.1063
15934TIP3   OH269292   1.820   4.498   5.868  0.0015  0.0455 -0.1818
15934TIP3    H169293   1.836   4.546   5.949  0.2961 -0.8728  0.3226
15934TIP3    H269294   1.906   4.464   5.843 -0.4461 -1.5967  0.3790
15935TIP3   OH269295   0.432   0.730  12.012 -0.4803 -0.1229  0.0899
15935TIP3    H169296   0.355   0.771  11.973 -0.6618  0.9546  1.5360
15935TIP3    H269297   0.463   0.792  12.077  1.2985 -0.7796 -0.0529
15936TIP3   OH269298   2.004   5.150  15.190 -0.0282  0.1673 -0.7080
15936TIP3    H169299   1.911   5.155  15.170  0.1814 -0.5536 -1.9986
15936TIP3    H269300   2.013   5.074  15.247 -0.1762 -0.1159 -1.0538
15937TIP3   OH269301   2.492   2.272   4.167 -0.0196  0.1355 -0.1985
15937TIP3    H169302   2.535   2.191   4.140  0.6700  0.9038 -1.4559
15937TIP3    H269303   2.531   2.292   4.252 -1.1280 -1.5100  0.7489
15938TIP3   OH269304   4.541   4.226   3.432  0.1921 -0.2600 -0.3246
15938TIP3    H169305   4.478   4.290   3.398 -0.5350 -0.0468  1.3297
15938TIP3    H269306   4.544   4.158   3.364 -0.1241  0.8072 -1.4458
15939TIP3   OH269307   2.328   1.235   3.482 -0.2383  0.3084 -0.4360
15939TIP3    H169308   2.377   1.154   3.498  1.2665  0.9544 -1.5641
15939TIP3    H269309   2.321   1.240   3.387 -2.9325  0.0524 -0.3441
15940TIP3   OH269310   3.133   4.597   5.835 -0.3166 -0.3906  0.0800
15940TIP3    H169311   3.061   4.538   5.813  1.0080 -1.7860 -0.7553
15940TIP3    H269312   3.092   4.672   5.878 -2.0189 -2.2348  1.8305
15941TIP3   OH269313   2.992   0.915  13.763  0.2524 -0.3558 -0.0460
15941TIP3    H169314   3.081   0.889  13.789 -0.0558 -2.7805 -1.1053
15941TIP3    H269315   2.967   0.982  13.826  1.7176 -1.7945  2.2185
15942TIP3   OH269316   1.975   0.777   0.814  0.2214  0.5322  0.2627
15942TIP3    H169317   1.905   0.763   0.751  1.3184 -0.6900 -0.7376
15942TIP3    H269318   1.997   0.689   0.845  0.9181  0.9547  1.0071
15943TIP3   OH269319   0.661   5.951  10.787  0.1288  0.4148 -0.0648
15943TIP3    H169320   0.714   5.929  10.710 -0.5905 -0.2064 -0.3991
15943TIP3    H269321   0.655   5.869  10.836  3.6235  1.5386  2.6606
15944TIP3   OH269322   0.506   4.193   4.478 -0.0997 -0.1787  0.5806
15944TIP3    H169323   0.550   4.134   4.417 -0.1589  1.1359 -0.7696
15944TIP3    H269324   0.425   4.218   4.434 -0.4344  0.3172  1.4526
15945TIP3   OH269325   1.505   4.479  11.536  0.6196 -0.5362  0.5676
15945TIP3    H169326   1.554   4.465  11.617  0.2000 -1.5205  0.6591
15945TIP3    H269327   1.500   4.392  11.495  2.0040  0.1554 -1.2028
15946TIP3   OH269328   0.748   2.980   4.240 -0.0239 -0.0270  0.1921
15946TIP3    H169329   0.673   3.011   4.291  0.0964 -0.1784  0.4660
15946TIP3    H269330   0.752   2.886   4.260  1.1733  0.2513  1.4009
15947TIP3   OH269331   5.732   5.416  16.870 -0.0159  0.2991 -0.3143
15947TIP3    H169332   5.637   5.410  16.862 -0.1628 -0.4900  1.5483
15947TIP3    H269333   5.760   5.330  16.898  1.1009  0.8868  0.4591
15948TIP3   OH269334   5.287   3.120   2.668  0.1719  0.2990 -0.3750
15948TIP3    H169335   5.315   3.155   2.753  0.2085 -1.1611  0.2443
15948TIP3    H269336   5.340   3.041   2.656 -2.5773 -1.7616  0.1575
15949TIP3   OH269337   1.064   5.162  11.475  0.9393  0.4924  0.0813
15949TIP3    H169338   1.148   5.201  11.498  1.9416 -1.1522 -0.5500
15949TIP3    H269339   1.084   5.069  11.463 -0.9768  0.0682 -0.1075
15950TIP3   OH269340   6.033   4.709  15.423  0.2905  0.1740 -0.3858
15950TIP3    H169341   6.121   4.672  15.415  0.0914  0.0701 -3.2881
15950TIP3    H269342   6.047   4.800  15.447  1.0187 -0.4339  1.6996
15951TIP3   OH269343   6.219   3.207  10.769  0.4344  0.5036  0.2468
15951TIP3    H169344   6.224   3.195  10.674  0.0860 -0.1915  0.3039
15951TIP3    H269345   6.288   3.150  10.803 -0.7864 -0.9043  0.4999
15952TIP3   OH269346   4.386   1.709  10.595  0.1753 -0.0148 -0.2950
15952TIP3    H169347   4.365   1.651  10.522 -0.8202 -0.0286 -0.0106
15952TIP3    H269348   4.343   1.669  10.671  3.6463 -1.7226  1.0152
15953TIP3   OH269349   1.125   4.519   3.787  0.2639 -0.2626 -0.7200
15953TIP3    H169350   1.156   4.544   3.875 -2.2150  1.2022 -0.1456
15953TIP3    H269351   1.205   4.503   3.737  1.8913  1.7044  1.0274
15954TIP3   OH269352   4.379   3.022   5.063 -0.1447  0.2747  0.3663
15954TIP3    H169353   4.469   3.048   5.045  0.6098 -1.6241  1.1434
15954TIP3    H269354   4.348   2.984   4.981  0.4888 -0.9191  0.6547
15955TIP3   OH269355   3.104   1.282   5.022 -0.0028 -0.0581  0.1916
15955TIP3    H169356   3.179   1.242   5.066 -0.6498  0.1736  1.5474
15955TIP3    H269357   3.068   1.343   5.086 -0.3478  1.1027 -1.0537
15956TIP3   OH269358   4.010   2.261   0.265 -0.1948 -0.4599  0.4090
15956TIP3    H169359   4.023   2.257   0.360  2.1601  0.2403  0.1765
15956TIP3    H269360   3.931   2.314   0.254  0.0037  0.2107  1.9531
15957TIP3   OH269361   0.137   4.106  11.859  0.3462 -0.1332  0.3468
15957TIP3    H169362   0.126   4.201  11.850 -1.0794 -0.2488  0.6569
15957TIP3    H269363   0.211   4.085  11.802  0.1042  1.0369 -0.4353
15958TIP3   OH269364   6.166   0.320  13.621 -0.3390 -0.2308  0.1697
15958TIP3    H169365   6.095   0.263  13.651  0.6635 -1.6463 -0.0447
15958TIP3    H269366   6.229   0.261  13.581  1.0017  0.9762  0.4141
15959TIP3   OH269367   4.445   4.993   1.727 -0.0480  0.1075 -0.2831
15959TIP3    H169368   4.496   5.072   1.708  1.3875 -0.4212  1.1304
15959TIP3    H269369   4.408   5.010   1.814 -1.5585  0.0959 -0.9008
15960TIP3   OH269370   0.927   0.520   1.958 -0.2703  0.4928  0.5608
15960TIP3    H169371   0.976   0.596   1.928 -1.1455  0.3613 -1.3594
15960TIP3    H269372   0.836   0.539   1.937 -0.3769 -1.6130 -1.3272
15961TIP3   OH269373   0.208   4.866  14.869  0.3135 -1.1154  0.1862
15961TIP3    H169374   0.229   4.805  14.799 -0.5006 -0.6449 -0.4891
15961TIP3    H269375   0.264   4.839  14.942  1.6887 -1.1727 -0.8558
15962TIP3   OH269376   5.945   3.312   6.088 -0.3575 -0.0450 -0.1952
15962TIP3    H169377   5.964   3.334   6.180  0.5458 -0.7354 -0.2025
15962TIP3    H269378   5.942   3.396   6.043 -2.5323  0.4698  0.7445
15963TIP3   OH269379   6.583   0.442   5.729  0.2163 -0.5492 -0.9869
15963TIP3    H169380   6.556   0.519   5.680 -1.9566 -0.9141 -0.5005
15963TIP3    H269381   6.612   0.476   5.814  0.0173 -0.2030 -1.0576
15964TIP3   OH269382   1.620   2.645  12.818  0.4622  0.1470 -0.1745
15964TIP3    H169383   1.607   2.733  12.853 -1.2773 -0.5829  1.1966
15964TIP3    H269384   1.591   2.650  12.727 -4.1710  0.0990  1.0524
15965TIP3   OH269385   2.759   3.641  11.580 -0.0902 -0.1627  0.5731
15965TIP3    H169386   2.676   3.683  11.603 -0.4657 -0.0905 -0.8420
15965TIP3    H269387   2.743   3.602  11.494  1.0660 -0.9478  0.6978
15966TIP3   OH269388   2.363   5.424   4.907  0.7063  0.1265  0.4404
15966TIP3    H169389   2.364   5.330   4.886 -1.0260  0.0792  0.4129
15966TIP3    H269390   2.327   5.465   4.828  2.2262  0.9328  0.1370
15967TIP3   OH269391   4.762   5.405  16.003  0.1363 -0.4146 -0.1741
15967TIP3    H169392   4.798   5.462  16.071  1.8855  0.2225 -1.5801
15967TIP3    H269393   4.796   5.318  16.025  0.3007 -0.3041  0.0178
15968TIP3   OH269394   6.013   0.259  14.274  0.3391  0.3606  0.0539
15968TIP3    H169395   6.024   0.221  14.361  0.4342  1.0724  0.3613
15968TIP3    H269396   5.923   0.292  14.273 -0.3226 -1.3421 -0.8173
15969TIP3   OH269397   2.962   1.432   5.968  0.3281 -0.7281 -0.2141
15969TIP3    H169398   3.002   1.493   6.031 -0.1941 -0.2441 -0.3464
15969TIP3    H269399   2.977   1.346   6.007 -2.7538 -0.3328  2.2834
15970TIP3   OH269400   2.853   2.572  12.285  0.5682  0.4895 -0.0438
15970TIP3    H169401   2.878   2.645  12.342 -0.8514  0.3338  0.8254
15970TIP3    H269402   2.864   2.494  12.340  1.9905  0.0098 -0.9357
15971TIP3   OH269403   6.826   0.021   4.937 -0.2959  0.4287  0.1241
15971TIP3    H169404   6.890  -0.045   4.962  1.0431  0.8711 -1.9300
15971TIP3    H269405   6.766   0.026   5.012  0.8398 -1.4934  1.2331
15972TIP3   OH269406   0.915   1.625   3.930  0.0157 -0.3777 -0.1124
15972TIP3    H169407   0.902   1.598   4.021 -0.0770  0.2610  0.0724
15972TIP3    H269408   0.964   1.554   3.891 -0.2737 -0.8383  0.3370
15973TIP3   OH269409   1.925   3.170   4.404  0.2901 -0.0732  0.2576
15973TIP3    H169410   1.900   3.263   4.405  1.0157  0.1369  1.3982
15973TIP3    H269411   1.973   3.158   4.486 -1.4056 -1.9238  1.0460
15974TIP3   OH269412   5.063   0.522   4.852  0.1949  0.6182 -0.5374
15974TIP3    H169413   5.081   0.482   4.937 -2.5617 -0.8223 -0.5445
15974TIP3    H269414   5.090   0.614   4.863  3.0548 -0.2600  0.7223
15975TIP3   OH269415   1.301   3.998   1.087 -0.6813  0.2602  0.4137
15975TIP3    H169416   1.214   3.987   1.126 -0.9819  2.9173  0.6862
15975TIP3    H269417   1.295   4.082   1.040  1.5623  0.1993 -0.0613
15976TIP3   OH269418   5.646   1.533  11.360 -0.3017 -0.9740 -0.1043
15976TIP3    H169419   5.665   1.614  11.407 -0.6977 -1.7115  1.3751
15976TIP3    H269420   5.693   1.543  11.277  2.3340 -0.5503  1.3110
15977TIP3   OH269421   6.030   0.458  16.367 -0.2024  0.9651  0.1155
15977TIP3    H169422   6.096   0.389  16.359 -1.6791 -0.4078 -0.7364
15977TIP3    H269423   6.079   0.535  16.395  1.4165 -0.5964  1.8749
15978TIP3   OH269424   2.631   2.856  16.742  0.7722 -0.1956 -0.3724
15978TIP3    H169425   2.669   2.887  16.824  0.2717  0.9845 -0.5559
15978TIP3    H269426   2.601   2.767  16.761  0.9928 -0.0712  0.6118
15979TIP3   OH269427   4.698   2.439   3.162  0.5849  0.2853 -0.2981
15979TIP3    H169428   4.672   2.425   3.253  0.3074 -2.6921 -0.7472
15979TIP3    H269429   4.789   2.408   3.158  1.6598  3.1562 -0.4803
15980TIP3   OH269430   3.505   0.647  14.712 -0.2521  0.5357 -0.0359
15980TIP3    H169431   3.468   0.666  14.626  0.0910  1.6850  0.0558
15980TIP3    H269432   3.550   0.563  14.701  1.5786  1.6482 -1.5533
15981TIP3   OH269433   4.934   4.322  14.537 -0.3801 -0.8346  0.1871
15981TIP3    H169434   4.988   4.262  14.486  1.3396  0.5359  0.3064
15981TIP3    H269435   4.910   4.273  14.615 -2.2429 -2.6443 -1.4077
15982TIP3   OH269436   5.198   0.031   5.626 -0.0798  0.3387  0.5490
15982TIP3    H169437   5.232   0.005   5.711 -1.4711  0.6050  1.2146
15982TIP3    H269438   5.195  -0.050   5.576  1.6012  0.3206  0.4049
15983TIP3   OH269439   4.272   1.931   2.252 -0.3267  0.5156 -0.2254
15983TIP3    H169440   4.276   1.987   2.175 -0.6949  1.0989  0.1653
15983TIP3    H269441   4.263   1.842   2.218 -0.6911  0.7866 -0.8426
15984TIP3   OH269442   1.838   1.092   1.219  0.1656 -0.3603 -0.5713
15984TIP3    H169443   1.748   1.121   1.233  0.2271 -0.4198 -0.0598
15984TIP3    H269444   1.836   1.050   1.133 -1.0130 -3.1573  0.7159
15985TIP3   OH269445   1.071   1.216   1.879 -0.6605 -0.1510 -0.1503
15985TIP3    H169446   1.081   1.204   1.974 -0.6741  2.1549  0.1947
15985TIP3    H269447   1.158   1.242   1.848 -0.6768 -0.8095 -0.7704
15986TIP3   OH269448   3.189   2.813   2.596 -0.3275  0.1790 -0.4495
15986TIP3    H169449   3.218   2.877   2.661  1.1899  0.1287 -1.0367
15986TIP3    H269450   3.177   2.863   2.516 -1.3783  0.0960 -0.3574
15987TIP3   OH269451   2.627   2.861   1.553  0.3288 -0.7279 -0.1773
15987TIP3    H169452   2.643   2.895   1.640  2.3223 -0.0947 -0.7430
15987TIP3    H269453   2.632   2.766   1.562  1.8876 -0.6225  0.1734
15988TIP3   OH269454   0.991   4.393  13.756 -0.1384 -0.4234  0.5095
15988TIP3    H169455   0.992   4.310  13.803 -3.7049 -1.0376 -0.2394
15988TIP3    H269456   0.996   4.460  13.824  0.9136 -1.2174  1.2488
15989TIP3   OH269457   5.757   3.663  14.995  0.2122  0.1677 -0.2565
15989TIP3    H169458   5.786   3.691  14.909 -0.6864 -1.1892 -1.0308
15989TIP3    H269459   5.821   3.701  15.056  1.8630 -0.2834 -1.6465
15990TIP3   OH269460   5.788   4.192   2.820 -1.1763 -0.1161  0.0536
15990TIP3    H169461   5.816   4.177   2.730 -0.1612  0.5642  0.2360
15990TIP3    H269462   5.857   4.151   2.873 -0.4346  1.6243  0.5177
15991TIP3   OH269463   4.820   1.437   3.019  0.5937  0.2185  0.0056
15991TIP3    H169464   4.785   1.526   3.016  1.2013  0.5606  2.0023
15991TIP3    H269465   4.904   1.446   3.064  1.2098 -1.2135 -0.8017
15992TIP3   OH269466   1.069   1.027  16.776 -0.1163 -0.1060 -0.4463
15992TIP3    H169467   0.993   1.001  16.725  0.7114 -0.2527 -1.6505
15992TIP3    H269468   1.071   1.122  16.771 -0.8725 -0.0156  0.5946
15993TIP3   OH269469   0.949   6.185   1.684 -0.3530  0.1711 -0.8433
15993TIP3    H169470   1.029   6.186   1.633 -0.6451  1.1360 -1.3073
15993TIP3    H269471   0.977   6.204   1.773  0.0008 -0.1292 -0.8878
15994TIP3   OH269472   5.984   3.085   0.632  0.0035 -0.4418  0.6981
15994TIP3    H169473   6.023   3.003   0.600  2.7254  0.6846  0.8225
15994TIP3    H269474   5.968   3.136   0.552  0.7391 -0.1431  0.7258
15995TIP3   OH269475   5.865   2.567  15.090  0.6038 -0.4926  0.0335
15995TIP3    H169476   5.896   2.540  15.004  1.5354  0.1010  0.1615
15995TIP3    H269477   5.801   2.636  15.073 -0.1212 -1.2306 -0.2212
15996TIP3   OH269478   3.568   2.972  10.580 -0.2188 -0.3942  0.2605
15996TIP3    H169479   3.554   2.880  10.555  0.7841 -0.2857 -0.7860
15996TIP3    H269480   3.613   3.010  10.505  1.2078  0.4399  1.5023
15997TIP3   OH269481   1.441   0.560   5.038  0.0898 -0.3791 -0.0381
15997TIP3    H169482   1.523   0.568   4.990 -0.4168 -0.6832 -0.9709
15997TIP3    H269483   1.446   0.628   5.105  0.0308  1.3225 -1.6694
15998TIP3   OH269484   5.631   1.093  12.315  0.5367  0.1229 -0.4101
15998TIP3    H169485   5.635   1.125  12.405 -0.5494  1.3546 -0.7616
15998TIP3    H269486   5.678   1.010  12.316  1.8488  0.8496  0.9541
15999TIP3   OH269487   1.433   5.499  15.694 -0.2007  0.3377  0.4488
15999TIP3    H169488   1.421   5.440  15.619 -0.3696 -1.4394  1.7896
15999TIP3    H269489   1.472   5.578  15.657 -1.2284 -0.0695 -1.6485
16000TIP3   OH269490   6.424   2.271  13.803  0.0125 -0.3682 -0.2502
16000TIP3    H169491   6.452   2.180  13.798 -2.0593 -1.0529 -0.1723
16000TIP3    H269492   6.329   2.267  13.809 -0.0741  1.7826  0.6914
16001TIP3   OH269493   0.445   5.488   0.359  0.3064 -0.2922  0.0111
16001TIP3    H169494   0.451   5.526   0.447  0.3048 -1.3694  0.5010
16001TIP3    H269495   0.518   5.526   0.311  0.4866  0.0788  0.5713
16002TIP3   OH269496   3.618   4.543   4.102 -0.3080 -0.1847  0.4688
16002TIP3    H169497   3.669   4.463   4.102 -2.7181 -1.8561 -0.5536
16002TIP3    H269498   3.586   4.552   4.192 -0.4850 -0.7224  0.4647
16003TIP3   OH269499   3.170   5.050  13.218  0.3299 -0.9099 -0.0905
16003TIP3    H169500   3.112   5.028  13.145 -0.3350 -0.9002  0.4275
16003TIP3    H269501   3.126   5.014  13.295 -0.9661  2.2929  0.8781
16004TIP3   OH269502   2.762   5.544   4.456  0.3498 -0.1805 -0.2995
16004TIP3    H169503   2.779   5.635   4.432  0.4040 -0.1239 -0.0445
16004TIP3    H269504   2.747   5.546   4.550 -0.0302 -0.3819 -0.3562
16005TIP3   OH269505   1.641   1.403  11.539 -0.4107 -0.3083 -0.0948
16005TIP3    H169506   1.573   1.461  11.575 -1.7090 -1.6376 -0.2711
16005TIP3    H269507   1.665   1.443  11.456 -1.6548 -0.2458 -0.4546
16006TIP3   OH269508   1.289   5.319   0.393  0.6643  0.0622  0.0291
16006TIP3    H169509   1.352   5.356   0.454  1.7387 -3.3155  1.2341
16006TIP3    H269510   1.341   5.298   0.315  0.4802 -0.4034  0.0282
16007TIP3   OH269511   2.087   1.967   1.126  0.1385  0.3651  0.7398
16007TIP3    H169512   2.018   1.940   1.186 -0.9052 -1.1791 -1.0289
16007TIP3    H269513   2.158   1.905   1.142  0.0612  0.2710  0.7185
16008TIP3   OH269514   1.730   2.950   3.834  0.0398 -0.0533  0.2177
16008TIP3    H169515   1.742   2.989   3.921 -1.1042  1.7792 -0.3869
16008TIP3    H269516   1.677   2.872   3.850  1.7586 -1.0595  1.3808
16009TIP3   OH269517   6.053   5.992  14.150  0.0128  0.2606 -0.3624
16009TIP3    H169518   6.101   5.961  14.073  0.6268  1.0564 -0.3139
16009TIP3    H269519   6.001   5.916  14.179 -0.1972 -0.0600 -1.5278
16010TIP3   OH269520   4.852   1.242  14.309  0.0194 -0.0142 -0.4630
16010TIP3    H169521   4.829   1.165  14.359 -0.8079  0.4790 -0.0658
16010TIP3    H269522   4.861   1.210  14.219 -0.3085 -0.5733 -0.3034
16011TIP3   OH269523   0.553   3.875   5.535  0.3659  0.2467 -0.0093
16011TIP3    H169524   0.476   3.838   5.491 -2.0417  2.1567  2.2629
16011TIP3    H269525   0.609   3.799   5.553 -2.3052 -1.7403  0.6773
16012TIP3   OH269526   1.373   4.086  14.387  0.2079 -0.2537  0.1152
16012TIP3    H169527   1.356   3.995  14.415 -0.3168 -0.5825 -1.2190
16012TIP3    H269528   1.447   4.079  14.326  0.3240  0.2588  0.1900
16013TIP3   OH269529   6.006   5.329  13.280 -0.2818 -0.4296  0.4100
16013TIP3    H169530   5.929   5.332  13.222 -0.5762  1.0906  0.8413
16013TIP3    H269531   6.081   5.332  13.220 -0.5816  2.0465  0.0663
16014TIP3   OH269532   1.970   1.510  11.960  0.1618 -0.5019  0.1297
16014TIP3    H169533   1.938   1.422  11.939 -0.0687 -0.3063 -0.3523
16014TIP3    H269534   2.021   1.536  11.883  3.3265 -1.6401  1.6682
16015TIP3   OH269535   1.013   1.340   5.263  0.1035 -0.5017  0.1872
16015TIP3    H169536   1.008   1.402   5.191  0.0759 -1.6162 -0.7960
16015TIP3    H269537   0.925   1.340   5.300  0.1765  0.2386  0.3761
16016TIP3   OH269538   4.464   5.181   4.097 -0.1167 -0.1888 -0.4939
16016TIP3    H169539   4.379   5.178   4.141  0.3640 -0.7441  0.4303
16016TIP3    H269540   4.494   5.271   4.108 -0.2437 -0.1878 -0.1443
16017TIP3   OH269541   4.508   0.619  15.188 -0.2279  0.5964 -0.0958
16017TIP3    H169542   4.574   0.683  15.161  0.9296 -0.2128  0.7045
16017TIP3    H269543   4.511   0.552  15.119  0.2450  0.2507  0.2557
16018TIP3   OH269544   4.234   4.799   5.973  0.2475  0.1441  0.2962
16018TIP3    H169545   4.266   4.849   6.048  1.4704  2.3121 -1.5508
16018TIP3    H269546   4.140   4.790   5.988  0.3516  1.1367  1.7315
16019TIP3   OH269547   4.508   3.488  12.769 -0.2652 -0.3996 -0.2835
16019TIP3    H169548   4.431   3.544  12.775  0.0276 -0.0480  0.4027
16019TIP3    H269549   4.520   3.455  12.858 -0.6355 -1.8456 -0.7409
16020TIP3   OH269550   3.141   1.295  11.878  0.1798 -0.0110 -0.0786
16020TIP3    H169551   3.125   1.329  11.790  0.1901 -0.0928 -0.1123
16020TIP3    H269552   3.055   1.264  11.908 -0.0027  0.8233  0.2908
16021TIP3   OH269553   6.702   2.849   6.059 -0.8704  0.6592  0.2231
16021TIP3    H169554   6.716   2.854   6.153 -0.8216  0.4454  0.2286
16021TIP3    H269555   6.768   2.906   6.021  0.8931 -1.2862  0.1756
16022TIP3   OH269556   4.087   2.079  14.360  0.3918  0.4081  0.1116
16022TIP3    H169557   4.167   2.124  14.384 -0.2512  1.5215  0.2419
16022TIP3    H269558   4.017   2.128  14.403 -0.5263  0.6570 -1.5744
16023TIP3   OH269559   3.685   4.174  11.969  0.3514 -0.1681  0.1851
16023TIP3    H169560   3.682   4.166  12.064 -0.2413 -0.4057  0.1530
16023TIP3    H269561   3.694   4.268  11.952  0.7390 -0.1517  0.4791
16024TIP3   OH269562   3.633   5.913   1.612  0.3443  0.5550 -0.6027
16024TIP3    H169563   3.723   5.945   1.602  0.3192  0.6445 -0.5466
16024TIP3    H269564   3.583   5.964   1.547  0.8806 -1.8085 -3.0356
16025TIP3   OH269565   2.452   5.219   0.783  0.7588 -0.3690  0.4234
16025TIP3    H169566   2.470   5.209   0.877  0.9067  0.2870  0.4679
16025TIP3    H269567   2.403   5.140   0.760  0.3062 -0.3133  1.1605
16026TIP3   OH269568   1.913   2.148  10.429  0.1539 -0.4863  0.4314
16026TIP3    H169569   1.996   2.100  10.435  0.3618 -0.4949 -1.7033
16026TIP3    H269570   1.847   2.079  10.419 -0.1923 -0.4943  2.4360
16027TIP3   OH269571   1.449   4.885  14.368 -0.2419 -0.2150 -0.1412
16027TIP3    H169572   1.368   4.933  14.350 -0.0978 -0.4392 -1.5067
16027TIP3    H269573   1.454   4.881  14.464 -0.8977  1.3901  0.0036
16028TIP3   OH269574   2.159   0.956   5.192 -0.4566  0.5433  0.2703
16028TIP3    H169575   2.157   0.949   5.287 -1.8197  0.2745  0.2371
16028TIP3    H269576   2.191   1.044   5.175  1.7493 -0.0489  0.9167
16029TIP3   OH269577   1.612   4.941  16.540  0.3268 -0.4872  0.1518
16029TIP3    H169578   1.541   4.881  16.561 -1.6133  1.5159 -0.3133
16029TIP3    H269579   1.643   4.913  16.454 -2.2536  0.5920 -1.2154
16030TIP3   OH269580   5.232   5.233  16.039  0.0635  0.1007 -0.2766
16030TIP3    H169581   5.323   5.204  16.028  0.3270  0.5509  0.6443
16030TIP3    H269582   5.200   5.185  16.115  0.5761  2.2852  1.4166
16031TIP3   OH269583   0.951   2.888   1.640 -0.1922 -0.4897  0.4427
16031TIP3    H169584   0.863   2.850   1.640  0.3264 -1.8127 -1.6720
16031TIP3    H269585   1.009   2.815   1.661  0.5531  0.0045  0.1512
16032TIP3   OH269586   6.328   4.576   0.211  0.2512  0.2546 -0.2123
16032TIP3    H169587   6.312   4.562   0.117  1.6802 -2.1499 -0.1606
16032TIP3    H269588   6.250   4.541   0.253  0.5250 -0.6587 -0.4387
16033TIP3   OH269589   6.631   1.116   2.165  0.4290  0.3883  0.0756
16033TIP3    H169590   6.678   1.141   2.085 -0.3769  0.0622 -0.5088
16033TIP3    H269591   6.665   1.176   2.231  1.9401 -0.0815 -0.2381
16034TIP3   OH269592   0.199   0.367   0.860 -0.2652 -0.5154  0.0589
16034TIP3    H169593   0.205   0.306   0.786 -1.4197 -0.6918  0.0850
16034TIP3    H269594   0.208   0.454   0.820 -1.6583 -0.5668 -0.4348
16035TIP3   OH269595   1.425   4.695   0.834  0.2322  0.0550 -0.5566
16035TIP3    H169596   1.444   4.602   0.845  0.3611  0.0438 -0.8710
16035TIP3    H269597   1.430   4.731   0.923 -2.3695 -0.7043 -0.0223
16036TIP3   OH269598   3.798   2.562  15.087 -0.6640  0.5928  0.0972
16036TIP3    H169599   3.833   2.561  14.998  0.4283 -1.2813  0.4841
16036TIP3    H269600   3.747   2.643  15.092  0.8979  1.7615 -1.5646
16037TIP3   OH269601   5.978   5.956   0.733  0.4621  0.2619  0.5575
16037TIP3    H169602   5.917   5.912   0.674  0.2093  2.0372 -0.5753
16037TIP3    H269603   5.937   5.951   0.820  0.3260 -1.4462  0.4157
16038TIP3   OH269604   6.205   4.763   2.358  0.1256  0.3234  0.2779
16038TIP3    H169605   6.135   4.796   2.414 -1.7502 -1.2629 -1.0036
16038TIP3    H269606   6.242   4.842   2.317 -1.1856  1.1752  0.6848
16039TIP3   OH269607   2.892   1.870   6.189  0.1153 -0.0349  0.3221
16039TIP3    H169608   2.880   1.871   6.284  1.6856  1.0219  0.5372
16039TIP3    H269609   2.890   1.962   6.163 -1.6757 -0.3648 -0.8955
16040TIP3   OH269610   0.740   6.821  12.104 -0.6982 -0.3296  0.1456
16040TIP3    H169611   0.834   6.837  12.108 -0.8062  0.3604 -0.0642
16040TIP3    H269612   0.704   6.896  12.057 -1.3663 -0.5480  0.2925
16041TIP3   OH269613   3.439   0.807   2.160  0.1193 -0.3162 -0.2659
16041TIP3    H169614   3.344   0.805   2.145  0.0281 -0.3962  0.3215
16041TIP3    H269615   3.449   0.816   2.255  0.6993  0.6898 -0.4024
16042TIP3   OH269616   5.500   2.039   1.349  0.8116 -0.0494 -0.5457
16042TIP3    H169617   5.426   1.984   1.377  0.9134 -0.2386 -0.6453
16042TIP3    H269618   5.459   2.119   1.317  0.6505 -0.1351 -0.5582
16043TIP3   OH269619   5.290   2.911   3.454 -0.6012  0.0911  0.4105
16043TIP3    H169620   5.202   2.943   3.434 -0.7078  0.9219  2.0600
16043TIP3    H269621   5.335   2.986   3.493  1.5069  0.2677 -2.0574
16044TIP3   OH269622   2.823   5.001   3.497  0.9625 -0.2199 -0.1591
16044TIP3    H169623   2.740   4.982   3.453  1.4904 -0.5599 -1.0528
16044TIP3    H269624   2.798   5.045   3.578 -0.0553  0.3655 -0.7640
16045TIP3   OH269625   3.373   0.182  13.745 -0.2908  0.5266  0.1554
16045TIP3    H169626   3.387   0.123  13.670 -1.1414  1.2578 -0.6036
16045TIP3    H269627   3.415   0.137  13.818  0.5414 -0.2363 -0.7461
16046TIP3   OH269628   0.170   0.773   1.389 -0.0714 -0.2285  0.2344
16046TIP3    H169629   0.227   0.847   1.366  1.9321 -0.8281  2.8069
16046TIP3    H269630   0.165   0.721   1.310  1.5389  0.7675 -0.5727
16047TIP3   OH269631   3.199   2.469   4.686  0.2820  0.1153  0.4025
16047TIP3    H169632   3.223   2.559   4.664 -1.2368  0.3529 -0.3642
16047TIP3    H269633   3.104   2.469   4.689  0.2364 -1.5553  0.0247
16048TIP3   OH269634   4.219   1.600  12.010 -0.8386 -0.3468 -0.4940
16048TIP3    H169635   4.193   1.689  11.985 -1.1800 -0.6856 -1.3947
16048TIP3    H269636   4.259   1.610  12.096 -0.8625  0.6803 -0.5891
16049TIP3   OH269637   5.624   1.180  12.587  0.4018  0.3440 -0.3200
16049TIP3    H169638   5.604   1.268  12.619  1.2743  0.1465  0.8638
16049TIP3    H269639   5.542   1.132  12.594 -0.3647  1.3174 -1.9994
16050TIP3   OH269640   1.376   6.120   5.430 -0.2645  0.2062 -0.5130
16050TIP3    H169641   1.437   6.087   5.363 -0.5763  0.1724 -0.7819
16050TIP3    H269642   1.382   6.215   5.423  0.0408  0.2059 -0.2793
16051TIP3   OH269643   4.050   5.204  15.684  0.1274 -0.6052 -0.2956
16051TIP3    H169644   4.126   5.176  15.632  1.3151 -0.5496  1.3383
16051TIP3    H269645   4.082   5.206  15.774 -1.3849  0.9886  0.2620
16052TIP3   OH269646   4.183   0.903   4.466 -0.0809  0.1514  0.1566
16052TIP3    H169647   4.191   0.837   4.398 -0.2711  1.0414 -0.7598
16052TIP3    H269648   4.092   0.896   4.497 -0.7359  1.3125 -1.3805
16053TIP3   OH269649   0.811   1.354  15.637  0.4805 -0.2858 -0.2780
16053TIP3    H169650   0.746   1.345  15.566 -0.8814  0.4870  0.8243
16053TIP3    H269651   0.850   1.440  15.623  1.2467 -0.7100 -0.8828
16054TIP3   OH269652   1.080   1.387  12.697  0.3552 -0.2909  0.8960
16054TIP3    H169653   1.015   1.338  12.647 -0.3227  0.5399  0.9377
16054TIP3    H269654   1.083   1.473  12.655  2.0914 -0.5706  0.3361
16055TIP3   OH269655   0.648   0.647  12.330  0.0689 -0.2507 -0.3857
16055TIP3    H169656   0.716   0.610  12.386 -1.2795 -2.9369 -0.3578
16055TIP3    H269657   0.618   0.725  12.377  1.2934 -0.5215  0.9085
16056TIP3   OH269658   4.310   2.237  13.758 -0.0997 -0.1953  0.0595
16056TIP3    H169659   4.364   2.271  13.829  0.2161 -0.6113  0.0269
16056TIP3    H269660   4.337   2.145  13.750  1.7457  0.4402 -2.2630
16057TIP3   OH269661   4.796   1.770  12.691  0.5487  0.3823 -0.0069
16057TIP3    H169662   4.835   1.831  12.753 -0.6035  0.0033  1.1463
16057TIP3    H269663   4.854   1.771  12.616  1.9698  0.8975  1.0607
16058TIP3   OH269664   4.042   6.286  13.710  0.8176  0.0325  0.1847
16058TIP3    H169665   3.972   6.348  13.731  0.0846 -0.3451 -1.0823
16058TIP3    H269666   4.109   6.304  13.776  0.5253  1.9973  0.0245
16059TIP3   OH269667   3.135   6.687   1.205 -0.2675  0.1849  0.3477
16059TIP3    H169668   3.082   6.711   1.281  0.6943  0.8294  0.8413
16059TIP3    H269669   3.222   6.669   1.241  0.0171 -0.2078 -0.5155
16060TIP3   OH269670   0.275   2.108  11.963  0.6525  0.0947 -0.0804
16060TIP3    H169671   0.184   2.091  11.990  0.6387  1.1046  0.5589
16060TIP3    H269672   0.321   2.026  11.982  0.1498  0.0128  0.8615
16061TIP3   OH269673   4.318   1.625  15.324  0.4040  0.5311  0.4544
16061TIP3    H169674   4.273   1.585  15.250  3.0841  2.1723 -2.2694
16061TIP3    H269675   4.255   1.688  15.359 -0.3519  0.9504 -1.5481
16062TIP3   OH269676   4.109   1.990  14.715  0.3433 -0.2463 -0.2289
16062TIP3    H169677   4.117   2.081  14.687 -1.4850 -0.1858 -0.7073
16062TIP3    H269678   4.199   1.962  14.736  0.9688  1.5343 -0.4316
16063TIP3   OH269679   6.750   2.480  16.012 -0.3404  0.0279  0.2255
16063TIP3    H169680   6.749   2.490  16.107 -2.8345 -1.2219  0.4108
16063TIP3    H269681   6.782   2.564  15.979  0.3934  0.5528  2.1501
16064TIP3   OH269682   6.596   4.256   4.888  0.3976  0.2420  0.5806
16064TIP3    H169683   6.622   4.344   4.913 -0.0723  0.4204  0.4426
16064TIP3    H269684   6.620   4.248   4.796 -0.5289  0.6025  0.2972
16065TIP3   OH269685   2.730   0.575  16.742 -0.4109 -0.3085  0.7250
16065TIP3    H169686   2.808   0.604  16.790 -0.2775 -0.9934  0.9299
16065TIP3    H269687   2.667   0.646  16.755 -0.7893 -0.9613  2.9044
16066TIP3   OH269688   5.273   2.408   0.553 -0.0721 -0.0063 -0.7000
16066TIP3    H169689   5.228   2.374   0.475 -0.6666 -0.2636 -0.2544
16066TIP3    H269690   5.265   2.337   0.617  0.0698  0.3597 -0.2793
16067TIP3   OH269691   3.344   5.258   1.403  0.1597  0.2337 -0.0770
16067TIP3    H169692   3.346   5.211   1.486  0.0699  0.9479  0.3421
16067TIP3    H269693   3.272   5.320   1.412 -2.4484 -2.2041 -2.1372
16068TIP3   OH269694   0.699   2.401   1.812  0.2702  0.3742  0.3938
16068TIP3    H169695   0.742   2.316   1.824  1.1513  0.8897  1.0772
16068TIP3    H269696   0.650   2.392   1.730  0.9097 -0.5699  0.0916
16069TIP3   OH269697   0.611   6.409   6.338  0.4545  0.5874 -0.3506
16069TIP3    H169698   0.588   6.499   6.317 -0.1561 -0.0069 -2.4630
16069TIP3    H269699   0.569   6.393   6.423  1.7736  2.6744  0.7957
16070TIP3   OH269700   5.008   4.320   4.161 -0.5724 -0.1029  0.0913
16070TIP3    H169701   5.068   4.317   4.235  0.3438  0.3058 -0.6143
16070TIP3    H269702   5.054   4.371   4.094 -1.9415  0.7154 -0.2717
16071TIP3   OH269703   6.097   3.760  14.036 -0.0585 -0.2224 -0.1288
16071TIP3    H169704   6.050   3.745  13.954  0.9798 -0.3536 -0.7146
16071TIP3    H269705   6.189   3.747  14.014  0.3265  0.7392  0.8242
16072TIP3   OH269706   1.390   5.937  12.743  0.2685  0.0712  0.4200
16072TIP3    H169707   1.460   5.872  12.740  0.4722  0.2427  1.2167
16072TIP3    H269708   1.430   6.015  12.781 -0.3905  0.1065  1.0785
16073TIP3   OH269709   4.046   2.303   1.837 -0.0845 -0.3707 -0.3495
16073TIP3    H169710   3.971   2.243   1.839  0.1359 -0.6880 -1.2592
16073TIP3    H269711   4.114   2.256   1.790  0.7837 -0.1667  0.6674
16074TIP3   OH269712   4.765   4.481   2.511 -0.0071  0.7956 -0.2558
16074TIP3    H169713   4.794   4.571   2.527 -0.0213  0.6320  0.7220
16074TIP3    H269714   4.831   4.445   2.452  0.4001  1.2197 -0.0658
16075TIP3   OH269715   3.372   5.833  15.002 -0.6289 -0.8764 -0.2015
16075TIP3    H169716   3.316   5.859  14.929 -1.7037  0.7683  1.1255
16075TIP3    H269717   3.378   5.911  15.057  0.6551 -1.8740  1.1702
16076TIP3   OH269718   3.774   2.570  10.568 -0.8015 -0.0853 -0.2794
16076TIP3    H169719   3.682   2.550  10.585 -0.0389 -1.6233  2.7689
16076TIP3    H269720   3.800   2.629  10.638  0.5176  0.4900 -1.1997
16077TIP3   OH269721   3.045   3.175   6.026  0.1715  0.1479 -0.5029
16077TIP3    H169722   3.018   3.257   6.066  1.0353  0.8254 -1.2765
16077TIP3    H269723   3.136   3.188   6.001  0.8106 -1.5860  0.7259
16078TIP3   OH269724   5.108   3.815   0.456  0.0111 -0.0134 -0.1070
16078TIP3    H169725   5.160   3.894   0.471 -0.6842  0.6618 -1.2492
16078TIP3    H269726   5.150   3.773   0.381 -0.4286 -0.0513 -0.3281
16079TIP3   OH269727   0.967   5.841   3.122  0.0794 -0.0996  0.1020
16079TIP3    H169728   1.031   5.874   3.059  1.1481 -2.1478  0.0402
16079TIP3    H269729   0.920   5.772   3.076 -0.9009  0.1008  0.7609
16080TIP3   OH269730   3.312   3.009  15.869  0.4744  0.2144  0.5663
16080TIP3    H169731   3.237   3.009  15.809  0.4485  0.5140  0.5965
16080TIP3    H269732   3.330   3.102  15.884  2.5973  0.2574 -1.6452
16081TIP3   OH269733   2.954   3.423   5.628 -0.5705  0.7294  0.2677
16081TIP3    H169734   2.891   3.419   5.556  1.4126  2.2140 -1.6796
16081TIP3    H269735   2.932   3.348   5.683 -1.4542 -1.2171 -2.5301
16082TIP3   OH269736   4.686   2.534   1.484 -0.0375 -0.4037 -0.3806
16082TIP3    H169737   4.694   2.514   1.390 -1.1367  0.3510 -0.6575
16082TIP3    H269738   4.723   2.621   1.493 -1.1337  0.0807 -0.3761
16083TIP3   OH269739   3.248   2.532   6.845 -0.0391 -0.0180 -0.2395
16083TIP3    H169740   3.293   2.611   6.816 -1.0813  1.4198  1.7908
16083TIP3    H269741   3.182   2.563   6.906 -2.2680 -2.2434 -1.3134
16084TIP3   OH269742   4.608   2.294  14.246 -0.0692  0.1786 -0.2169
16084TIP3    H169743   4.540   2.354  14.278 -0.3296 -0.1320 -0.1850
16084TIP3    H269744   4.683   2.351  14.227  0.2539  0.3140  1.3445
16085TIP3   OH269745   0.843   5.711  10.424 -0.3382 -0.1259  0.3142
16085TIP3    H169746   0.813   5.623  10.403  0.2135  0.6180 -4.6591
16085TIP3    H269747   0.935   5.713  10.398 -0.2550  1.8507  0.5547
16086TIP3   OH269748   4.048   1.565   3.853  0.0879  0.2452 -0.2308
16086TIP3    H169749   4.067   1.491   3.911 -0.2951 -0.5879 -1.1426
16086TIP3    H269750   4.066   1.643   3.907  1.3489 -0.4922  0.4697
16087TIP3   OH269751   3.510   3.681   2.178 -0.2199  0.0245  0.1866
16087TIP3    H169752   3.486   3.772   2.194  2.6228  1.4043 -2.4995
16087TIP3    H269753   3.605   3.679   2.186 -0.2129 -2.8353  0.4740
16088TIP3   OH269754   1.783   0.013  15.710  0.4209  0.1814  0.6157
16088TIP3    H169755   1.778   0.022  15.805 -2.0753  0.4662  0.5261
16088TIP3    H269756   1.755   0.098  15.676  0.6567 -0.1262 -0.3800
16089TIP3   OH269757   4.423   4.031  14.152 -0.3001  0.1100 -0.2931
16089TIP3    H169758   4.481   4.021  14.076  0.1663  0.4771  0.0100
16089TIP3    H269759   4.408   3.941  14.182 -0.5689 -0.0461 -0.8766
16090TIP3   OH269760   1.555   0.311  16.783 -0.7151 -0.3442 -0.3511
16090TIP3    H169761   1.556   0.219  16.757  2.0301 -0.8068  0.9899
16090TIP3    H269762   1.597   0.357  16.710 -1.7616 -0.1688 -0.8624
16091TIP3   OH269763   5.648   2.953  13.933 -0.0667  0.0672 -0.0517
16091TIP3    H169764   5.724   2.945  13.991  1.3941 -0.4606 -1.9544
16091TIP3    H269765   5.683   2.985  13.850 -2.1247  0.9865 -0.6445
16092TIP3   OH269766   4.875   2.158   4.290  0.0771 -0.4399 -0.1984
16092TIP3    H169767   4.860   2.094   4.220  1.2113 -0.3953 -0.4925
16092TIP3    H269768   4.946   2.213   4.257  0.3394 -0.1566  0.8211
16093TIP3   OH269769   5.617   6.130  12.983 -0.0657  0.2339 -0.4651
16093TIP3    H169770   5.615   6.221  13.010  0.3808 -0.3667  1.7875
16093TIP3    H269771   5.557   6.085  13.042  0.8711 -1.1590 -0.5093
16094TIP3   OH269772   4.267   2.995  12.311 -0.3850 -0.5877  0.4597
16094TIP3    H169773   4.280   3.043  12.392  0.6511 -0.3290  0.1499
16094TIP3    H269774   4.205   3.049  12.261  1.7304  1.1723 -0.4343
16095TIP3   OH269775   1.191   6.358  12.226  0.4965  0.4366 -0.2500
16095TIP3    H169776   1.122   6.388  12.166  0.4084 -0.1215 -0.4380
16095TIP3    H269777   1.233   6.286  12.180  0.7773  0.3438  0.1428
16096TIP3   OH269778   5.072   4.509   0.936 -0.1680 -0.0498 -0.0390
16096TIP3    H169779   5.155   4.552   0.916 -1.1214  0.8634 -2.4702
16096TIP3    H269780   5.065   4.440   0.869 -0.3642 -1.6169  1.5355
16097TIP3   OH269781   6.682   3.377  15.763  0.4143 -0.2970 -0.1970
16097TIP3    H169782   6.752   3.437  15.787 -0.0061  0.1581 -0.0844
16097TIP3    H269783   6.661   3.399  15.672 -0.6238  0.6280  0.2484
16098TIP3   OH269784   4.458   1.955  16.168  0.2404 -0.2181 -0.4897
16098TIP3    H169785   4.375   1.912  16.148 -0.3106  0.8070 -0.4648
16098TIP3    H269786   4.437   2.048  16.170  1.5580  0.1298 -1.3322
16099TIP3   OH269787   5.458   5.534  11.687  0.0959  0.7649  0.5373
16099TIP3    H169788   5.480   5.471  11.756  1.3228  0.0717 -0.4673
16099TIP3    H269789   5.372   5.506  11.656 -0.5983  1.2444  1.9400
16100TIP3   OH269790   6.026   4.152  13.114 -0.0559 -0.3894  0.3309
16100TIP3    H169791   5.982   4.202  13.046  0.4368  0.0797  0.3477
16100TIP3    H269792   6.119   4.164  13.096  0.0745 -0.6673  0.7980
16101TIP3   OH269793   1.815   3.927  11.720 -0.2507  0.2814  0.1599
16101TIP3    H169794   1.744   3.865  11.735 -0.6602  0.3585 -1.3089
16101TIP3    H269795   1.879   3.878  11.668  0.1625  0.6025  0.3590
16102TIP3   OH269796   5.942   0.738   4.647 -0.0609  0.8141 -0.3533
16102TIP3    H169797   5.983   0.655   4.624 -0.7098  0.4785 -0.3158
16102TIP3    H269798   5.972   0.800   4.580 -0.7999  0.1888 -1.2691
16103TIP3   OH269799   5.682   5.300  15.504  0.4431 -0.1065  0.0817
16103TIP3    H169800   5.696   5.274  15.595  0.5636 -2.4468 -0.5271
16103TIP3    H269801   5.770   5.305  15.466  0.3442 -0.2008 -0.1649
16104TIP3   OH269802   6.636   4.445   1.542  0.6412 -0.4022  0.2088
16104TIP3    H169803   6.613   4.463   1.633 -1.7262  0.3852 -0.4681
16104TIP3    H269804   6.667   4.529   1.508 -0.6301 -0.0818 -0.2468
16105TIP3   OH269805   1.845   3.768  14.756  0.4868 -0.3120  0.1237
16105TIP3    H169806   1.874   3.677  14.763 -0.2084 -0.6957 -1.4002
16105TIP3    H269807   1.921   3.814  14.721  0.5206 -0.5307 -0.1022
16106TIP3   OH269808   5.504   3.545  12.871 -0.2016  0.0582 -0.1340
16106TIP3    H169809   5.542   3.632  12.876 -0.3394  0.0539  1.6242
16106TIP3    H269810   5.494   3.528  12.777  2.5306  0.7248 -0.6159
16107TIP3   OH269811   4.617   0.712  11.007 -0.2053  0.9984 -0.3713
16107TIP3    H169812   4.574   0.769  11.071 -0.5368  1.2948 -0.8480
16107TIP3    H269813   4.548   0.653  10.977  0.2739 -0.0712  0.5578
16108TIP3   OH269814   0.258   2.801  10.242  0.0871  0.4921 -0.3566
16108TIP3    H169815   0.260   2.877  10.300 -1.7420  0.0650  0.3336
16108TIP3    H269816   0.179   2.813  10.189 -0.6016 -1.2357  0.2095
16109TIP3   OH269817   2.400   4.444  12.956  0.2846 -0.2510  0.2471
16109TIP3    H169818   2.397   4.539  12.947 -1.5124 -0.4013 -1.2939
16109TIP3    H269819   2.461   4.429  13.029  0.1695  2.0795  0.9077
16110TIP3   OH269820   2.670   6.824   5.751 -0.2618 -0.1815  0.3123
16110TIP3    H169821   2.652   6.751   5.810  0.9137 -0.0467  0.8643
16110TIP3    H269822   2.749   6.797   5.703  1.0567  1.2911  1.5574
16111TIP3   OH269823   4.668   3.782   6.343 -0.1946  0.2031 -0.7097
16111TIP3    H169824   4.754   3.797   6.381  0.0213  0.3571 -1.2522
16111TIP3    H269825   4.644   3.867   6.305 -1.7346  0.9473  1.6913
16112TIP3   OH269826   3.859   2.060   4.465 -0.1626  0.0457  0.9442
16112TIP3    H169827   3.876   1.976   4.507 -0.2863 -0.2544  0.4128
16112TIP3    H269828   3.907   2.124   4.517  1.4932 -0.6042  0.2696
16113TIP3   OH269829   5.996   2.931  12.070  0.5134  0.3744  0.0424
16113TIP3    H169830   5.921   2.880  12.103  0.2465  0.0825 -0.9770
16113TIP3    H269831   5.956   2.999  12.016  0.9781 -1.3781 -2.7617
16114TIP3   OH269832   3.869   0.028  15.378  0.4685 -0.4553 -0.0972
16114TIP3    H169833   3.852  -0.013  15.294  0.1580 -0.1352 -0.1942
16114TIP3    H269834   3.784   0.026  15.423  0.2912  0.6483 -0.3598
16115TIP3   OH269835   5.008   1.623   0.544 -0.3431 -0.2805  0.2250
16115TIP3    H169836   5.039   1.539   0.580 -2.0480 -0.6036  1.0135
16115TIP3    H269837   4.958   1.600   0.466  1.6329  0.2769 -1.2925
16116TIP3   OH269838   0.603   1.853   3.715  1.3605 -0.4407 -0.2824
16116TIP3    H169839   0.682   1.805   3.690  1.9336  1.1846 -1.7798
16116TIP3    H269840   0.610   1.863   3.810  2.1622 -1.6253 -0.1860
16117TIP3   OH269841   2.567   4.379   5.423 -0.0299 -0.1326 -0.5287
16117TIP3    H169842   2.513   4.430   5.363  2.1459  0.3661 -2.2047
16117TIP3    H269843   2.554   4.419   5.508 -1.0284  0.9911 -1.1835
16118TIP3   OH269844   1.258   0.716  14.082  0.2799  0.2691 -0.5009
16118TIP3    H169845   1.291   0.627  14.096  1.4100  0.6857 -0.4185
16118TIP3    H269846   1.234   0.718  13.990  0.7783  0.0462 -0.6388
16119TIP3   OH269847   5.042   2.981   3.363  0.0076  0.4743  0.1903
16119TIP3    H169848   4.961   3.011   3.404 -1.1198 -0.7044 -1.0676
16119TIP3    H269849   5.013   2.915   3.299  2.0845 -1.0845  0.7614
16120TIP3   OH269850   3.004   0.405   4.980  0.0199  0.7751 -0.1144
16120TIP3    H169851   2.962   0.361   4.907 -0.5843 -2.1209  1.8137
16120TIP3    H269852   2.937   0.465   5.014 -1.3595 -1.1800  0.7551
16121TIP3   OH269853   3.206   4.279   3.733  0.3238 -0.4363 -0.0058
16121TIP3    H169854   3.140   4.312   3.673  0.2169  0.2971  0.5048
16121TIP3    H269855   3.252   4.357   3.763 -0.4388 -0.6375  1.8141
16122TIP3   OH269856   6.173   3.792  15.876  0.2736  0.0399 -0.9611
16122TIP3    H169857   6.108   3.722  15.868 -0.0118  0.4485 -2.3983
16122TIP3    H269858   6.137   3.849  15.945 -1.1904  0.5410 -2.0897
16123TIP3   OH269859   1.326   6.609  13.445  0.2606 -0.2989 -0.2208
16123TIP3    H169860   1.349   6.663  13.370 -0.8296  1.1177  0.4069
16123TIP3    H269861   1.382   6.642  13.516 -1.7815  1.5255  0.6893
16124TIP3   OH269862   4.488   3.545  14.221 -0.5638 -0.1516 -1.1415
16124TIP3    H169863   4.436   3.466  14.206 -1.5985  0.0111  1.1201
16124TIP3    H269864   4.560   3.517  14.277 -2.6703  0.8836  2.4066
16125TIP3   OH269865   1.757   6.400   4.012  0.1748  0.0919  0.4346
16125TIP3    H169866   1.740   6.492   4.032 -0.3023  0.4859 -1.5191
16125TIP3    H269867   1.673   6.356   4.025  0.3585 -0.0368  1.1957
16126TIP3   OH269868   2.878   6.806  15.125  0.5172 -0.6680 -0.5105
16126TIP3    H169869   2.928   6.729  15.098  0.4207 -0.4383 -1.3687
16126TIP3    H269870   2.942   6.876  15.132  0.2110 -0.0935 -2.7111
16127TIP3   OH269871   5.911   2.328  11.550  0.1837  0.3933  0.3356
16127TIP3    H169872   5.880   2.274  11.623  0.5423  0.1733  0.3269
16127TIP3    H269873   6.005   2.335  11.563  0.2479  0.3724 -0.0905
16128TIP3   OH269874   4.706   1.389   0.059  0.5986  0.1698 -0.2072
16128TIP3    H169875   4.617   1.401   0.092 -0.1983 -1.1673 -1.6955
16128TIP3    H269876   4.723   1.466   0.005  1.4047  1.7110  2.1235
16129TIP3   OH269877   2.387   3.421  16.074 -0.0079  0.2264  0.1438
16129TIP3    H169878   2.454   3.371  16.028 -0.3288  1.1930 -1.4207
16129TIP3    H269879   2.305   3.375  16.055  0.0523 -0.4551  1.3530
16130TIP3   OH269880   5.766   1.866   3.080 -0.2069  0.0132  0.6581
16130TIP3    H169881   5.679   1.870   3.041 -0.2652  2.4030  0.8718
16130TIP3    H269882   5.824   1.846   3.007 -0.5603  2.2214 -0.3187
16131TIP3   OH269883   0.995   5.366   0.184  0.3194 -0.6426 -0.4036
16131TIP3    H169884   1.060   5.434   0.163  1.3591 -1.4538  0.0886
16131TIP3    H269885   0.965   5.388   0.272  0.0530 -0.3686 -0.5608
16132TIP3   OH269886   0.191   0.154  15.362  0.1196 -0.4554 -0.0256
16132TIP3    H169887   0.177   0.231  15.307  0.7230 -0.4545 -0.1856
16132TIP3    H269888   0.125   0.092  15.333  1.9632 -1.4046 -2.5243
16133TIP3   OH269889   6.070   5.701   1.314  0.3134 -0.2738 -0.1481
16133TIP3    H169890   5.981   5.700   1.280  1.1534  2.7429 -2.9099
16133TIP3    H269891   6.125   5.689   1.237  2.3451  0.4182  1.1112
16134TIP3   OH269892   2.368   0.575   4.414  0.3224  0.1274  0.2018
16134TIP3    H169893   2.308   0.613   4.350 -0.7744 -1.7172  0.0868
16134TIP3    H269894   2.347   0.621   4.496 -0.8433 -0.0702  0.0312
16135TIP3   OH269895   2.376   5.606  12.059  0.1301  0.1070 -0.2857
16135TIP3    H169896   2.372   5.697  12.031  1.9751  1.3780  3.0682
16135TIP3    H269897   2.288   5.587  12.090  0.2600  1.5811  1.1110
16136TIP3   OH269898   5.414   5.535   4.362 -0.2916  0.2122  0.2464
16136TIP3    H169899   5.384   5.504   4.276  1.0922 -1.2420  0.2513
16136TIP3    H269900   5.383   5.469   4.423  2.2131 -0.9949  0.3337
16137TIP3   OH269901   5.201   3.709   6.419  0.5132  0.1517  0.0926
16137TIP3    H169902   5.160   3.641   6.472  1.1311 -1.4428 -1.3962
16137TIP3    H269903   5.291   3.679   6.405  0.4623  0.6580 -1.5607
16138TIP3   OH269904   6.523   2.870   2.941 -0.0353 -0.2385  0.7213
16138TIP3    H169905   6.456   2.932   2.966  1.6059  0.6313  3.3076
16138TIP3    H269906   6.478   2.785   2.938 -1.6852  0.6310  0.0064
16139TIP3   OH269907   5.511   6.041  11.917  0.1984 -0.2178  0.1700
16139TIP3    H169908   5.538   6.133  11.914  0.3819 -0.2321  1.1091
16139TIP3    H269909   5.593   5.992  11.911  0.2395 -0.2904  1.2567
16140TIP3   OH269910   3.789   4.972   1.320  0.9405 -0.1749 -0.3401
16140TIP3    H169911   3.879   4.986   1.289  0.3719 -0.8447 -2.4758
16140TIP3    H269912   3.756   5.061   1.335  1.5587  0.1375 -0.7499
16141TIP3   OH269913   6.501   6.646   2.283 -0.4208  0.3225  0.3446
16141TIP3    H169914   6.541   6.665   2.368 -1.2873 -0.9484  1.0699
16141TIP3    H269915   6.575   6.620   2.228 -0.0282 -0.5014  1.2203
16142TIP3   OH269916   1.303   5.120   0.967  0.0025 -0.1281  0.3451
16142TIP3    H169917   1.375   5.117   1.030 -1.4075  0.5014  2.0761
16142TIP3    H269918   1.226   5.142   1.020 -1.2680  0.3692 -1.6074
16143TIP3   OH269919   2.421   1.966   0.881 -0.0219  0.1664 -0.1335
16143TIP3    H169920   2.334   1.984   0.846  0.7265  1.3305 -1.5113
16143TIP3    H269921   2.407   1.948   0.974 -1.4317  3.2552  0.3395
16144TIP3   OH269922   4.083   6.517  12.352  0.1317 -0.7473  0.8254
16144TIP3    H169923   4.074   6.423  12.333 -1.8580 -0.7587  1.5934
16144TIP3    H269924   4.003   6.539  12.400  1.2038  1.0565  1.8648
16145TIP3   OH269925   3.952   5.564   5.794 -0.4660 -0.1198  0.3733
16145TIP3    H169926   3.863   5.530   5.779 -1.2797  1.2641  1.7697
16145TIP3    H269927   3.965   5.555   5.888  1.0932 -0.7423  0.1162
16146TIP3   OH269928   1.043   5.284  10.545 -0.1180 -0.2478  0.3265
16146TIP3    H169929   1.134   5.278  10.573  0.4010  1.4414 -0.8538
16146TIP3    H269930   1.026   5.201  10.499  0.7523 -0.6456  0.7107
16147TIP3   OH269931   5.607   6.739   4.453  0.2107  0.4172 -0.0341
16147TIP3    H169932   5.522   6.755   4.413  0.3867  3.6638  0.6418
16147TIP3    H269933   5.588   6.684   4.529 -1.3515  1.2624  0.2149
16148TIP3   OH269934   3.670   5.315  15.428 -0.2370  0.0551 -0.0999
16148TIP3    H169935   3.636   5.381  15.368 -1.7247  0.4709  1.1212
16148TIP3    H269936   3.745   5.277  15.383 -0.2449  1.5573 -1.4526
16149TIP3   OH269937   1.113   2.840   3.905  0.2995  0.7107 -0.1586
16149TIP3    H169938   1.048   2.788   3.857  1.1089  1.7797 -2.5549
16149TIP3    H269939   1.061   2.900   3.958 -0.6724  0.5092 -0.8517
16150TIP3   OH269940   2.281   1.342   2.433  0.4245 -0.4720  0.1758
16150TIP3    H169941   2.297   1.300   2.349  1.8894  1.3839 -0.5387
16150TIP3    H269942   2.191   1.318   2.455  0.1832 -1.4191 -1.6543
16151TIP3   OH269943   4.590   5.997   3.672 -0.0769 -0.3880 -0.0208
16151TIP3    H169944   4.672   6.042   3.651 -0.4433  0.0718 -0.4685
16151TIP3    H269945   4.551   5.976   3.588 -0.2621 -0.9095  0.1886
16152TIP3   OH269946   5.592   5.642  12.029  0.3026  0.5421 -0.5616
16152TIP3    H169947   5.571   5.565  11.976  1.6481  0.2105 -0.6376
16152TIP3    H269948   5.507   5.674  12.059 -0.2459 -1.3912  0.0802
16153TIP3   OH269949   4.447   5.237  17.043 -0.1538  0.0477  0.2799
16153TIP3    H169950   4.432   5.143  17.034  0.1958 -0.0018  0.1768
16153TIP3    H269951   4.433   5.272  16.955 -0.1032  0.0648  0.2785
16154TIP3   OH269952   1.855   3.066   4.786  0.0724 -0.4590 -0.4871
16154TIP3    H169953   1.912   3.038   4.714  0.1226 -1.3627 -0.1087
16154TIP3    H269954   1.907   3.132   4.833  0.9405 -1.4869  0.0336
16155TIP3   OH269955   1.441   0.739   2.655 -0.0597  0.2166  0.2985
16155TIP3    H169956   1.429   0.785   2.738 -0.2211  1.8704 -0.5920
16155TIP3    H269957   1.366   0.767   2.601  0.3995 -0.2895 -0.6329
16156TIP3   OH269958   3.842   1.463   4.646 -0.6399 -0.5716  0.4874
16156TIP3    H169959   3.831   1.558   4.638  0.6080 -0.5031 -0.7340
16156TIP3    H269960   3.778   1.426   4.586 -0.1843 -0.4449 -0.0863
16157TIP3   OH269961   1.126   3.355  11.456 -0.2107  0.0147 -0.3729
16157TIP3    H169962   1.137   3.273  11.504  2.6619  0.7046  0.3198
16157TIP3    H269963   1.100   3.327  11.368 -1.3816 -1.4845  0.4055
16158TIP3   OH269964   1.516   1.774   0.756  0.3203 -0.2985  0.6290
16158TIP3    H169965   1.540   1.813   0.673  0.1674 -1.3643  0.0642
16158TIP3    H269966   1.535   1.841   0.821  0.8706  0.3811 -0.2188
16159TIP3   OH269967   4.690   2.053  14.886  0.3406  0.4547  0.0473
16159TIP3    H169968   4.668   2.145  14.901  0.0405  0.3924 -0.0099
16159TIP3    H269969   4.668   2.009  14.968 -0.1168  0.3269 -0.1429
16160TIP3   OH269970   2.802   2.553   2.911  0.2312  0.4311 -0.1041
16160TIP3    H169971   2.715   2.534   2.946  0.5316 -1.0900 -0.1247
16160TIP3    H269972   2.817   2.485   2.846  2.1010 -0.3296  1.0637
16161TIP3   OH269973   1.766   1.418   2.982 -0.6275 -0.4510 -0.2527
16161TIP3    H169974   1.692   1.407   3.041  0.9961  0.1317  2.0582
16161TIP3    H269975   1.786   1.512   2.987 -0.0416 -0.5144 -1.2131
16162TIP3   OH269976   3.486   3.247   0.070  0.5799  0.0080  0.4652
16162TIP3    H169977   3.559   3.204   0.025  0.0754  0.3789 -0.7441
16162TIP3    H269978   3.409   3.220   0.021  0.2564  2.4508 -0.5127
16163TIP3   OH269979   1.050   5.186  12.002 -0.3765 -0.0489 -0.3512
16163TIP3    H169980   0.995   5.233  11.940  0.8541  1.0022 -0.6974
16163TIP3    H269981   1.088   5.114  11.952  0.8756  0.9890 -0.9812
16164TIP3   OH269982   5.837   3.836   0.359 -1.1385 -0.1554  0.3624
16164TIP3    H169983   5.863   3.747   0.333  1.4207  0.4333  0.5662
16164TIP3    H269984   5.759   3.824   0.413 -0.2833 -2.3902  1.2369
16165TIP3   OH269985   3.078   3.986   0.921 -0.3610  0.1510  0.2037
16165TIP3    H169986   3.163   4.020   0.893  0.7336 -0.8956  2.0995
16165TIP3    H269987   3.027   3.980   0.839  1.6354  0.0220 -1.0967
16166TIP3   OH269988   5.521   3.254  16.582 -0.8313 -0.2077  0.8195
16166TIP3    H169989   5.608   3.275  16.547 -1.6234  1.3147 -0.3178
16166TIP3    H269990   5.536   3.175  16.634  1.3609  0.3516  1.1792
16167TIP3   OH269991   3.215   4.111  15.487  0.0270  0.0634  0.0658
16167TIP3    H169992   3.287   4.049  15.492  0.1501 -0.0083 -1.7278
16167TIP3    H269993   3.215   4.156  15.571 -0.9562 -3.2438  2.0206
16168TIP3   OH269994   3.557   1.060   2.735 -0.3164 -0.2207  0.0564
16168TIP3    H169995   3.463   1.040   2.735 -0.4836  0.2759 -2.4032
16168TIP3    H269996   3.598   0.979   2.705 -0.1042  0.0128 -0.2886
16169TIP3   OH269997   6.600   4.023  14.222 -0.6598  0.5269  0.2635
16169TIP3    H169998   6.506   4.008  14.212 -0.6286  0.4399  0.0990
16169TIP3    H269999   6.640   3.937  14.209 -0.3566  0.9829 -2.3561
16170TIP3   OH270000   3.876   5.761  16.211 -0.3355  0.0257 -0.7338
16170TIP3    H170001   3.922   5.828  16.161  0.6236  0.2959  0.4653
16170TIP3    H270002   3.805   5.809  16.254  0.4309  0.3272  0.2312
16171TIP3   OH270003   3.048   6.843   4.016 -0.0256  0.1381  0.5490
16171TIP3    H170004   3.076   6.847   4.108  0.3573 -0.0977  0.4478
16171TIP3    H270005   2.966   6.892   4.013  0.2909  0.6989  0.8963
16172TIP3   OH270006   2.972   1.516  12.624 -0.2220 -0.3503  0.3562
16172TIP3    H170007   2.945   1.527  12.533  2.5660  0.6761 -0.4663
16172TIP3    H270008   3.008   1.427  12.628  0.2618 -0.1621  0.2602
16173TIP3   OH270009   0.738   5.466  13.959 -0.1607  0.0123  0.1890
16173TIP3    H170010   0.668   5.415  13.919  0.0792 -0.6160  0.5438
16173TIP3    H270011   0.750   5.426  14.045 -0.5904  1.2615  0.8496
16174TIP3   OH270012   0.697   0.193   0.319 -0.6529  0.5119 -0.5563
16174TIP3    H170013   0.768   0.236   0.365 -0.6646 -0.7328  0.7026
16174TIP3    H270014   0.646   0.265   0.281 -1.8770  1.8812  3.1537
16175TIP3   OH270015   5.307   6.015   5.051 -0.4457 -0.2402 -0.4941
16175TIP3    H170016   5.399   6.039   5.048 -0.7633  1.0185 -1.6137
16175TIP3    H270017   5.305   5.926   5.085  1.0252  0.4420  1.5175
16176TIP3   OH270018   5.666   4.647   0.352 -0.2772 -0.3452 -0.1843
16176TIP3    H170019   5.623   4.588   0.290 -1.3496  1.1197 -0.8671
16176TIP3    H270020   5.595   4.697   0.391  0.3381 -1.2496  2.3368
16177TIP3   OH270021   3.801   6.143   1.515 -0.3636  0.8244 -0.1727
16177TIP3    H170022   3.805   6.166   1.422  0.8862  1.4670  0.0207
16177TIP3    H270023   3.883   6.095   1.531  0.1777  2.0650  0.9299
16178TIP3   OH270024   3.028   3.079  10.728  0.5926  0.3843  0.1396
16178TIP3    H170025   2.945   3.067  10.683  0.3295  0.3809  0.6250
16178TIP3    H270026   3.015   3.156  10.784  0.7199  0.0284  0.6687
16179TIP3   OH270027   0.593   0.504  12.017 -0.6314 -0.6148  0.0817
16179TIP3    H170028   0.558   0.591  12.034  2.6150  0.6453  1.1255
16179TIP3    H270029   0.581   0.492  11.923 -2.8361  0.0739  0.2109
16180TIP3   OH270030   1.778   2.617  15.654  0.7513  1.1461  0.0918
16180TIP3    H170031   1.852   2.672  15.626  1.1768 -0.8520 -3.2535
16180TIP3    H270032   1.817   2.531  15.669 -0.6059  0.5548  0.3517
16181TIP3   OH270033   0.246   3.453  15.880  0.4149  0.9841  0.0539
16181TIP3    H170034   0.225   3.361  15.899 -0.7470  1.0392 -0.8345
16181TIP3    H270035   0.242   3.497  15.964  1.2018  0.1958  0.5244
16182TIP3   OH270036   3.064   3.163   1.763  0.2794 -0.5919 -0.5571
16182TIP3    H170037   3.047   3.138   1.673 -2.1478  0.6303 -0.5207
16182TIP3    H270038   3.084   3.256   1.759  0.1013 -0.5142  0.1795
16183TIP3   OH270039   3.722   1.271   1.618 -0.3988 -0.1374 -0.2241
16183TIP3    H170040   3.633   1.302   1.599 -0.5408 -0.2204  0.2854
16183TIP3    H270041   3.771   1.351   1.637 -0.6349 -0.1762  0.5689
16184TIP3   OH270042   1.842   5.650  17.123 -0.0023 -0.5080 -0.3014
16184TIP3    H170043   1.787   5.701  17.182  1.6037  0.3189  0.5824
16184TIP3    H270044   1.931   5.682  17.140  0.5164  0.1793 -3.5770
16185TIP3   OH270045   1.065   0.104   0.950  0.2212  0.6772  0.1881
16185TIP3    H170046   1.099   0.101   1.039  0.7523  0.4050 -0.0246
16185TIP3    H270047   1.059   0.197   0.930 -0.0337  0.7441  0.5560
16186TIP3   OH270048   6.411   5.396  11.967 -0.2083  0.6596 -0.3750
16186TIP3    H170049   6.383   5.387  11.875  0.0634 -0.2834 -0.3718
16186TIP3    H270050   6.476   5.466  11.965 -0.7782  1.1892 -0.7716
16187TIP3   OH270051   4.823   6.221   0.295  0.0776  0.1113  0.3821
16187TIP3    H170052   4.838   6.303   0.248 -0.9549 -0.3641 -0.8387
16187TIP3    H270053   4.894   6.163   0.266 -0.2932 -0.0325 -0.2512
16188TIP3   OH270054   1.261   6.809   0.121 -0.8221  0.0830  0.3164
16188TIP3    H170055   1.244   6.875   0.053 -1.9034  0.0678  0.5446
16188TIP3    H270056   1.207   6.838   0.195  3.0064  2.1445  2.5927
16189TIP3   OH270057   1.951   2.543  12.361  0.5703  0.5057  0.5263
16189TIP3    H170058   1.890   2.476  12.393  0.7335  0.3795  0.5760
16189TIP3    H270059   1.895   2.607  12.317  0.3675  0.5525  0.8444
16190TIP3   OH270060   0.322   0.563  12.251  0.4173  0.0561 -0.0820
16190TIP3    H170061   0.386   0.550  12.321 -0.0672  1.1110  0.5867
16190TIP3    H270062   0.354   0.640  12.203  0.4323 -0.3094 -0.6696
16191TIP3   OH270063   2.052   5.900   0.750  0.2070  0.4808 -0.2191
16191TIP3    H170064   2.112   5.972   0.767 -1.5748  1.3654  3.3052
16191TIP3    H270065   2.099   5.822   0.781  0.3223  0.8919  0.6978
16192TIP3   OH270066   3.665   3.995   0.445 -0.2984 -0.6160  0.1831
16192TIP3    H170067   3.737   4.019   0.505 -1.2972  0.1023  1.1373
16192TIP3    H270068   3.704   3.931   0.386  1.6004  0.9286 -0.3792
16193TIP3   OH270069   1.271   5.198  16.748  0.3437  0.1174  1.2043
16193TIP3    H170070   1.197   5.147  16.781  0.4777  0.2259  1.6720
16193TIP3    H270071   1.349   5.154  16.783  0.4693  0.4769  1.3763
16194TIP3   OH270072   5.915   3.171   4.404 -0.1596 -0.5837 -0.0498
16194TIP3    H170073   5.952   3.149   4.318 -1.2982  1.1811 -1.0435
16194TIP3    H270074   5.833   3.122   4.407  0.4467 -1.6032  0.5929
16195TIP3   OH270075   3.463   5.192   4.109 -0.0116  0.1446  0.2547
16195TIP3    H170076   3.426   5.247   4.040  2.2683  1.4140 -0.0141
16195TIP3    H270077   3.556   5.214   4.112  1.0626 -3.6818  0.1425
16196TIP3   OH270078   0.141   3.265   1.857  0.1286  1.1040  0.0664
16196TIP3    H170079   0.162   3.321   1.931  1.7755 -0.4275  0.8359
16196TIP3    H270080   0.209   3.284   1.793  2.2279 -1.5879  1.2885
16197TIP3   OH270081   1.661   0.217  12.037  0.7639 -0.2187 -0.2502
16197TIP3    H170082   1.659   0.299  11.988  1.8744  0.9560  1.5281
16197TIP3    H270083   1.611   0.155  11.984 -0.3544  1.6790 -1.5096
16198TIP3   OH270084   1.195   5.523   6.679  0.1416 -0.3551  0.0977
16198TIP3    H170085   1.102   5.510   6.695 -0.1254  0.4533 -0.7336
16198TIP3    H270086   1.225   5.440   6.641 -0.7013  0.0860 -1.6068
16199TIP3   OH270087   2.815   4.731  15.539 -0.3384 -0.3230 -0.5538
16199TIP3    H170088   2.805   4.656  15.481  2.1841 -0.1602 -1.3000
16199TIP3    H270089   2.807   4.695  15.627  1.0205 -1.5179 -0.8978
16200TIP3   OH270090   2.454   3.041   5.998  0.0352 -0.5467  0.0862
16200TIP3    H170091   2.413   3.040   6.084  0.7582 -0.3153  0.4431
16200TIP3    H270092   2.392   3.087   5.942 -0.2111 -0.2392  0.6044
16201TIP3   OH270093   4.479   4.135   0.025 -0.7183  0.1297 -0.0731
16201TIP3    H170094   4.532   4.078   0.080  0.6975 -0.4403 -1.9226
16201TIP3    H270095   4.403   4.082   0.001 -0.5537 -0.1672  0.0564
16202TIP3   OH270096   3.267   0.067   1.693  0.0345 -0.9481  0.0425
16202TIP3    H170097   3.260   0.110   1.778 -2.0319 -1.7008  0.3240
16202TIP3    H270098   3.220  -0.016   1.705 -0.0786 -1.1815 -1.7524
16203TIP3   OH270099   3.234   5.657   0.025 -0.0062 -0.2733 -0.0416
16203TIP3    H170100   3.272   5.673   0.112 -0.8130 -0.1385  0.2985
16203TIP3    H270101   3.217   5.744  -0.010 -2.2990 -0.2874  0.8649
16204TIP3   OH270102   2.691   4.888   4.327 -0.3194 -0.4238  0.0792
16204TIP3    H170103   2.695   4.838   4.409 -2.6210  0.2790  0.6947
16204TIP3    H270104   2.712   4.977   4.352  1.3843 -0.6022 -0.5873
16205TIP3   OH270105   3.328   6.549  13.874  0.4507  0.0497 -0.0849
16205TIP3    H170106   3.240   6.510  13.879  0.1654  0.5674 -0.9343
16205TIP3    H270107   3.376   6.507  13.946 -1.0284  1.1459  1.6341
16206TIP3   OH270108   5.102   0.107   1.782  0.1539 -0.1124 -0.1621
16206TIP3    H170109   5.122   0.140   1.869 -1.4405  1.3561 -0.3072
16206TIP3    H270110   5.183   0.121   1.732  0.8632 -0.3744  0.8795
16207TIP3   OH270111   3.418   0.230   3.142 -0.5683  0.1710  0.2369
16207TIP3    H170112   3.426   0.235   3.046 -1.2441  1.9238  0.2356
16207TIP3    H270113   3.394   0.139   3.159 -0.0752 -0.2729 -1.2239
16208TIP3   OH270114   4.789   0.818   5.145 -0.3420  0.0145  0.3985
16208TIP3    H170115   4.745   0.785   5.067 -2.2939  2.0242  0.5799
16208TIP3    H270116   4.751   0.904   5.161  2.1037  0.9378  1.8964
16209TIP3   OH270117   5.180   4.314  13.083  0.0635 -0.0326  0.1798
16209TIP3    H170118   5.086   4.293  13.090 -0.4183  1.6386 -0.8364
16209TIP3    H270119   5.216   4.289  13.169 -1.3385 -0.5096  0.6620
16210TIP3   OH270120   1.827   2.350   0.959 -0.0013 -0.5439  0.0382
16210TIP3    H170121   1.793   2.272   0.916  0.4338 -0.5124 -0.3752
16210TIP3    H270122   1.896   2.318   1.018  0.0492 -0.4949  0.0068
16211TIP3   OH270123   0.251   0.119  16.398 -0.0033 -0.4682 -0.2083
16211TIP3    H170124   0.320   0.166  16.351 -0.1095 -0.1399 -0.0347
16211TIP3    H270125   0.298   0.054  16.450  0.1262 -0.7254 -0.6439
16212TIP3   OH270126   4.939   4.875   2.070  0.0277  0.5028  0.1727
16212TIP3    H170127   4.988   4.942   2.021 -1.0819  0.2624 -1.3731
16212TIP3    H270128   4.996   4.852   2.143  1.0400  2.1388 -0.0328
16213TIP3   OH270129   4.107   5.782  17.051 -0.3831  0.2574  0.9746
16213TIP3    H170130   4.203   5.786  17.049 -0.3042 -0.6684  1.9242
16213TIP3    H270131   4.085   5.707  16.996 -0.7751  2.1797 -1.6889
16214TIP3   OH270132   0.669   5.220   4.636  0.2291 -0.0743 -0.1486
16214TIP3    H170133   0.710   5.202   4.720 -0.8400 -1.4354  0.1251
16214TIP3    H270134   0.741   5.247   4.579  1.5313 -2.2899  0.3217
16215TIP3   OH270135   1.484   4.542  16.444  0.1762 -0.0185  0.0310
16215TIP3    H170136   1.578   4.531  16.459  0.0869 -0.1161  0.5352
16215TIP3    H270137   1.475   4.537  16.349  0.5612 -0.9837  0.0306
16216TIP3   OH270138   4.443   3.000  10.407  0.0813 -0.3179  0.2859
16216TIP3    H170139   4.400   2.944  10.472  0.5871 -0.6313  0.3501
16216TIP3    H270140   4.531   2.964  10.398 -0.2654 -0.8495 -1.2606
16217TIP3   OH270141   4.595   3.477  15.277  0.5527 -0.6307 -1.3741
16217TIP3    H170142   4.659   3.408  15.292  1.2014  0.3232  0.6979
16217TIP3    H270143   4.515   3.446  15.320  0.0463 -1.1504 -2.6355
16218TIP3   OH270144   5.778   5.920   1.477 -0.7396  0.5863  0.4653
16218TIP3    H170145   5.855   5.977   1.475 -0.4526  0.2541  1.4239
16218TIP3    H270146   5.706   5.977   1.504 -0.2698  0.3302  2.3912
16219TIP3   OH270147   5.787   5.519   0.705 -0.1240  0.2532  0.2402
16219TIP3    H170148   5.841   5.443   0.728 -2.4833 -1.7892 -0.5241
16219TIP3    H270149   5.783   5.518   0.610  1.0558  2.3629  0.1003
16220TIP3   OH270150   2.229   0.937   1.593  0.6947  0.0102 -0.2542
16220TIP3    H170151   2.169   0.967   1.524 -0.2261 -0.1977  0.4277
16220TIP3    H270152   2.292   1.008   1.603  1.6801 -0.5136 -2.2293
16221TIP3   OH270153   4.259   4.929  11.687 -0.1570 -0.1859  0.4173
16221TIP3    H170154   4.236   4.919  11.595  2.0046 -2.9203  0.0623
16221TIP3    H270155   4.264   4.840  11.721  3.4356  0.4264  1.9803
16222TIP3   OH270156   6.305   4.642   4.445  0.0508 -0.4366 -0.6720
16222TIP3    H170157   6.389   4.656   4.487 -0.1336 -1.3214  0.0157
16222TIP3    H270158   6.318   4.670   4.354  1.2856 -1.2120 -0.7475
16223TIP3   OH270159   5.778   3.079   3.743  0.2472 -0.0304 -0.0736
16223TIP3    H170160   5.800   3.129   3.822 -2.4924  2.6896 -0.8299
16223TIP3    H270161   5.823   3.126   3.673 -1.2112  0.6175 -0.6213
16224TIP3   OH270162   5.094   1.959  13.527 -0.4115 -0.5004 -0.0783
16224TIP3    H170163   5.051   2.016  13.591  0.5702  0.7104 -0.4451
16224TIP3    H270164   5.044   1.878  13.529 -0.7507 -0.2896  1.7892
16225TIP3   OH270165   2.598   3.139   2.555 -0.2734 -0.0827 -0.4958
16225TIP3    H170166   2.637   3.136   2.642 -1.3347 -0.4314 -0.0276
16225TIP3    H270167   2.583   3.048   2.532 -1.1530  0.0607 -0.5135
16226TIP3   OH270168   0.953   0.442  11.095  0.7322  0.2642  0.1342
16226TIP3    H170169   0.912   0.448  11.008  1.2631 -1.0245 -0.2298
16226TIP3    H270170   0.945   0.349  11.119 -0.7589  0.8433  2.1570
16227TIP3   OH270171   1.108   4.645  17.113 -0.2150 -0.1130 -0.1120
16227TIP3    H170172   1.027   4.606  17.148 -1.0385  1.7994  0.2053
16227TIP3    H270173   1.171   4.637  17.185  0.4199 -2.9491 -0.8435
16228TIP3   OH270174   1.236   4.585  16.034 -0.1047 -0.9815 -0.5205
16228TIP3    H170175   1.268   4.500  16.066  0.2202 -0.8578 -0.5079
16228TIP3    H270176   1.306   4.616  15.977  0.7926  0.2745  1.1741
16229TIP3   OH270177   4.421   3.693   3.928 -0.5772 -0.1169 -0.5440
16229TIP3    H170178   4.426   3.598   3.943  0.9390 -0.3776 -2.3366
16229TIP3    H270179   4.329   3.708   3.905 -1.2064 -0.8582  1.3147
16230TIP3   OH270180   0.862   3.112   3.603 -0.7763 -0.3458 -0.0644
16230TIP3    H170181   0.787   3.077   3.652 -1.5975 -0.3804 -1.2963
16230TIP3    H270182   0.860   3.066   3.519  0.5400 -0.2274 -0.1820
16231TIP3   OH270183   5.987   0.955   1.743  0.5998  0.6643 -0.4234
16231TIP3    H170184   6.043   0.916   1.809  0.1629  1.4633  0.4460
16231TIP3    H270185   5.979   1.047   1.769 -2.2079  0.3170  0.2961
16232TIP3   OH270186   0.965   4.135  13.454  0.4669 -0.4701 -0.5454
16232TIP3    H170187   0.928   4.059  13.409 -0.9861  1.0121 -2.0159
16232TIP3    H270188   0.890   4.175  13.497  0.5548  1.7705 -2.3143
16233TIP3   OH270189   5.419   6.281   0.446 -0.0408 -0.1158 -0.2978
16233TIP3    H170190   5.359   6.318   0.511  0.1106 -2.0987  1.0626
16233TIP3    H270191   5.495   6.253   0.497  0.2071 -1.4794 -1.3633
16234TIP3   OH270192   6.315   3.345   1.590  0.2450  0.3738  0.6463
16234TIP3    H170193   6.338   3.379   1.504  0.0433 -1.3202 -0.1133
16234TIP3    H270194   6.221   3.327   1.585  0.5882 -1.5509  0.5348
16235TIP3   OH270195   2.609   6.529  13.476 -0.2260  0.1638 -0.3525
16235TIP3    H170196   2.564   6.552  13.557  0.5721 -0.0416  0.1559
16235TIP3    H270197   2.684   6.476  13.504 -1.1674 -1.8126 -1.3577
16236TIP3   OH270198   6.044   6.613  11.715  0.4832  0.5059  0.9185
16236TIP3    H170199   5.993   6.670  11.656  1.7119 -0.9992 -1.7578
16236TIP3    H270200   6.087   6.674  11.775 -0.2324  2.1987 -0.2096
16237TIP3   OH270201   3.795   0.735   6.317 -0.1976  0.2065  0.4104
16237TIP3    H170202   3.872   0.703   6.270 -0.9971 -0.5484 -0.4481
16237TIP3    H270203   3.815   0.719   6.409  0.0326 -1.5188  0.1064
16238TIP3   OH270204   2.229   2.663  11.992 -0.0102  0.0145 -0.4207
16238TIP3    H170205   2.155   2.716  11.962 -0.6368 -1.2752 -1.2265
16238TIP3    H270206   2.189   2.592  12.041  0.7209 -0.4862 -0.5444
16239TIP3   OH270207   3.678   6.715   0.073  0.2928  0.4904 -0.2144
16239TIP3    H170208   3.729   6.681  -0.000  1.3291  1.1721  0.1745
16239TIP3    H270209   3.656   6.804   0.047  0.7652  0.7758  0.3488
16240TIP3   OH270210   5.070   1.395  16.655 -0.0780 -0.0502 -0.9480
16240TIP3    H170211   5.061   1.467  16.718  0.0169 -1.0459  0.2349
16240TIP3    H270212   5.061   1.437  16.570 -0.7249  1.2628 -0.2643
16241TIP3   OH270213   5.784   2.263  16.739 -0.0695 -0.7669  0.0615
16241TIP3    H170214   5.843   2.208  16.688 -1.4218 -1.1823 -1.1156
16241TIP3    H270215   5.836   2.291  16.814  1.4054 -1.6402 -0.5968
16242TIP3   OH270216   4.842   5.704  12.983 -0.0775  0.7225 -0.0307
16242TIP3    H170217   4.777   5.730  13.048 -1.0980  0.2844 -0.8583
16242TIP3    H270218   4.817   5.616  12.957 -0.4563  1.3311 -1.9250
16243TIP3   OH270219   2.318   3.481  13.988  0.2302 -0.0225 -0.1734
16243TIP3    H170220   2.357   3.519  14.066 -0.8141 -2.2963  1.5628
16243TIP3    H270221   2.385   3.490  13.921  0.9207  2.5873  0.7313
16244TIP3   OH270222   3.998   4.696   0.373  0.3217  0.4239  0.1745
16244TIP3    H170223   3.958   4.679   0.287 -0.2308  2.1974  0.0316
16244TIP3    H270224   4.067   4.631   0.380 -0.2504 -0.3898 -1.1933
16245TIP3   OH270225   3.599   6.353   4.385  0.5453 -0.0072  0.1316
16245TIP3    H170226   3.645   6.270   4.397  0.2620 -0.1797  0.0420
16245TIP3    H270227   3.667   6.420   4.392  0.5832 -0.1660  1.5317
16246TIP3   OH270228   4.357   1.126   5.949  0.5952  0.3606  0.1177
16246TIP3    H170229   4.381   1.163   5.864  1.0486  0.9009  0.4764
16246TIP3    H270230   4.280   1.174   5.977 -0.3583 -0.7130 -0.5834
16247TIP3   OH270231   0.445   2.734   0.858  0.2987  0.1654  0.0818
16247TIP3    H170232   0.508   2.792   0.901 -0.0911 -0.0906  1.0126
16247TIP3    H270233   0.362   2.781   0.862  0.2624  0.1512 -0.4271
16248TIP3   OH270234   1.447   2.136  15.185 -0.8749  0.5234 -0.1999
16248TIP3    H170235   1.424   2.226  15.160 -3.6439 -0.3882 -1.4227
16248TIP3    H270236   1.502   2.146  15.262  1.2876  3.3063 -1.8851
16249TIP3   OH270237   5.695   2.479  13.198 -0.6103  0.3628 -0.4031
16249TIP3    H170238   5.741   2.495  13.116  0.4688 -1.9264 -0.3406
16249TIP3    H270239   5.753   2.515  13.265 -0.9399  1.2139 -0.5729
16250TIP3   OH270240   1.416   0.106  16.113  0.0428  0.1130 -0.2044
16250TIP3    H170241   1.423   0.119  16.018 -0.0059 -0.2314 -0.2575
16250TIP3    H270242   1.438   0.191  16.150 -0.8100  0.4931 -0.5552
16251TIP3   OH270243   2.525   3.853   5.601  0.3936  0.2324  0.4428
16251TIP3    H170244   2.497   3.936   5.561  0.9866 -0.2245 -0.9800
16251TIP3    H270245   2.456   3.831   5.663 -1.3204  0.2357 -1.3884
16252TIP3   OH270246   2.822   4.135  12.410  0.6084 -0.1013  0.4595
16252TIP3    H170247   2.815   4.040  12.401  1.4370 -0.2050  0.8448
16252TIP3    H270248   2.888   4.160  12.345  1.1218  0.0877  1.0553
16253TIP3   OH270249   1.936   3.977   2.873 -0.0865  0.1982 -0.2075
16253TIP3    H170250   1.958   3.972   2.780  0.1999 -0.8500 -0.0875
16253TIP3    H270251   1.970   4.062   2.900  2.2423 -0.5852 -0.4584
16254TIP3   OH270252   6.671   4.244  15.034 -0.5169 -0.0040  0.5856
16254TIP3    H170253   6.736   4.183  15.069  1.1373  1.2282 -0.1485
16254TIP3    H270254   6.654   4.212  14.945  0.9757  0.9769 -0.1024
16255TIP3   OH270255   4.691   4.489   1.767 -0.0820 -0.6414  0.0739
16255TIP3    H170256   4.720   4.560   1.824 -3.0972  0.7439  0.1008
16255TIP3    H270257   4.643   4.533   1.696 -0.4976 -2.5710 -0.9200
16256TIP3   OH270258   3.688   0.270   0.661 -0.1908  0.3348  0.3979
16256TIP3    H170259   3.608   0.306   0.621  1.7340  3.1394 -1.2863
16256TIP3    H270260   3.733   0.346   0.697  2.4137 -0.9175 -0.0057
16257TIP3   OH270261   1.510   0.199  15.871 -0.2922  0.3383 -0.4625
16257TIP3    H170262   1.496   0.292  15.855 -0.6779  0.0276 -2.2241
16257TIP3    H270263   1.469   0.156  15.796  3.0285 -1.0611 -1.6916
16258TIP3   OH270264   1.653   4.677   5.300 -0.3315  0.4357 -0.5075
16258TIP3    H170265   1.692   4.760   5.271  0.3193  0.1361 -0.5045
16258TIP3    H270266   1.576   4.704   5.349  0.0472  1.0617 -0.2313
16259TIP3   OH270267   0.448   0.271   1.758 -0.3159 -0.4996  0.2557
16259TIP3    H170268   0.444   0.366   1.759 -1.2754 -0.5211  1.7368
16259TIP3    H270269   0.396   0.245   1.682  0.9997  0.1441 -0.9188
16260TIP3   OH270270   5.297   6.831  11.289  0.2498 -0.6270 -0.2125
16260TIP3    H170271   5.279   6.741  11.316 -1.7493 -0.6212 -1.3352
16260TIP3    H270272   5.313   6.826  11.195 -3.2249  0.4528 -1.0348
16261TIP3   OH270273   4.489   0.991   0.297  0.1478  0.5706  0.3034
16261TIP3    H170274   4.581   0.970   0.312  0.3010  1.6208  0.9801
16261TIP3    H270275   4.449   0.908   0.271  1.3691  0.1871 -0.4609
16262TIP3   OH270276   5.849   0.155  10.871  0.0573  0.4877  0.4213
16262TIP3    H170277   5.887   0.083  10.820 -0.7639 -0.0190  0.5042
16262TIP3    H270278   5.818   0.217  10.805  0.8444  0.8235  0.3498
16263TIP3   OH270279   5.851   4.502  13.682 -0.7298 -0.2509  0.0234
16263TIP3    H170280   5.917   4.435  13.666 -1.9992 -1.3249 -0.8706
16263TIP3    H270281   5.858   4.520  13.776  1.2586  0.1603 -0.1584
16264TIP3   OH270282   0.678   2.320  16.680  0.0798 -0.2657 -0.0292
16264TIP3    H170283   0.624   2.397  16.661  1.1713  0.5042 -0.1423
16264TIP3    H270284   0.645   2.288  16.764 -0.7150  0.0194 -0.2202
16265TIP3   OH270285   4.104   0.514   3.116  0.2156 -0.3145  0.2553
16265TIP3    H170286   4.197   0.493   3.114 -0.3820 -3.6048  0.4513
16265TIP3    H270287   4.087   0.540   3.206  0.9324  0.3340  0.2121
16266TIP3   OH270288   3.634   6.042   0.384  0.6420 -0.1075  0.3411
16266TIP3    H170289   3.607   6.049   0.293  0.0745  2.6149  0.6437
16266TIP3    H270290   3.559   5.999   0.427  1.0100 -1.6207 -0.4413
16267TIP3   OH270291   3.168   5.345  14.970  0.6657 -0.1900 -0.2315
16267TIP3    H170292   3.099   5.281  14.990  1.2492 -1.1340 -1.1171
16267TIP3    H270293   3.200   5.319  14.884  0.8945  1.3542 -0.6328
16268TIP3   OH270294   1.232   1.770   2.922 -0.1843  0.6982 -0.4305
16268TIP3    H170295   1.317   1.758   2.881  0.4790  2.5947  0.2794
16268TIP3    H270296   1.203   1.681   2.943  1.3220 -0.0243 -1.2428
16269TIP3   OH270297   3.084   5.539  15.187 -0.1940  0.2597 -0.1901
16269TIP3    H170298   3.089   5.460  15.132 -1.1356  0.8309 -1.1408
16269TIP3    H270299   3.037   5.511  15.265 -0.7449 -0.0769 -0.6315
16270TIP3   OH270300   0.872   4.275  13.210  0.5395  0.2185 -0.9715
16270TIP3    H170301   0.829   4.190  13.200 -0.4601  0.7628 -1.4432
16270TIP3    H270302   0.950   4.256  13.263  0.3465 -0.9873 -1.0826
16271TIP3   OH270303   0.428   0.852   1.947 -0.4455  0.6251 -0.7740
16271TIP3    H170304   0.466   0.768   1.974  0.4472  1.6547  1.3228
16271TIP3    H270305   0.342   0.828   1.912 -0.0466 -1.1971 -0.6386
16272TIP3   OH270306   5.345   6.422   1.861 -0.8267  0.1735  0.0927
16272TIP3    H170307   5.295   6.502   1.875  1.7865  1.5742  2.4555
16272TIP3    H270308   5.407   6.444   1.792  0.0234  0.3053  0.8767
16273TIP3   OH270309   3.299   2.424  14.337 -0.5778 -0.1387  0.1474
16273TIP3    H170310   3.333   2.337  14.314 -1.3039  0.1784 -2.3444
16273TIP3    H270311   3.211   2.426  14.301  0.4382  2.6263 -2.5793
16274TIP3   OH270312   1.974   4.376  11.719 -0.3322 -0.0674  0.1861
16274TIP3    H170313   2.008   4.351  11.805  0.8020 -0.0265 -0.2354
16274TIP3    H270314   1.879   4.362  11.726 -0.0425 -2.0633  0.7707
16275TIP3   OH270315   3.788   3.457   5.982  0.2276  0.1551  0.7395
16275TIP3    H170316   3.725   3.385   5.996  0.7734 -0.0640  2.2994
16275TIP3    H270317   3.869   3.425   6.021  0.6309  1.4010  0.9472
16276TIP3   OH270318   6.847   1.843   0.547  0.0013  0.8521 -0.2410
16276TIP3    H170319   6.939   1.817   0.555 -0.2492 -0.0601 -0.2890
16276TIP3    H270320   6.828   1.887   0.630  0.6772  1.6923 -0.5162
16277TIP3   OH270321   2.035   3.660   3.790  0.0871 -0.0760  0.1875
16277TIP3    H170322   2.017   3.662   3.696 -1.0553 -0.4586  0.3834
16277TIP3    H270323   2.042   3.567   3.811 -0.3198 -0.0196  0.5924
16278TIP3   OH270324   5.317   1.682   3.776  0.1871  0.4253 -0.6456
16278TIP3    H170325   5.332   1.635   3.694 -3.1726 -1.0248 -0.6192
16278TIP3    H270326   5.387   1.652   3.834  1.0934 -0.5903 -2.1827
16279TIP3   OH270327   2.032   1.261   3.343 -0.7627  0.8533  0.3513
16279TIP3    H170328   1.946   1.229   3.315 -1.6145  0.4965  3.1509
16279TIP3    H270329   2.064   1.311   3.267 -1.8371 -1.8627 -2.0936
16280TIP3   OH270330   2.083   6.574   1.092 -0.5662  0.1640 -0.5273
16280TIP3    H170331   2.173   6.587   1.064 -0.2373 -0.1178  0.3830
16280TIP3    H270332   2.040   6.658   1.078 -0.3370  0.1189 -1.5700
16281TIP3   OH270333   1.687   5.739  11.752 -0.4473 -0.6047 -0.0292
16281TIP3    H170334   1.735   5.820  11.736 -0.0563 -1.0496 -1.1620
16281TIP3    H270335   1.755   5.673  11.770 -0.6566 -1.0493 -0.8049
16282TIP3   OH270336   2.547   6.569   5.880 -0.0176  0.3752  0.9902
16282TIP3    H170337   2.463   6.565   5.926  0.7694 -1.2983  2.3797
16282TIP3    H270338   2.612   6.548   5.946  1.3477 -0.2115 -0.4675
16283TIP3   OH270339   4.441   2.518  12.525 -0.0876 -0.0113  0.0516
16283TIP3    H170340   4.494   2.508  12.604  0.5983 -0.9992 -0.5124
16283TIP3    H270341   4.353   2.538  12.558 -0.1061 -1.6625  1.1394
16284TIP3   OH270342   4.919   4.534   4.335 -0.0524 -0.0369  0.4311
16284TIP3    H170343   5.010   4.510   4.320  0.2674  1.9118 -1.1363
16284TIP3    H270344   4.871   4.451   4.329  1.2405 -0.6821 -2.2890
16285TIP3   OH270345   4.663   1.832   1.371 -0.2729 -0.3500  0.5886
16285TIP3    H170346   4.649   1.906   1.311  1.2409 -1.0355 -0.6748
16285TIP3    H270347   4.662   1.871   1.458  1.0620  1.2953 -0.0760
16286TIP3   OH270348   3.982   5.529  15.332  0.0718 -0.3860  0.2120
16286TIP3    H170349   3.898   5.557  15.297  0.1704  0.1861  0.4276
16286TIP3    H270350   3.962   5.488  15.416  0.0737  0.3592  0.5806
16287TIP3   OH270351   6.348   0.123  15.968  0.0170 -0.6408  0.4566
16287TIP3    H170352   6.430   0.089  15.933  1.2509  2.1574  0.3502
16287TIP3    H270353   6.357   0.117  16.063 -1.4094 -3.9382  0.5275
16288TIP3   OH270354   1.588   1.615  10.599 -0.3109 -0.0443 -0.4905
16288TIP3    H170355   1.602   1.705  10.569  1.1372 -0.1570 -0.2350
16288TIP3    H270356   1.585   1.563  10.519  1.6022 -0.0957 -0.5789
16289TIP3   OH270357   3.611   3.240  15.825  0.4331 -0.0175 -0.0344
16289TIP3    H170358   3.588   3.239  15.732  1.2497 -0.4033 -0.2406
16289TIP3    H270359   3.676   3.310  15.833 -0.2419  0.5631  0.3977
16290TIP3   OH270360   0.857   5.972  13.048 -0.2184  0.3382  0.0154
16290TIP3    H170361   0.928   6.017  13.094 -0.3781  0.6395 -0.0259
16290TIP3    H270362   0.862   6.004  12.958 -1.1955  1.3652  0.2918
16291TIP3   OH270363   3.357   6.385   3.253 -0.5163  0.2182  0.1666
16291TIP3    H170364   3.432   6.442   3.237  0.7783 -1.3979  0.1368
16291TIP3    H270365   3.315   6.421   3.331  1.6306 -0.0728  1.5459
16292TIP3   OH270366   3.677   5.212  13.298 -0.0231  0.2040 -0.4531
16292TIP3    H170367   3.660   5.221  13.391  1.4550  0.6625 -0.2041
16292TIP3    H270368   3.768   5.238  13.287  0.3274 -1.3842 -1.7999
16293TIP3   OH270369   2.454   1.910   0.436 -0.4237 -0.4332  0.3374
16293TIP3    H170370   2.387   1.897   0.369 -1.3135  0.7872  0.9560
16293TIP3    H270371   2.410   1.963   0.503  1.4441  1.1959  0.3353
16294TIP3   OH270372   0.003   0.696  13.999 -0.2908 -0.6793  0.1496
16294TIP3    H170373   0.032   0.720  13.911  0.9826 -1.2107  0.4108
16294TIP3    H270374  -0.057   0.767  14.025 -0.9071 -0.6661 -1.2388
16295TIP3   OH270375   1.825   2.482  14.655 -0.0604  0.2269 -0.2652
16295TIP3    H170376   1.910   2.453  14.622 -0.0696 -0.5631  0.3932
16295TIP3    H270377   1.762   2.427  14.609 -0.3888  2.0041 -2.1289
16296TIP3   OH270378   4.760   2.929  11.763  0.9726  0.4843  0.6767
16296TIP3    H170379   4.816   2.951  11.837 -1.0901  0.3410  2.3938
16296TIP3    H270380   4.675   2.969  11.785 -1.6313 -4.7158  1.6321
16297TIP3   OH270381   0.325   4.010  13.544  0.5248 -0.0155  0.5927
16297TIP3    H170382   0.267   4.075  13.582  1.9320  1.4488  0.3079
16297TIP3    H270383   0.387   4.060  13.492  0.8953 -1.6824 -0.6637
16298TIP3   OH270384   2.233   0.489  12.904 -0.1124 -0.5265  1.1014
16298TIP3    H170385   2.222   0.400  12.936  0.2050 -0.8883  0.2179
16298TIP3    H270386   2.209   0.544  12.979  1.3945 -1.3408  2.2410
16299TIP3   OH270387   6.129   6.848  12.700  0.1334 -0.1750  0.2885
16299TIP3    H170388   6.065   6.817  12.764  1.3579 -1.0468  1.1400
16299TIP3    H270389   6.108   6.941  12.689  1.1981  0.5978  3.6672
16300TIP3   OH270390   6.105   1.125   5.081 -0.7584 -0.5148  0.5337
16300TIP3    H170391   6.066   1.052   5.033  0.6614 -1.0154  0.1202
16300TIP3    H270392   6.190   1.092   5.110 -1.0008  0.2387  2.2301
16301TIP3   OH270393   3.573   0.875   0.975  0.4198 -0.1508  0.2441
16301TIP3    H170394   3.564   0.780   0.981  0.2878 -0.3785 -2.2773
16301TIP3    H270395   3.663   0.893   1.001  1.3070 -1.3428 -1.7112
16302TIP3   OH270396   5.116   5.977  13.330 -0.2144  0.3603  0.6401
16302TIP3    H170397   5.092   5.891  13.296  1.5544 -0.0802  0.4148
16302TIP3    H270398   5.095   6.037  13.258  0.8867 -0.2179 -0.1940
16303TIP3   OH270399   2.290   6.215  16.331 -0.4796 -0.1674 -0.0599
16303TIP3    H170400   2.201   6.178  16.329 -1.4590  1.8779  1.7409
16303TIP3    H270401   2.295   6.269  16.252 -1.9904  1.9921  1.2204
16304TIP3   OH270402   5.548   4.094   4.701 -0.3021  0.5804 -0.3751
16304TIP3    H170403   5.487   4.040   4.752  0.2816  0.9184  0.7235
16304TIP3    H270404   5.575   4.163   4.762  3.6161 -1.3040  0.2970
16305TIP3   OH270405   2.241   3.903   5.209 -0.5855  0.5634 -0.2560
16305TIP3    H170406   2.199   3.988   5.201 -0.6957  0.6430  0.9329
16305TIP3    H270407   2.334   3.923   5.219 -0.8096  0.7304  2.1906
16306TIP3   OH270408   2.794   0.229   4.459  0.1960 -0.1158 -0.3748
16306TIP3    H170409   2.719   0.170   4.455 -1.1992  1.3202  2.0178
16306TIP3    H270410   2.829   0.231   4.370  0.4270 -4.5507 -0.5754
16307TIP3   OH270411   3.802   3.753  16.022  0.1265  0.0880  0.4169
16307TIP3    H170412   3.745   3.743  16.099  0.1373  0.6531  0.5068
16307TIP3    H270413   3.835   3.665  16.005 -1.0578 -0.3273  0.1436
16308TIP3   OH270414   3.360   5.376   2.989 -0.6856 -0.3037  0.0689
16308TIP3    H170415   3.275   5.376   3.032 -0.0738  0.7656  1.3430
16308TIP3    H270416   3.411   5.440   3.037  0.6719 -0.5094 -1.0374
16309TIP3   OH270417   5.897   4.408  15.126  0.4631 -0.3734  0.0341
16309TIP3    H170418   5.966   4.379  15.067  0.2352  0.4987 -0.6985
16309TIP3    H270419   5.816   4.378  15.084  0.3341 -0.3284  0.2510
16310TIP3   OH270420   3.500   6.442   0.662  0.9693 -0.2869 -0.1824
16310TIP3    H170421   3.520   6.533   0.685  3.8337 -0.5654 -1.1618
16310TIP3    H270422   3.451   6.447   0.581  0.2371  0.3796  0.2887
16311TIP3   OH270423   4.758   5.843  15.368  0.3677 -0.1043  0.4890
16311TIP3    H170424   4.694   5.907  15.337 -1.7017 -1.4940  1.6813
16311TIP3    H270425   4.750   5.770  15.307 -0.8628 -1.2119  1.9246
16312TIP3   OH270426   0.633   0.583   3.868  0.3268 -0.2411  0.8586
16312TIP3    H170427   0.700   0.524   3.833  0.6719  0.9096 -0.5136
16312TIP3    H270428   0.551   0.535   3.858  0.7227 -0.9072  0.7650
16313TIP3   OH270429   4.060   1.573  16.705  0.1735  0.2712 -0.2297
16313TIP3    H170430   4.113   1.557  16.627 -1.4394  0.7924 -1.4902
16313TIP3    H270431   4.066   1.668  16.720 -0.1644  0.2959 -0.2247
16314TIP3   OH270432   5.891   6.226   6.615 -0.7562  0.1740 -0.1214
16314TIP3    H170433   5.951   6.256   6.683 -1.6413 -1.2103  1.3519
16314TIP3    H270434   5.804   6.241   6.652 -1.2392 -2.4601 -0.0072
16315TIP3   OH270435   6.755   0.370  16.534 -0.0844  0.4970 -0.4104
16315TIP3    H170436   6.845   0.348  16.556 -0.0468  2.8489  2.4074
16315TIP3    H270437   6.761   0.449  16.481 -0.5145 -0.2220 -1.5897
16316TIP3   OH270438   5.301   6.604   5.196  0.3534 -0.6669 -0.0914
16316TIP3    H170439   5.383   6.576   5.237  0.4339 -0.2123  0.0639
16316TIP3    H270440   5.300   6.561   5.111  0.1853 -1.6292  0.3863
16317TIP3   OH270441   2.340   2.191   5.836  0.4681  0.0951  0.1152
16317TIP3    H170442   2.306   2.128   5.772  0.1031 -2.1827  2.3742
16317TIP3    H270443   2.435   2.182   5.831  0.4050 -1.4849  1.1194
16318TIP3   OH270444   0.764   1.381  16.322 -0.6760  0.7162 -0.4296
16318TIP3    H170445   0.816   1.316  16.369 -0.6800  2.0470  1.5344
16318TIP3    H270446   0.673   1.356  16.339 -0.6786  0.4552 -0.8260
16319TIP3   OH270447   4.551   0.654  13.603  0.0495 -0.2606  0.0551
16319TIP3    H170448   4.518   0.703  13.527 -0.0302  0.0881  0.3121
16319TIP3    H270449   4.585   0.572  13.566 -1.4083 -0.7867 -0.1972
16320TIP3   OH270450   4.516   3.956  12.454  0.4965 -0.3784  0.5687
16320TIP3    H170451   4.603   3.927  12.426  0.4752 -1.9614  1.9514
16320TIP3    H270452   4.511   3.931  12.546 -0.6417  1.6386  1.1323
16321TIP3   OH270453   0.624   5.376  11.427  0.2832 -0.2070 -0.3207
16321TIP3    H170454   0.658   5.422  11.504 -0.4661 -1.3963  0.7776
16321TIP3    H270455   0.701   5.336  11.387  0.4718 -1.2944  1.0455
16322TIP3   OH270456   4.973   4.864  14.668  0.4010  0.2288  0.0107
16322TIP3    H170457   4.973   4.896  14.759  1.1537 -0.6301  0.3208
16322TIP3    H270458   4.884   4.831  14.654  0.0333  1.1211  0.1500
16323TIP3   OH270459   3.141   3.238   2.141  0.5738  0.1147 -0.0822
16323TIP3    H170460   3.046   3.252   2.134  0.7328  0.6237 -1.6568
16323TIP3    H270461   3.154   3.151   2.103  0.7657  0.1418 -0.0744
16324TIP3   OH270462   1.193   4.380  12.453  0.0727 -0.2973  0.4978
16324TIP3    H170463   1.227   4.417  12.372 -1.1572 -1.5334 -0.6352
16324TIP3    H270464   1.259   4.316  12.480  0.4873  0.1237  0.4981
16325TIP3   OH270465   4.441   3.193   5.386  0.1893 -0.2020 -0.5587
16325TIP3    H170466   4.420   3.261   5.322 -0.5639  0.2995  0.2001
16325TIP3    H270467   4.380   3.209   5.458 -0.9884 -2.5420 -0.9407
16326TIP3   OH270468   3.235   2.207   4.620  0.0344 -0.0741  0.6128
16326TIP3    H170469   3.186   2.150   4.679 -0.4665 -1.3489 -0.9846
16326TIP3    H270470   3.222   2.295   4.655 -0.6871 -0.7362  2.0768
16327TIP3   OH270471   3.389   2.757   5.712 -0.1511  0.2869 -0.1337
16327TIP3    H170472   3.431   2.699   5.775 -2.8040  1.0106  2.5162
16327TIP3    H270473   3.456   2.822   5.690  1.1755 -0.6194  1.1002
16328TIP3   OH270474   1.207   3.522   5.334 -0.2385 -0.2107 -0.4451
16328TIP3    H170475   1.207   3.476   5.250  0.6014 -0.2970 -0.4061
16328TIP3    H270476   1.275   3.588   5.325  2.5732 -2.6036  1.4199
16329TIP3   OH270477   5.825   3.421  12.696  0.2594  0.3507 -0.4521
16329TIP3    H170478   5.842   3.480  12.769  2.4052 -1.0744  0.2747
16329TIP3    H270479   5.730   3.408  12.698 -0.1755  2.9848 -0.0900
16330TIP3   OH270480   2.043   4.249  13.553 -0.6890  0.2182  0.0755
16330TIP3    H170481   2.042   4.210  13.640 -0.1384  0.9257  0.4133
16330TIP3    H270482   1.951   4.266  13.533 -0.8813 -0.7133  0.1602
16331TIP3   OH270483   6.206   0.842  14.876  0.3083  0.0743  0.0399
16331TIP3    H170484   6.185   0.881  14.792  2.5965  1.4773  0.0321
16331TIP3    H270485   6.219   0.749  14.857 -1.9534 -0.1714 -0.5706
16332TIP3   OH270486   2.136   3.614  16.130  0.0345 -0.8247  0.1851
16332TIP3    H170487   2.156   3.595  16.222 -2.4530 -1.3714  0.6916
16332TIP3    H270488   2.067   3.681  16.135 -0.7339 -1.4725 -1.2397
16333TIP3   OH270489   1.088   6.131   3.907  0.3611  0.2836  0.0958
16333TIP3    H170490   1.059   6.212   3.948 -2.2758 -1.0052  0.9938
16333TIP3    H270491   1.059   6.062   3.966  2.2420 -1.3782 -0.7898
16334TIP3   OH270492   4.525   1.784  11.283  0.3859  0.3692 -0.5107
16334TIP3    H170493   4.553   1.757  11.370  0.5359  0.9010 -0.3896
16334TIP3    H270494   4.559   1.717  11.225 -1.7701 -1.3382  0.0559
16335TIP3   OH270495   4.720   5.421   0.196 -0.7533  0.2177 -0.0762
16335TIP3    H170496   4.750   5.485   0.261 -2.0334 -0.8302  1.6405
16335TIP3    H270497   4.656   5.367   0.243  0.2681 -2.3596 -1.4164
16336TIP3   OH270498   6.020   6.066  16.798 -0.3211  0.0724 -0.5915
16336TIP3    H170499   6.032   6.091  16.706  0.0915  0.0343 -0.5494
16336TIP3    H270500   6.102   6.023  16.822 -0.6221 -0.3682 -0.3505
16337TIP3   OH270501   0.594   2.239  13.103 -0.2865 -0.1238  0.1981
16337TIP3    H170502   0.550   2.194  13.175 -0.5510 -1.8843 -1.0058
16337TIP3    H270503   0.555   2.203  13.024 -0.5330  2.2859 -0.8892
16338TIP3   OH270504   6.659   4.561   5.794  0.0410 -0.5060 -0.3209
16338TIP3    H170505   6.738   4.540   5.843 -0.3702  0.6566  0.9022
16338TIP3    H270506   6.676   4.528   5.706  1.4180 -1.2855  0.2005
16339TIP3   OH270507   0.066   6.111   2.535  0.2721  0.6061  0.5800
16339TIP3    H170508   0.126   6.124   2.461  1.1731  2.0116  1.5049
16339TIP3    H270509   0.117   6.135   2.612 -1.4242  1.7866  1.4134
16340TIP3   OH270510   5.478   1.205   4.456  0.0003 -0.5715 -0.3858
16340TIP3    H170511   5.433   1.160   4.385 -0.6812  1.1807 -1.1264
16340TIP3    H270512   5.499   1.291   4.421 -0.4590  0.3983  1.5440
16341TIP3   OH270513   5.922   5.792   4.578 -0.3558  0.3233 -0.1318
16341TIP3    H170514   5.948   5.703   4.555  0.7365  0.9213 -1.3209
16341TIP3    H270515   5.948   5.802   4.670  3.0687  0.6125 -1.0040
16342TIP3   OH270516   5.952   3.839   1.541 -0.3412 -0.9038 -0.0772
16342TIP3    H170517   5.874   3.863   1.592 -0.2895  0.3942 -0.5849
16342TIP3    H270518   6.007   3.917   1.543  0.8760 -1.7422  0.1045
16343TIP3   OH270519   0.756   5.170  16.429 -0.0685 -0.1549 -0.1896
16343TIP3    H170520   0.768   5.161  16.524  2.2795 -0.7115 -0.4849
16343TIP3    H270521   0.843   5.190  16.395 -1.0707  1.2774 -2.1422
16344TIP3   OH270522   2.369   0.592   0.734  0.4388  0.7199 -0.5152
16344TIP3    H170523   2.366   0.633   0.821 -2.5348  2.1273 -1.1697
16344TIP3    H270524   2.453   0.620   0.697  1.1653  1.1940  1.3570
16345TIP3   OH270525   0.255   6.242  13.699 -0.3392 -0.3660  0.2354
16345TIP3    H170526   0.338   6.283  13.724 -0.1806 -0.2432 -0.4776
16345TIP3    H270527   0.252   6.161  13.749 -0.5044  0.3450  1.4272
16346TIP3   OH270528   6.569   5.410   3.058 -0.1583  0.1696 -0.2330
16346TIP3    H170529   6.606   5.344   3.117 -1.1203 -2.0573 -1.9659
16346TIP3    H270530   6.480   5.424   3.089 -0.7980 -1.3007 -1.3087
16347TIP3   OH270531   5.580   0.033  16.901  0.0938  0.4924  0.8370
16347TIP3    H170532   5.664  -0.000  16.868 -0.8631 -0.5213 -0.6652
16347TIP3    H270533   5.605   0.098  16.966  2.0533 -0.6913  1.3613
16348TIP3   OH270534   3.915   5.410   1.391  0.2028  0.4236  0.2471
16348TIP3    H170535   4.004   5.389   1.362 -0.4324  1.4513 -2.7923
16348TIP3    H270536   3.916   5.506   1.401 -0.4173  0.3801  0.7826
16349TIP3   OH270537   5.599   5.090  15.321 -0.7717 -0.1848 -0.4531
16349TIP3    H170538   5.611   5.013  15.378  0.1636 -0.0487 -0.4557
16349TIP3    H270539   5.583   5.162  15.382  0.7126  0.0519 -0.3207
16350TIP3   OH270540   5.009   6.279   2.731  0.2061  0.7800  0.4357
16350TIP3    H170541   5.038   6.344   2.796 -1.5886  0.6943  1.3882
16350TIP3    H270542   5.076   6.211   2.734  1.3716  1.8745  0.4701
16351TIP3   OH270543   5.768   2.581  11.462  0.8292 -0.6255  0.0140
16351TIP3    H170544   5.737   2.536  11.384  0.3900 -0.0787 -0.1353
16351TIP3    H270545   5.842   2.529  11.493 -0.9771 -2.7333  1.1143
16352TIP3   OH270546   0.168   4.262   2.090 -0.3878  0.1058  0.3586
16352TIP3    H170547   0.099   4.308   2.138  0.5023  0.9805  0.8469
16352TIP3    H270548   0.181   4.315   2.010 -0.3954 -0.1415  0.1931
16353TIP3   OH270549   2.249   3.331  16.409  0.5191  0.1408 -0.4519
16353TIP3    H170550   2.330   3.371  16.443 -0.5270  0.4306  1.9640
16353TIP3    H270551   2.189   3.333  16.484 -2.4009  1.6744 -2.6328
16354TIP3   OH270552   1.846   0.692  15.478 -0.3973  0.4503 -0.3937
16354TIP3    H170553   1.860   0.756  15.409  1.1159 -0.3673 -0.8931
16354TIP3    H270554   1.920   0.703  15.537 -0.6549 -0.1669  0.0568
16355TIP3   OH270555   2.871   4.139   5.526  0.4095  0.7505  0.5015
16355TIP3    H170556   2.842   4.112   5.613 -1.1251  0.1390 -0.1512
16355TIP3    H270557   2.956   4.181   5.540  0.3856  0.2882  2.2246
16356TIP3   OH270558   0.524   4.919  14.928  0.3624 -0.0072  0.6028
16356TIP3    H170559   0.466   4.958  14.863 -1.6535 -0.8578  1.7898
16356TIP3    H270560   0.494   4.955  15.011  1.7934 -0.2122  1.2411
16357TIP3   OH270561   2.839   4.469  11.372 -0.0430  0.2347  0.5149
16357TIP3    H170562   2.829   4.516  11.455 -1.3085 -0.3657  0.7242
16357TIP3    H270563   2.786   4.390  11.382  0.6010 -0.3561 -0.5013
16358TIP3   OH270564   2.758   2.249  16.447 -0.0163 -0.1886 -0.0850
16358TIP3    H170565   2.787   2.336  16.475  0.0479  0.0724 -0.9288
16358TIP3    H270566   2.680   2.266  16.394  1.3763 -0.3785 -2.3412
16359TIP3   OH270567   3.031   1.459   5.225  0.3351  0.7541 -0.7196
16359TIP3    H170568   3.010   1.551   5.211  0.4241  0.7934 -0.5950
16359TIP3    H270569   2.963   1.427   5.285  0.3553  0.7597 -0.6939
16360TIP3   OH270570   5.695   1.163  11.995  0.0422  0.1436 -0.5583
16360TIP3    H170571   5.686   1.109  12.074  0.3651  2.4438  1.1315
16360TIP3    H270572   5.627   1.230  12.004 -0.3557  0.0870 -2.6067
16361TIP3   OH270573   2.111   5.710  14.078 -0.6494  0.5235 -0.0703
16361TIP3    H170574   2.089   5.790  14.030 -0.5728  2.1965  2.4680
16361TIP3    H270575   2.113   5.737  14.170 -0.4747 -2.3958  0.8972
16362TIP3   OH270576   1.107   1.984   2.618  0.5262 -0.1063  0.1314
16362TIP3    H170577   1.088   1.891   2.632  0.5519 -0.1868 -0.3561
16362TIP3    H270578   1.127   2.018   2.705 -2.0984  0.0440  0.7700
16363TIP3   OH270579   1.081   4.657   4.684 -0.2114  0.2912  0.0534
16363TIP3    H170580   0.989   4.637   4.702 -0.1269 -0.4051 -0.2546
16363TIP3    H270581   1.087   4.658   4.588  0.1290  0.2121  0.0744
16364TIP3   OH270582   6.302   6.755   3.104 -0.0309 -0.4636  0.4824
16364TIP3    H170583   6.303   6.663   3.131  0.9587 -0.1727  1.5112
16364TIP3    H270584   6.348   6.755   3.020  0.7058 -0.7996  0.8772
16365TIP3   OH270585   5.201   2.943  13.773  0.1057 -0.2054  0.6035
16365TIP3    H170586   5.263   2.889  13.821  2.0331  1.4954  0.1715
16365TIP3    H270587   5.181   3.015  13.832  1.5760  1.2756 -0.6144
16366TIP3   OH270588   1.517   1.038   1.815  0.3151  0.3574  0.4234
16366TIP3    H170589   1.588   1.057   1.754  0.5732 -1.6353  0.0269
16366TIP3    H270590   1.522   1.108   1.880  0.8569  1.8074 -1.1140
16367TIP3   OH270591   5.094   1.628  10.603 -0.0496 -0.1406  0.4994
16367TIP3    H170592   5.180   1.665  10.621 -0.6943  1.2147  0.9267
16367TIP3    H270593   5.112   1.549  10.551  1.4760 -0.3313  1.2537
16368TIP3   OH270594   3.214   3.949  16.722  0.4506 -0.1506  0.2330
16368TIP3    H170595   3.210   3.858  16.690 -2.2548  0.3503 -1.1146
16368TIP3    H270596   3.138   3.957  16.780  0.6838  1.2603  0.3595
16369TIP3   OH270597   5.173   0.742  15.705 -0.3174  0.0861  0.3784
16369TIP3    H170598   5.268   0.753  15.703 -0.4042  1.6367  1.9068
16369TIP3    H270599   5.148   0.730  15.614  1.3762 -0.8989 -0.0066
16370TIP3   OH270600   0.284   5.439   3.331 -0.2303 -0.2026 -0.5302
16370TIP3    H170601   0.378   5.436   3.348 -0.5961 -0.8031  1.7938
16370TIP3    H270602   0.249   5.490   3.404 -2.1362 -3.7921  1.3225
16371TIP3   OH270603   2.801   1.105  11.807 -0.1003  0.8380  0.3073
16371TIP3    H170604   2.722   1.139  11.849 -0.3560 -0.5241  0.9576
16371TIP3    H270605   2.812   1.160  11.729 -2.1765  0.5385 -0.2565
16372TIP3   OH270606   5.778   2.005  14.630 -0.0162  0.4293 -0.6729
16372TIP3    H170607   5.844   1.935  14.629  0.0503  0.4957 -1.0224
16372TIP3    H270608   5.744   2.004  14.719 -0.1145 -0.1459 -0.7117
16373TIP3   OH270609   5.920   5.556  15.675 -0.1337  0.0637 -0.0076
16373TIP3    H170610   6.011   5.584  15.662  0.1513 -0.8122  0.0488
16373TIP3    H270611   5.913   5.540  15.769 -0.3824  0.2281  0.0023
16374TIP3   OH270612   3.460   1.790   5.998  1.1543  0.0011  0.0452
16374TIP3    H170613   3.491   1.842   5.924  0.4947  1.8193  1.0060
16374TIP3    H270614   3.453   1.852   6.070 -2.3274 -0.7750  0.5517
16375TIP3   OH270615   1.938   1.993   2.090 -0.1810 -0.0078 -0.1128
16375TIP3    H170616   1.965   2.084   2.104 -0.0076 -0.1893  0.7964
16375TIP3    H270617   2.009   1.941   2.128 -0.9853 -0.5136  0.7281
16376TIP3   OH270618   5.871   1.702  10.445 -0.4239  0.1336  0.0179
16376TIP3    H170619   5.840   1.742  10.364 -0.1496  4.6269  1.8170
16376TIP3    H270620   5.792   1.666  10.486 -1.1156  0.6634 -0.8196
16377TIP3   OH270621   3.348   0.310   3.559  0.3202  0.8818  0.5454
16377TIP3    H170622   3.302   0.387   3.528 -0.3898  0.0452 -0.5709
16377TIP3    H270623   3.279   0.247   3.578  0.9379 -0.4810 -1.3785
16378TIP3   OH270624   1.274   0.985  11.616  0.6343 -0.5855  0.2979
16378TIP3    H170625   1.200   0.954  11.668 -0.6665  0.2193 -1.0036
16378TIP3    H270626   1.272   0.931  11.537  1.6849 -0.8011  0.4023
16379TIP3   OH270627   6.627   3.227   3.499 -0.9032  0.7399 -0.6472
16379TIP3    H170628   6.627   3.323   3.501  0.1160  0.7486  0.9321
16379TIP3    H270629   6.590   3.202   3.584 -0.0410 -0.2380 -0.5427
16380TIP3   OH270630   5.351   1.011  14.429  0.1285 -0.7339 -0.1058
16380TIP3    H170631   5.302   1.090  14.406 -1.1821 -2.3739 -3.5329
16380TIP3    H270632   5.424   1.044  14.482 -0.6673  2.6786 -0.8672
16381TIP3   OH270633   5.762   2.022  12.371  0.3711 -0.0331 -0.5459
16381TIP3    H170634   5.852   2.021  12.404  0.4626 -2.0214 -0.7466
16381TIP3    H270635   5.712   1.971  12.435 -0.3712  0.0302 -1.0617
16382TIP3   OH270636   0.967   4.429   0.185  0.1989  0.0495  0.1407
16382TIP3    H170637   0.922   4.411   0.103 -0.9145  0.4630  0.6438
16382TIP3    H270638   1.029   4.356   0.195 -1.0963 -1.1186 -0.0595
16383TIP3   OH270639   0.446   0.227   3.286  0.0929 -0.1234  0.0277
16383TIP3    H170640   0.371   0.174   3.313 -0.1204 -0.0907 -0.4837
16383TIP3    H270641   0.411   0.286   3.219  0.1981  1.0741  1.0021
16384TIP3   OH270642   3.855   1.191  15.534 -0.3179 -0.4058  0.5429
16384TIP3    H170643   3.924   1.131  15.505 -2.1131 -1.7733 -1.2140
16384TIP3    H270644   3.798   1.200  15.458 -1.7320  1.2058  1.7215
16385TIP3   OH270645   1.827   1.910   6.204 -0.5761  0.0241  0.1320
16385TIP3    H170646   1.892   1.876   6.142  0.3857 -1.9943  2.0974
16385TIP3    H270647   1.872   1.983   6.248 -1.6781  2.2716 -2.2015
16386TIP3   OH270648   3.328   0.357  14.480  0.0909 -0.0190  0.3101
16386TIP3    H170649   3.275   0.394  14.550 -0.0300  0.1212  0.1456
16386TIP3    H270650   3.360   0.274  14.514  2.3442  1.2757  1.6464
16387TIP3   OH270651   5.506   3.851  13.492  0.4263 -0.3212  0.2616
16387TIP3    H170652   5.524   3.938  13.456 -0.0467  0.1301  1.0895
16387TIP3    H270653   5.478   3.799  13.416  3.0602 -0.4755 -0.7061
16388TIP3   OH270654   5.061   3.481  16.396  0.6965  0.1789  0.1035
16388TIP3    H170655   4.972   3.452  16.413 -0.2863  2.9022  0.1534
16388TIP3    H270656   5.095   3.509  16.481  0.7186  1.2629 -0.2370
16389TIP3   OH270657   6.301   6.284   1.240 -0.0162  0.4219  0.0735
16389TIP3    H170658   6.292   6.377   1.262  0.8450  0.3084  1.0042
16389TIP3    H270659   6.212   6.256   1.220 -0.2200  1.5616 -0.7392
16390TIP3   OH270660   4.146   0.972   1.651 -0.1590 -0.1389 -0.1805
16390TIP3    H170661   4.068   1.001   1.603 -0.3795  0.5353  0.5614
16390TIP3    H270662   4.167   0.887   1.613 -2.0150 -0.9361  0.4765
16391TIP3   OH270663   2.353   3.923  15.850 -0.3589  0.4729 -0.6313
16391TIP3    H170664   2.347   3.999  15.909  0.7075  0.3112 -0.3061
16391TIP3    H270665   2.262   3.899  15.834 -0.6817  0.5165  0.9597
16392TIP3   OH270666   6.033   2.953  17.038  0.3001  0.3657 -0.1244
16392TIP3    H170667   5.946   2.991  17.052  0.1860  0.3638 -0.7841
16392TIP3    H270668   6.022   2.860  17.058 -0.7614 -0.3858 -3.4272
16393TIP3   OH270669   0.171   3.728   0.551  0.0272 -0.0574 -0.0102
16393TIP3    H170670   0.099   3.740   0.488 -0.1724  2.3645  0.5991
16393TIP3    H270671   0.134   3.754   0.635  1.5807  1.2070  0.3256
16394TIP3   OH270672   1.272   2.519  14.076  0.0067 -0.2078 -0.0268
16394TIP3    H170673   1.213   2.591  14.098  1.4458  0.7506  0.8478
16394TIP3    H270674   1.218   2.459  14.025 -1.3866  1.2020 -0.2949
16395TIP3   OH270675   4.290   4.404   2.495 -0.3183 -0.3595  0.0554
16395TIP3    H170676   4.213   4.348   2.490 -0.0532 -0.6940 -0.3247
16395TIP3    H270677   4.260   4.482   2.542 -0.1541 -1.7752  2.6895
16396TIP3   OH270678   2.694   1.328  16.098  0.1440  0.1958 -0.1140
16396TIP3    H170679   2.714   1.241  16.063  2.5232  0.2243  0.9857
16396TIP3    H270680   2.687   1.383  16.020  0.0149 -0.7135 -0.7701
16397TIP3   OH270681   1.264   3.302  16.410  0.2142 -0.3578  0.2854
16397TIP3    H170682   1.263   3.302  16.505  0.8337  2.6774  0.3998
16397TIP3    H270683   1.195   3.365  16.386  3.2784  2.8845 -0.9431
16398TIP3   OH270684   1.597   2.190   4.584 -0.1069  0.1396  0.4775
16398TIP3    H170685   1.673   2.191   4.527 -0.7695  0.4101 -0.4359
16398TIP3    H270686   1.610   2.263   4.644  2.6213 -2.5536  3.5256
16399TIP3   OH270687   5.465   1.009   3.367  0.1649  0.4664 -0.1494
16399TIP3    H170688   5.502   0.988   3.453 -1.8930 -0.0725  0.6481
16399TIP3    H270689   5.397   1.074   3.385 -0.5086  0.1199 -1.3328
16400TIP3   OH270690   5.201   5.794   1.426 -0.1328  0.4291  0.5352
16400TIP3    H170691   5.118   5.754   1.453  0.6487 -1.0460  0.8997
16400TIP3    H270692   5.262   5.771   1.496  0.5732  1.5522  0.3082
16401TIP3   OH270693   4.191   4.244  14.091 -0.0795 -0.3983 -0.4595
16401TIP3    H170694   4.277   4.217  14.123 -0.3778 -0.0987  0.6410
16401TIP3    H270695   4.178   4.330  14.129 -0.7069 -0.2737 -0.9468
16402TIP3   OH270696   2.251   5.021  12.830 -0.9223 -0.3359  0.6048
16402TIP3    H170697   2.320   4.964  12.863 -1.7962 -1.7084  0.1359
16402TIP3    H270698   2.178   5.010  12.891 -1.4743 -0.5634 -0.0705
16403TIP3   OH270699   1.361   0.453  13.517 -0.3262  0.3626 -0.9169
16403TIP3    H170700   1.400   0.521  13.462 -0.8024  2.1813  0.8755
16403TIP3    H270701   1.410   0.456  13.599 -1.1326 -0.6513 -0.3624
16404TIP3   OH270702   3.943   0.109   5.987 -0.0339  0.4648 -0.4008
16404TIP3    H170703   3.880   0.167   6.029 -0.4299  0.8377 -1.4841
16404TIP3    H270704   4.015   0.103   6.050  0.2207  2.4843 -0.4295
16405TIP3   OH270705   2.744   0.883  15.173  0.2919 -0.0680  0.3285
16405TIP3    H170706   2.739   0.978  15.159 -1.3918 -0.3558 -1.4312
16405TIP3    H270707   2.723   0.845  15.088 -1.1571 -2.0445  1.4931
16406TIP3   OH270708   3.791   4.903  12.454  0.0710  0.0538  0.5908
16406TIP3    H170709   3.788   4.946  12.540 -0.9168  0.2860  0.4500
16406TIP3    H270710   3.710   4.851  12.451  0.1116  0.0352 -0.1919
16407TIP3   OH270711   0.935   0.645  14.485  0.2117  0.0857  0.0321
16407TIP3    H170712   0.928   0.640  14.390  0.1320  1.4821 -0.0602
16407TIP3    H270713   1.023   0.613  14.505 -0.8020 -3.1239 -0.1960
16408TIP3   OH270714   1.572   4.462   0.184 -0.1946  0.2494 -0.0784
16408TIP3    H170715   1.630   4.480   0.258 -0.6280  2.0435 -0.1267
16408TIP3    H270716   1.610   4.385   0.142  0.1926 -0.6808  1.8529
16409TIP3   OH270717   4.237   3.023   2.359 -0.2401 -0.1039  0.0167
16409TIP3    H170718   4.310   2.970   2.391 -1.5366 -2.0908 -0.2008
16409TIP3    H270719   4.254   3.032   2.265  0.5421  0.8273  0.2309
16410TIP3   OH270720   5.364   4.207   4.033  0.0428 -0.0629 -0.3068
16410TIP3    H170721   5.307   4.284   4.026 -0.0273 -0.0705  0.1982
16410TIP3    H270722   5.441   4.231   3.981  0.6741  0.9530  1.0286
16411TIP3   OH270723   2.766   3.422  14.931 -0.3551  0.5253  0.6928
16411TIP3    H170724   2.799   3.507  14.904  0.4446 -0.2521 -0.9048
16411TIP3    H270725   2.773   3.367  14.853  0.2991 -1.3344  1.9766
16412TIP3   OH270726   3.317   2.093  11.238 -0.1413 -0.0764  0.1324
16412TIP3    H170727   3.292   2.001  11.246 -2.8063  0.4684 -0.8146
16412TIP3    H270728   3.376   2.095  11.162 -0.3219 -0.9594 -0.0413
16413TIP3   OH270729   1.262   2.967   3.277  0.2633  0.4626  0.5960
16413TIP3    H170730   1.234   2.976   3.186 -1.2328 -1.5283  0.7846
16413TIP3    H270731   1.337   3.026   3.285  0.9469  0.1088 -2.1441
16414TIP3   OH270732   2.200   4.537   3.929  0.4248 -0.7633 -0.1462
16414TIP3    H170733   2.170   4.448   3.949 -0.7136 -0.4002 -0.1801
16414TIP3    H270734   2.124   4.580   3.889 -0.2890  1.3682  3.1173
16415TIP3   OH270735   1.487   0.215  17.093  0.0754 -0.3440 -0.2050
16415TIP3    H170736   1.423   0.280  17.122  1.5588  0.2716  1.8807
16415TIP3    H270737   1.527   0.254  17.015 -0.6221  0.2225 -0.2834
16416TIP3   OH270738   0.618   1.049  13.546  0.1433  0.0709 -0.0648
16416TIP3    H170739   0.672   1.106  13.601  0.9696  0.3023 -1.0935
16416TIP3    H270740   0.651   1.062  13.457 -0.7725 -0.7485 -0.5479
16417TIP3   OH270741   3.829   4.411   1.789  0.3346  0.2481 -0.0376
16417TIP3    H170742   3.852   4.383   1.701 -3.0255 -0.9456 -0.6646
16417TIP3    H270743   3.754   4.469   1.777 -1.1095 -1.0494  2.0453
16418TIP3   OH270744   1.435   6.486   2.690  0.5829  0.5490  0.4209
16418TIP3    H170745   1.340   6.497   2.695  0.5619  0.1170  1.0252
16418TIP3    H270746   1.457   6.517   2.602 -0.3546 -0.9654 -0.3980
16419TIP3   OH270747   1.945   0.816  16.090  0.3114 -0.0819 -0.1016
16419TIP3    H170748   1.882   0.883  16.117  0.6080 -0.1518  0.7879
16419TIP3    H270749   2.024   0.865  16.067 -0.1805  0.0450 -1.6568
16420TIP3   OH270750   6.369   2.829  12.375 -0.3881 -0.1743  0.0340
16420TIP3    H170751   6.354   2.885  12.299 -0.1629 -0.2545 -0.0693
16420TIP3    H270752   6.445   2.868  12.419 -0.5955 -0.0533  0.2886
16421TIP3   OH270753   6.849   5.173  15.874 -0.1580  0.3290  0.6806
16421TIP3    H170754   6.932   5.217  15.895 -0.0457  0.5659 -0.2272
16421TIP3    H270755   6.870   5.117  15.799 -0.7659  0.2059  0.5967
16422TIP3   OH270756   2.031   2.899  13.491 -0.9120  0.7820  0.7777
16422TIP3    H170757   2.105   2.915  13.433 -0.7940 -0.5068  0.5295
16422TIP3    H270758   2.069   2.893  13.578 -0.0449 -3.2935  0.3486
16423TIP3   OH270759   2.639   6.068  13.986 -0.1408 -0.4338  0.0555
16423TIP3    H170760   2.550   6.047  13.957 -0.7368 -0.3199  1.6769
16423TIP3    H270761   2.655   6.007  14.058  0.1753  1.0754  1.3106
16424TIP3   OH270762   4.659   1.435   5.025 -0.2762  0.3840  0.5079
16424TIP3    H170763   4.579   1.453   5.074  0.3972 -0.1672  1.8563
16424TIP3    H270764   4.715   1.386   5.086  1.7399  2.0988  0.1567
16425TIP3   OH270765   0.822   4.488  16.581  0.4946 -0.1245 -0.1330
16425TIP3    H170766   0.801   4.526  16.667 -0.8396 -1.0028 -0.0529
16425TIP3    H270767   0.740   4.489  16.533  0.6144 -2.0308 -0.4607
16426TIP3   OH270768   1.309   0.716  15.361 -0.8643  0.0924 -0.4929
16426TIP3    H170769   1.334   0.755  15.444 -1.0302 -0.1845 -0.3093
16426TIP3    H270770   1.251   0.780  15.320  0.1728  0.7698 -0.9467
16427TIP3   OH270771   6.694   1.517   1.961 -0.0607 -0.4536 -0.0715
16427TIP3    H170772   6.686   1.423   1.951 -0.0419 -0.4613 -0.0151
16427TIP3    H270773   6.754   1.544   1.891  0.1875 -0.5255  0.1124
16428TIP3   OH270774   0.498   0.541  10.961  0.2780  0.2319  0.0272
16428TIP3    H170775   0.417   0.548  10.909  0.2365 -0.9970 -0.1037
16428TIP3    H270776   0.560   0.597  10.915 -0.2379  0.4648 -0.4053
16429TIP3   OH270777   4.250   0.464  16.651 -0.3453 -0.0519  0.1947
16429TIP3    H170778   4.199   0.514  16.588  0.6989  0.1939 -0.4896
16429TIP3    H270779   4.187   0.404  16.691 -0.9810 -0.5219 -1.3931
16430TIP3   OH270780   5.007   5.026  15.294 -0.3467 -0.0969  0.1659
16430TIP3    H170781   4.934   5.013  15.233  0.3405  1.7386 -1.1639
16430TIP3    H270782   5.040   4.938  15.312 -2.3483 -0.8947  0.1580
16431TIP3   OH270783   3.567   6.587  15.480 -0.0443 -0.2745 -0.1697
16431TIP3    H170784   3.605   6.511  15.437  3.2365  2.5662 -2.8836
16431TIP3    H270785   3.479   6.594  15.444 -0.1219 -2.2278 -0.4696
16432TIP3   OH270786   5.587   4.049   2.413  0.0381 -0.0307  0.1948
16432TIP3    H170787   5.677   4.079   2.403  0.0020 -0.6518 -2.9498
16432TIP3    H270788   5.545   4.068   2.329 -2.8582  0.3774  1.5814
16433TIP3   OH270789   1.170   1.188   5.830 -0.1246  0.0838 -0.1384
16433TIP3    H170790   1.231   1.199   5.903 -1.1587  2.0485  0.5092
16433TIP3    H270791   1.173   1.272   5.784 -1.0487 -0.3997 -1.1159
16434TIP3   OH270792   4.514   4.318  14.679  0.0832 -0.5270 -0.5250
16434TIP3    H170793   4.532   4.309  14.585 -0.7055 -0.5277 -0.6845
16434TIP3    H270794   4.559   4.243  14.719 -0.6882 -1.3052 -1.0613
16435TIP3   OH270795   2.248   6.627   4.154 -0.4314  0.0055 -0.2901
16435TIP3    H170796   2.301   6.603   4.078 -1.4337 -0.3212 -0.8934
16435TIP3    H270797   2.263   6.555   4.216 -0.1306 -0.0560 -0.4281
16436TIP3   OH270798   4.421   2.944  12.861  0.4205  0.2667  0.2654
16436TIP3    H170799   4.418   2.966  12.768  1.0705  0.4721  0.2846
16436TIP3    H270800   4.417   3.028  12.906  1.7897  0.3103  0.3668
16437TIP3   OH270801   5.440   6.842   2.101 -0.0205  0.0551  0.1426
16437TIP3    H170802   5.501   6.915   2.114  2.4807 -1.0355 -3.7665
16437TIP3    H270803   5.359   6.884   2.071  1.0156  1.3189 -1.0059
16438TIP3   OH270804   0.717   1.262  14.819 -0.1976 -0.5203  0.4872
16438TIP3    H170805   0.673   1.310  14.748  0.6302  0.3747  0.5525
16438TIP3    H270806   0.688   1.172  14.808 -1.4830 -0.0850  0.0999
16439TIP3   OH270807   2.463   5.848   1.321  0.2457  0.3426 -0.6123
16439TIP3    H170808   2.499   5.937   1.325  1.2543  0.0485 -2.2746
16439TIP3    H270809   2.523   5.800   1.264  0.8115 -1.9715  1.7372
16440TIP3   OH270810   4.419   3.387   2.899 -0.2117  0.3230  0.0700
16440TIP3    H170811   4.400   3.321   2.833  0.7163 -0.9179  0.9773
16440TIP3    H270812   4.346   3.449   2.894 -1.4108 -1.0718 -0.4439
16441TIP3   OH270813   1.558   4.106   5.077  0.2333  0.2577 -0.0754
16441TIP3    H170814   1.527   4.196   5.089  0.4763  0.0677  2.5801
16441TIP3    H270815   1.652   4.116   5.057  0.2364  0.5938  0.1013
16442TIP3   OH270816   0.075   4.079  15.178  0.2840  0.3151 -0.4168
16442TIP3    H170817   0.166   4.091  15.150  1.1524 -1.1367  1.5694
16442TIP3    H270818   0.072   4.115  15.267 -0.9783 -0.0476 -0.2966
16443TIP3   OH270819   2.805   2.664   4.219  0.5133  0.3045  0.4291
16443TIP3    H170820   2.893   2.702   4.227 -0.2201  2.6424 -1.2784
16443TIP3    H270821   2.746   2.739   4.225 -1.0498 -0.3464 -3.5903
16444TIP3   OH270822   4.123   3.075   0.809  0.6018  0.4351 -0.1583
16444TIP3    H170823   4.177   3.145   0.772  1.2681 -0.4273 -0.8481
16444TIP3    H270824   4.047   3.070   0.751  0.4941  0.6636 -0.0382
16445TIP3   OH270825   1.211   3.866   1.670 -0.0418 -0.4786  0.2887
16445TIP3    H170826   1.141   3.801   1.675 -1.3265  0.9347  1.2684
16445TIP3    H270827   1.268   3.833   1.600 -0.6641 -2.6181  0.7074
16446TIP3   OH270828   6.619   3.354  15.211  0.1872 -0.7245  0.0627
16446TIP3    H170829   6.567   3.431  15.186  0.8988  0.4293  1.9296
16446TIP3    H270830   6.615   3.297  15.134 -2.1699  0.1906 -0.6048
16447TIP3   OH270831   0.705   2.406  17.114  0.5622 -0.1121 -0.0564
16447TIP3    H170832   0.683   2.478  17.056  0.9168  0.1412  0.1191
16447TIP3    H270833   0.628   2.349  17.114 -0.8677  1.6649  1.9511
16448TIP3   OH270834   0.103   2.295   1.177 -0.3613 -0.5132 -0.2947
16448TIP3    H170835   0.159   2.372   1.183  0.0626 -0.9016  1.2701
16448TIP3    H270836   0.019   2.328   1.146 -0.3061  0.6559  0.7331
16449TIP3   OH270837   4.709   6.837  12.840  0.2639  0.3851  0.7552
16449TIP3    H170838   4.778   6.879  12.891 -1.1647  3.3580  0.4305
16449TIP3    H270839   4.755   6.779  12.779  2.3683  1.4508  1.2729
16450TIP3   OH270840   5.645   6.790  14.185  0.0408 -0.1618  0.1483
16450TIP3    H170841   5.579   6.777  14.116 -0.4629 -1.5659  0.8822
16450TIP3    H270842   5.723   6.819  14.137 -0.6347 -0.0008 -0.8957
16451TIP3   OH270843   5.646   3.256   0.367 -0.7514 -0.6771 -0.0564
16451TIP3    H170844   5.727   3.245   0.417  0.5736 -0.7847 -2.0934
16451TIP3    H270845   5.583   3.199   0.410  0.5104 -1.2770  1.0744
16452TIP3   OH270846   5.758   2.811   4.238 -0.4109  0.0662 -0.4101
16452TIP3    H170847   5.840   2.765   4.254 -0.2255 -0.1404 -1.8998
16452TIP3    H270848   5.756   2.827   4.144 -2.1096  0.0200 -0.4206
16453TIP3   OH270849   4.938   2.186  14.181  0.1870 -0.3641  0.5702
16453TIP3    H170850   4.863   2.166  14.126 -1.2781 -0.3064  2.4481
16453TIP3    H270851   5.005   2.219  14.120 -0.8367 -1.5802 -1.3101
16454TIP3   OH270852   6.402   2.300   5.888 -0.2924 -0.1294  0.2148
16454TIP3    H170853   6.430   2.330   5.974  1.1470 -0.5322 -0.0834
16454TIP3    H270854   6.441   2.213   5.879 -2.2970 -1.0716  0.0503
16455TIP3   OH270855   0.711   5.906   5.807 -0.0769  0.4116  0.6676
16455TIP3    H170856   0.764   5.869   5.736 -1.2522  0.1638 -0.1064
16455TIP3    H270857   0.657   5.972   5.765 -4.7944 -3.2961 -0.0132
16456TIP3   OH270858   0.402   1.996   4.494  0.4610 -0.4696 -0.5538
16456TIP3    H170859   0.408   1.926   4.429  0.1494 -1.1472  0.1284
16456TIP3    H270860   0.471   1.977   4.557  0.0851 -0.4344 -0.1205
16457TIP3   OH270861   3.582   2.123  13.798  0.0446  0.1242 -0.4001
16457TIP3    H170862   3.592   2.039  13.752 -0.2251  0.6644 -1.4881
16457TIP3    H270863   3.647   2.180  13.757 -2.0113  1.4117 -2.0681
16458TIP3   OH270864   0.073   4.249   5.040 -0.5315 -0.0270 -0.0770
16458TIP3    H170865   0.054   4.254   4.946  0.9518  0.4761 -0.3757
16458TIP3    H270866   0.039   4.164   5.068  1.3698 -1.3915 -1.6552
16459TIP3   OH270867   1.795   3.317  12.826 -0.0452  0.3312  0.6899
16459TIP3    H170868   1.751   3.321  12.911  0.7474 -0.1710  1.1368
16459TIP3    H270869   1.724   3.320  12.762 -0.7137 -0.3014  1.3839
16460TIP3   OH270870   5.441   6.213  16.682 -0.1306 -0.3167 -0.9240
16460TIP3    H170871   5.411   6.125  16.705 -0.7491  0.2568  0.5905
16460TIP3    H270872   5.519   6.226  16.735  0.2807 -0.1429 -1.5588
16461TIP3   OH270873   4.523   3.383   1.051  0.3729  0.2896 -0.5831
16461TIP3    H170874   4.615   3.368   1.031  0.3734  0.5662 -0.7895
16461TIP3    H270875   4.523   3.467   1.098  0.3961 -0.4273  0.7294
16462TIP3   OH270876   0.097   6.773   5.680 -0.4133  0.8487  0.0483
16462TIP3    H170877   0.179   6.819   5.658 -0.5396  1.1326  0.1591
16462TIP3    H270878   0.064   6.820   5.756 -1.3017  1.5213 -0.7179
16463TIP3   OH270879   3.148   1.904   0.400  0.2430 -0.4175 -0.0918
16463TIP3    H170880   3.207   1.854   0.343 -0.8790 -1.0862 -0.7130
16463TIP3    H270881   3.064   1.859   0.392 -0.6164  1.1112 -0.0257
16464TIP3   OH270882   0.179   2.316   4.662 -0.1531  0.2146 -0.1782
16464TIP3    H170883   0.106   2.342   4.606  1.0480  1.3491 -1.2943
16464TIP3    H270884   0.256   2.323   4.606  1.0403  0.8611  1.4519
16465TIP3   OH270885   5.169   3.238  17.041  0.2487 -0.1511 -0.3905
16465TIP3    H170886   5.103   3.307  17.029 -0.5694 -0.5624  1.3833
16465TIP3    H270887   5.238   3.260  16.979 -0.9875  1.0112 -1.4239
16466TIP3   OH270888   1.091   5.748   4.367  0.4900  0.4672  0.6210
16466TIP3    H170889   1.160   5.701   4.413 -0.0329 -0.3599  0.5892
16466TIP3    H270890   1.012   5.696   4.382  0.5062 -0.5620 -2.2166
16467TIP3   OH270891   0.928   1.112  11.336  0.1342  0.1052 -0.1235
16467TIP3    H170892   0.940   1.097  11.243  1.0231  1.1119 -0.1898
16467TIP3    H270893   0.897   1.028  11.371 -1.3550  0.0498 -1.5048
16468TIP3   OH270894   4.954   5.480   3.343  0.0488  0.0192  0.2072
16468TIP3    H170895   4.945   5.561   3.393  0.9978  0.1002  0.2647
16468TIP3    H270896   4.866   5.442   3.342 -0.2241  0.6220  0.9046
16469TIP3   OH270897   1.394   6.806   5.426 -0.1925 -0.0948  0.3432
16469TIP3    H170898   1.466   6.787   5.487 -0.0885 -1.3976 -0.1383
16469TIP3    H270899   1.400   6.736   5.360  0.2351  1.7302 -1.6688
16470TIP3   OH270900   6.289   5.544   0.736 -0.1200  0.2045  0.3836
16470TIP3    H170901   6.311   5.562   0.827 -0.4134  2.3352  0.0756
16470TIP3    H270902   6.350   5.598   0.686  1.1577 -2.1597 -0.7931
16471TIP3   OH270903   0.527   2.359  15.424 -0.2287  0.0451 -0.6842
16471TIP3    H170904   0.544   2.274  15.384 -0.3885 -0.7853  0.9570
16471TIP3    H270905   0.433   2.373  15.413 -0.1552  0.1559 -1.2022
16472TIP3   OH270906   0.537   6.571  14.158 -1.6277  0.1834  0.1937
16472TIP3    H170907   0.587   6.549  14.237 -1.6018  1.1020  0.4362
16472TIP3    H270908   0.467   6.627  14.189 -0.1190  2.7421 -0.7526
16473TIP3   OH270909   2.810   4.334  11.063  0.0227 -0.4956 -0.1501
16473TIP3    H170910   2.788   4.295  10.979  1.8178  0.6534 -1.2352
16473TIP3    H270911   2.838   4.423  11.041 -1.3636  0.5343  1.9088
16474TIP3   OH270912   1.103   1.580  13.630  0.8647 -0.1119 -0.2293
16474TIP3    H170913   1.198   1.570  13.624  0.8788  0.4269 -0.9691
16474TIP3    H270914   1.090   1.667  13.667  0.6530  0.3339 -1.3204
16475TIP3   OH270915   4.958   2.355   3.134  0.5091 -0.2564 -0.4389
16475TIP3    H170916   4.963   2.268   3.173  0.4503  0.3442  0.9702
16475TIP3    H270917   4.959   2.339   3.039  0.3997 -1.7822 -0.2094
16476TIP3   OH270918   3.269   5.618   2.078 -0.1195  1.0325  0.7491
16476TIP3    H170919   3.234   5.660   1.999 -0.2488 -2.8058 -1.5185
16476TIP3    H270920   3.357   5.591   2.054 -0.7394 -1.6876  1.1625
16477TIP3   OH270921   2.103   5.029  16.469  0.1956  0.0505  0.2489
16477TIP3    H170922   2.084   5.093  16.400  1.9242  0.6584  0.2703
16477TIP3    H270923   2.017   5.003  16.502 -0.5990  1.7087 -0.3677
16478TIP3   OH270924   3.432   3.290  16.269  0.3058  0.2106  0.2086
16478TIP3    H170925   3.487   3.212  16.268  0.4340  0.2946 -0.8571
16478TIP3    H270926   3.470   3.347  16.202  0.2241  1.1979  0.9819
16479TIP3   OH270927   4.337   5.545  17.082 -0.2573  0.5647 -0.0242
16479TIP3    H170928   4.273   5.532  17.012 -0.3857 -2.7775  0.5662
16479TIP3    H270929   4.414   5.496  17.054 -0.0012 -0.1191  1.7659
16480TIP3   OH270930   1.022   1.466   0.909 -0.4471  0.2823  0.8067
16480TIP3    H170931   1.114   1.442   0.895  0.7237  2.8208  3.2710
16480TIP3    H270932   0.999   1.517   0.831  0.4379  0.1239  0.4226
16481TIP3   OH270933   1.852   4.670   5.099  0.3366 -0.8021  0.8597
16481TIP3    H170934   1.757   4.669   5.112  0.1953 -1.3790 -0.0709
16481TIP3    H270935   1.886   4.724   5.170 -0.7842  0.2725  0.6053
16482TIP3   OH270936   0.163   6.194  14.819 -0.3136  0.1730 -0.1566
16482TIP3    H170937   0.122   6.108  14.827 -0.3143 -0.2677 -3.4296
16482TIP3    H270938   0.147   6.237  14.903 -2.2920 -2.1588  0.7656
16483TIP3   OH270939   0.530   4.725   6.201  0.9860 -0.2166 -0.1010
16483TIP3    H170940   0.461   4.659   6.202  1.5243 -0.8667  2.5461
16483TIP3    H270941   0.493   4.800   6.249  1.2427  0.4349 -0.9014
16484TIP3   OH270942   2.422   1.852  15.255  0.5125  0.1362 -0.7842
16484TIP3    H170943   2.399   1.944  15.256  0.6774  0.1741  0.5991
16484TIP3    H270944   2.451   1.832  15.344  2.9280 -0.6325 -1.6374
16485TIP3   OH270945   1.193   5.196  14.485  0.4176 -0.1799 -0.1134
16485TIP3    H170946   1.161   5.286  14.477  1.2095  0.0339 -0.9449
16485TIP3    H270947   1.287   5.202  14.471  0.3614 -1.2593 -1.1031
16486TIP3   OH270948   3.461   6.561   0.152  0.5310 -0.1987  0.4940
16486TIP3    H170949   3.405   6.596   0.083  0.8751 -0.0075  0.3063
16486TIP3    H270950   3.544   6.607   0.140  0.7571 -0.5505  0.7047
16487TIP3   OH270951   1.396   3.779   2.597 -0.2430  0.4057  0.3298
16487TIP3    H170952   1.320   3.830   2.625 -1.0711 -0.9339  0.6494
16487TIP3    H270953   1.430   3.826   2.521  0.0882  2.3501  1.6017
16488TIP3   OH270954   5.456   3.193   2.889  0.4274  0.1386 -0.0428
16488TIP3    H170955   5.488   3.110   2.925 -0.9692 -0.7172 -0.7126
16488TIP3    H270956   5.424   3.241   2.965  1.8034  0.3646  0.4342
16489TIP3   OH270957   5.028   2.485  12.686 -0.0662  0.3460 -0.5056
16489TIP3    H170958   5.039   2.575  12.717 -0.4878 -0.3104  1.7640
16489TIP3    H270959   5.109   2.441  12.712 -1.0616 -0.5944  1.2414
16490TIP3   OH270960   5.076   3.467   0.348  0.0679 -0.2101  0.0906
16490TIP3    H170961   5.171   3.457   0.356  0.0213 -1.8412 -0.9059
16490TIP3    H270962   5.042   3.447   0.435  0.5310 -1.4527 -0.0003
16491TIP3   OH270963   4.432   0.935   4.248  0.0549 -0.5411 -0.5325
16491TIP3    H170964   4.426   0.839   4.249  1.3735 -0.6834 -2.1141
16491TIP3    H270965   4.359   0.962   4.192  1.1275 -0.8375 -2.1565
16492TIP3   OH270966   2.447   5.819  11.787  0.3024  0.2013 -0.6077
16492TIP3    H170967   2.397   5.900  11.789 -1.5339 -0.8748  0.5213
16492TIP3    H270968   2.380   5.750  11.791  1.8280 -1.3392  2.8555
16493TIP3   OH270969   4.159   2.321   2.254 -0.4725 -0.0549  0.0785
16493TIP3    H170970   4.172   2.408   2.218 -0.1949  0.1773  0.7291
16493TIP3    H270971   4.160   2.333   2.349  0.6216 -0.9144  0.2023
16494TIP3   OH270972   1.263   5.568   1.871 -0.1548  0.2350  0.2439
16494TIP3    H170973   1.222   5.589   1.787 -1.4512 -1.1903  0.4694
16494TIP3    H270974   1.203   5.604   1.937 -2.1408 -3.2984  0.6251
16495TIP3   OH270975   0.887   4.595  10.788 -0.1096 -0.2761 -0.4924
16495TIP3    H170976   0.908   4.688  10.790  0.6786 -0.4316 -0.9478
16495TIP3    H270977   0.794   4.592  10.766 -0.1418  0.4047 -0.4703
16496TIP3   OH270978   0.198   1.380   4.782 -0.0005  0.1061  0.5913
16496TIP3    H170979   0.178   1.337   4.699 -0.2126 -0.4309  0.9150
16496TIP3    H270980   0.169   1.471   4.770 -2.4504 -0.5648  0.9514
16497TIP3   OH270981   5.300   3.312  12.979  0.0860 -0.0484 -0.0899
16497TIP3    H170982   5.327   3.398  12.947  1.8630 -0.8331 -0.8363
16497TIP3    H270983   5.263   3.269  12.902  1.2502 -0.7246 -0.2940
16498TIP3   OH270984   1.309   2.358  10.700  0.8220  0.5961  0.0724
16498TIP3    H170985   1.339   2.275  10.663  0.7390  0.4953  0.2304
16498TIP3    H270986   1.294   2.338  10.792  0.7044  0.7625  0.0877
16499TIP3   OH270987   6.623   5.566   4.287 -0.2643 -0.1165  0.0962
16499TIP3    H170988   6.676   5.583   4.209 -2.8087 -0.6496 -1.8761
16499TIP3    H270989   6.655   5.482   4.320 -0.1217 -0.6284 -1.2820
16500TIP3   OH270990   4.197   4.353   1.283  0.5533 -0.1641 -0.2483
16500TIP3    H170991   4.197   4.377   1.191 -0.1062  0.4574 -0.0926
16500TIP3    H270992   4.112   4.312   1.298 -0.5895  2.3879  0.7309
16501TIP3   OH270993   4.454   2.798  14.757 -0.0052 -0.0188  0.2902
16501TIP3    H170994   4.511   2.860  14.801 -0.5870  1.5631 -1.0716
16501TIP3    H270995   4.376   2.793  14.812  0.2694  0.0176  0.6887
16502TIP3   OH270996   6.345   1.877  10.897  0.3116 -0.0831 -0.2626
16502TIP3    H170997   6.374   1.883  10.806 -1.5366  1.0832 -0.8452
16502TIP3    H270998   6.259   1.919  10.897  1.0477  1.6696  2.3817
16503TIP3   OH270999   1.596   3.835   6.420  0.8256 -0.1323 -0.1732
16503TIP3    H171000   1.608   3.811   6.512  0.3906  1.8761  0.4726
16503TIP3    H271001   1.681   3.872   6.394  0.7073  0.0357 -0.3234
16504TIP3   OH271002   4.603   1.084  13.553 -0.1852 -0.0518  0.0080
16504TIP3    H171003   4.559   1.137  13.620 -0.0062  1.1523 -0.8012
16504TIP3    H271004   4.588   1.130  13.471  1.1701 -0.4984 -0.5318
16505TIP3   OH271005   2.546   2.540   3.010  0.4362  0.0392 -0.5301
16505TIP3    H171006   2.502   2.483   3.073  2.1191 -0.1898  0.5140
16505TIP3    H271007   2.479   2.602   2.982 -0.3478  0.2404  1.6181
16506TIP3   OH271008   4.212   2.654   3.131 -0.0021 -0.0743 -0.2115
16506TIP3    H171009   4.164   2.589   3.080 -0.0479 -0.8068  0.7577
16506TIP3    H271010   4.300   2.654   3.093  0.3127 -1.4846  0.4519
16507TIP3   OH271011   3.965   0.776  15.906  0.3594  0.4032  0.0919
16507TIP3    H171012   3.966   0.760  15.812  1.9834 -0.8515  0.2691
16507TIP3    H271013   3.878   0.813  15.924  0.0397  0.6967 -1.8800
16508TIP3   OH271014   5.134   1.999   0.329  1.1863  0.7077  0.1273
16508TIP3    H171015   5.104   2.086   0.354  3.1461  1.3565  0.3889
16508TIP3    H271016   5.126   1.997   0.234  1.3859  1.2653  0.0988
16509TIP3   OH271017   1.052   6.606  11.392  0.3115  0.4766  0.5340
16509TIP3    H171018   0.967   6.564  11.385 -0.3074  1.7785  0.0047
16509TIP3    H271019   1.041   6.691  11.349  1.7948  0.7783  0.6956
16510TIP3   OH271020   2.758   0.012  11.587 -0.0036  0.2606  0.1612
16510TIP3    H171021   2.679   0.065  11.590 -0.3854 -0.3490  1.5370
16510TIP3    H271022   2.809   0.041  11.663 -0.4061 -1.5729  1.1990
16511TIP3   OH271023   0.309   4.715   5.999  0.7999 -0.2391 -0.1549
16511TIP3    H171024   0.386   4.671   5.964 -0.5028 -0.9999 -2.2096
16511TIP3    H271025   0.247   4.644   6.019 -0.4969  0.4907 -1.4229
16512TIP3   OH271026   6.588   1.836   1.217  0.0600 -0.3690  0.4826
16512TIP3    H171027   6.601   1.924   1.254  0.8980 -0.4378  0.3669
16512TIP3    H271028   6.493   1.828   1.208 -0.0724  0.2173  1.2341
16513TIP3   OH271029   2.989   4.757  15.031 -0.1014  0.2844 -0.1978
16513TIP3    H171030   2.913   4.787  15.080 -1.7789 -2.3135 -0.9915
16513TIP3    H271031   2.981   4.797  14.945 -0.4493  0.2242 -0.1934
16514TIP3   OH271032   3.936   4.575   4.253 -0.7080 -0.0439 -0.2253
16514TIP3    H171033   3.927   4.544   4.343 -0.5454 -2.6650 -1.0412
16514TIP3    H271034   3.997   4.514   4.212 -1.4987  0.5171 -2.3724
16515TIP3   OH271035   3.558   1.201   0.495  0.1565 -0.2772 -0.0651
16515TIP3    H171036   3.614   1.154   0.557 -1.3788 -1.1768  0.7246
16515TIP3    H271037   3.519   1.272   0.547 -0.7267 -0.7094 -0.1128
16516TIP3   OH271038   2.997   2.600  11.198  0.6371 -0.0802 -0.4497
16516TIP3    H171039   2.988   2.694  11.208  0.9268  0.0002 -0.9669
16516TIP3    H271040   2.934   2.563  11.262 -1.0502  0.4557 -1.7321
16517TIP3   OH271041   6.145   6.146  15.801  0.1605 -0.2263  0.4261
16517TIP3    H171042   6.161   6.240  15.802 -0.9488  0.0333 -1.3116
16517TIP3    H271043   6.218   6.109  15.851  0.0050  1.6004  2.1631
16518TIP3   OH271044   4.620   0.879  16.940 -0.2855  0.8321 -0.1662
16518TIP3    H171045   4.589   0.882  17.030 -0.9751 -0.6631 -0.3336
16518TIP3    H271046   4.696   0.821  16.943  0.0436  1.2391 -0.4569
16519TIP3   OH271047   1.302   6.452  16.751  0.1964  0.0299 -0.3224
16519TIP3    H171048   1.319   6.518  16.818 -0.5450  1.2036 -1.2363
16519TIP3    H271049   1.212   6.424  16.766  0.2113 -0.1090 -0.4877
16520TIP3   OH271050   3.824   3.226   4.905  0.0788  0.1531  0.0825
16520TIP3    H171051   3.801   3.218   4.997  1.7564  0.9453  0.6101
16520TIP3    H271052   3.915   3.197   4.900  0.9375  2.7053 -0.7803
16521TIP3   OH271053   3.779   2.433   0.221  0.3220 -0.2471 -0.1086
16521TIP3    H171054   3.735   2.411   0.304  1.0391 -1.2203  0.0399
16521TIP3    H271055   3.724   2.501   0.182 -0.7106 -0.6550  0.5781
16522TIP3   OH271056   6.187   0.906  16.025 -0.5855 -0.4035 -0.0909
16522TIP3    H171057   6.182   0.996  16.057 -3.1060 -0.1938 -0.8427
16522TIP3    H271058   6.160   0.912  15.933 -0.2801 -1.8589 -0.2951
16523TIP3   OH271059   3.626   2.210   4.129 -0.0446 -0.4214  0.3988
16523TIP3    H171060   3.575   2.136   4.094  2.2079 -2.6027  1.4207
16523TIP3    H271061   3.606   2.282   4.070 -2.3134 -1.8324 -0.7237
16524TIP3   OH271062   6.603   0.813   5.845  0.3421  0.3892  0.3069
16524TIP3    H171063   6.554   0.772   5.773  1.3956 -1.6714  0.7032
16524TIP3    H271064   6.628   0.741   5.902  2.0083  1.6294  1.2444
16525TIP3   OH271065   6.161   2.863  12.730  0.1975 -0.5441  0.2686
16525TIP3    H171066   6.171   2.771  12.706  0.7822 -0.0283 -1.5899
16525TIP3    H271067   6.249   2.900  12.721 -0.4452  0.6997 -1.3022
16526TIP3   OH271068   4.745   2.092   2.992 -0.2282  0.1271  0.3089
16526TIP3    H171069   4.774   2.045   3.070 -0.9726 -2.5866 -0.8965
16526TIP3    H271070   4.654   2.114   3.011 -0.2415 -0.0318  0.4385
16527TIP3   OH271071   4.593   6.111  12.570 -0.3803  0.3143 -0.2927
16527TIP3    H171072   4.565   6.148  12.653 -1.0052  0.1507 -0.4233
16527TIP3    H271073   4.518   6.059  12.541  0.5519 -1.2135 -0.0223
16528TIP3   OH271074   3.219   2.138  12.890 -0.0615  0.3810  0.7637
16528TIP3    H171075   3.270   2.094  12.958 -1.0013  2.0095  2.6427
16528TIP3    H271076   3.223   2.231  12.914 -0.5086  1.0099 -1.3917
16529TIP3   OH271077   5.689   3.620   5.723 -0.1648 -0.0737  0.3146
16529TIP3    H171078   5.773   3.659   5.698 -1.1511  1.1218 -1.3113
16529TIP3    H271079   5.636   3.695   5.750 -1.2609 -0.6018 -0.3308
16530TIP3   OH271080   1.262   6.844  11.001  0.0661 -0.0042  0.0133
16530TIP3    H171081   1.323   6.769  11.001  0.6669  0.4712  0.2753
16530TIP3    H271082   1.275   6.885  11.087  0.5927  1.0717 -0.5577
16531TIP3   OH271083   2.013   1.774  15.960 -0.1102 -0.1994 -0.4459
16531TIP3    H171084   2.098   1.738  15.987 -0.2648 -0.8202 -0.7734
16531TIP3    H271085   1.969   1.701  15.916 -0.5759  0.2868 -0.7993
16532TIP3   OH271086   2.340   2.091   5.513 -0.2286 -0.3277 -0.1603
16532TIP3    H171087   2.269   2.033   5.484 -0.2028  0.7195 -2.4926
16532TIP3    H271088   2.397   2.034   5.565 -1.8747 -1.5861  0.3519
16533TIP3   OH271089   2.150   4.105  14.502  0.2711 -0.0811 -0.4543
16533TIP3    H171090   2.162   4.024  14.551 -0.2977  0.9352  1.4804
16533TIP3    H271091   2.182   4.173  14.561 -0.3715  1.2030 -1.5490
16534TIP3   OH271092   3.492   3.852   3.879 -0.0022 -0.4159  0.5453
16534TIP3    H171093   3.432   3.783   3.852  0.2073 -0.8694  1.1998
16534TIP3    H271094   3.440   3.932   3.876 -0.5957 -0.7754  0.9392
16535TIP3   OH271095   2.231   0.091  16.388 -0.3388 -0.1838 -0.3823
16535TIP3    H171096   2.228   0.133  16.474 -2.7245  0.7383 -0.8238
16535TIP3    H271097   2.245  -0.002  16.407 -0.6717  0.0240  1.0041
16536TIP3   OH271098   0.919   2.844  10.366  0.2768 -0.5468  0.0579
16536TIP3    H171099   0.940   2.868  10.456  0.4616 -1.7471  0.3571
16536TIP3    H271100   0.931   2.749  10.363 -2.3633 -0.9570 -0.4898
16537TIP3   OH271101   6.331   0.579   2.981  0.6947  0.0749 -0.4580
16537TIP3    H171102   6.314   0.578   3.076 -0.8509  0.9184 -0.6912
16537TIP3    H271103   6.338   0.671   2.959  0.4093 -0.0875 -1.2608
16538TIP3   OH271104   0.515   4.441  16.531 -0.1645  0.4835  0.2188
16538TIP3    H171105   0.443   4.451  16.593  1.2313 -0.1753  2.0531
16538TIP3    H271106   0.521   4.525  16.486 -0.9948  1.1175  1.2639
16539TIP3   OH271107   0.757   3.704   5.589  0.2351 -0.2293 -0.1852
16539TIP3    H171108   0.704   3.659   5.655  0.6076 -0.3893  0.0023
16539TIP3    H271109   0.841   3.658   5.590  1.1974  1.4729  1.1502
16540TIP3   OH271110   6.314   6.490   0.778 -0.5340  0.9107  0.3963
16540TIP3    H171111   6.276   6.542   0.849  0.6669  3.9405 -1.0253
16540TIP3    H271112   6.322   6.551   0.705  0.4364 -1.4731 -1.6259
16541TIP3   OH271113   3.471   1.765  16.282 -0.0972 -1.0023 -0.5791
16541TIP3    H171114   3.538   1.811  16.333  0.5757 -1.5873 -0.9265
16541TIP3    H271115   3.475   1.806  16.196 -0.5129 -0.7326 -0.4769
16542TIP3   OH271116   1.076   0.097   5.759 -0.2972  0.2135  0.3086
16542TIP3    H171117   1.002   0.038   5.744 -0.3939  0.6185 -0.8854
16542TIP3    H271118   1.036   0.179   5.787 -0.3789  0.6886 -1.1244
16543TIP3   OH271119   5.148   1.028   4.158 -0.0735 -0.1875  0.1687
16543TIP3    H171120   5.142   0.986   4.072  1.0677  0.1219 -0.0770
16543TIP3    H271121   5.066   1.075   4.168 -1.1436 -1.9863  0.1927
16544TIP3   OH271122   0.705   5.535  16.483 -0.3789  0.0843 -0.0951
16544TIP3    H171123   0.679   5.592  16.411 -0.0340 -1.5267 -1.5684
16544TIP3    H271124   0.627   5.482  16.501  0.5221 -1.9189 -1.7230
16545TIP3   OH271125   3.373   1.577   6.155  0.0041 -0.0575 -0.2164
16545TIP3    H171126   3.278   1.583   6.163 -0.1066 -0.5352 -1.0768
16545TIP3    H271127   3.395   1.640   6.087  0.4112  0.6656  0.5651
16546TIP3   OH271128   0.907   0.178   2.914 -0.9373  0.2684  0.5005
16546TIP3    H171129   0.813   0.161   2.914 -0.8539 -0.2922  1.6021
16546TIP3    H271130   0.930   0.185   3.006  0.3165 -0.8534  0.2964
16547TIP3   OH271131   3.987   4.201   3.648 -0.2971  0.0396  0.2878
16547TIP3    H171132   4.026   4.268   3.591 -0.1924  0.0765  0.4027
16547TIP3    H271133   3.913   4.244   3.689 -1.7531 -0.6182 -1.5007
16548TIP3   OH271134   1.425   2.814  14.734  0.6320  0.0503  0.2584
16548TIP3    H171135   1.388   2.900  14.751  0.7109  0.2506 -0.5085
16548TIP3    H271136   1.355   2.766  14.691  1.3680  0.6220 -1.7391
16549TIP3   OH271137   5.785   0.653   0.649 -0.3107  0.0479  0.5765
16549TIP3    H171138   5.745   0.630   0.733  1.0067  0.6068  1.3891
16549TIP3    H271139   5.774   0.575   0.595 -1.5426 -0.1735  1.1111
16550TIP3   OH271140   2.476   4.453   0.315  0.0093  0.3252  0.0698
16550TIP3    H171141   2.555   4.491   0.354  1.7567 -3.3487  0.4958
16550TIP3    H271142   2.466   4.368   0.358 -2.0602 -0.9071 -2.5661
16551TIP3   OH271143   6.298   0.935   4.318  0.2402  0.2699  0.2641
16551TIP3    H171144   6.277   1.028   4.311  0.9961  0.4807  0.6540
16551TIP3    H271145   6.394   0.933   4.317  0.2506 -0.6234 -1.3377
16552TIP3   OH271146   4.476   1.733  12.533  0.0643 -0.2562 -0.4153
16552TIP3    H171147   4.545   1.781  12.579  1.5793 -0.0773 -2.7013
16552TIP3    H271148   4.395   1.777  12.557  1.0196  1.1465  0.3591
16553TIP3   OH271149   0.845   1.255   0.386  0.1238  0.2663  0.0245
16553TIP3    H171150   0.788   1.303   0.446 -0.7555  0.5864 -1.0406
16553TIP3    H271151   0.890   1.323   0.336  1.1553  0.0086  0.5709
16554TIP3   OH271152   0.086   6.413  16.104 -0.5789  0.2266 -0.0872
16554TIP3    H171153   0.128   6.463  16.034 -1.0328 -0.2526 -0.7142
16554TIP3    H271154   0.140   6.430  16.182 -0.2560  1.0168 -0.4788
16555TIP3   OH271155   5.029   4.107   3.686  0.3343 -0.0229 -0.5962
16555TIP3    H171156   5.091   4.175   3.709  0.3777  0.3521 -1.7665
16555TIP3    H271157   4.943   4.145   3.704  0.3983 -0.5911  1.1565
16556TIP3   OH271158   2.835   2.341   0.867  0.0675  0.4239 -0.3317
16556TIP3    H171159   2.844   2.384   0.952  0.3891  0.0196 -0.1586
16556TIP3    H271160   2.820   2.413   0.806 -0.0998  0.7254  0.0547
16557TIP3   OH271161   2.454   4.793   3.848  0.2945  0.3974  0.5572
16557TIP3    H171162   2.470   4.699   3.838 -0.0301  0.3977 -0.0076
16557TIP3    H271163   2.529   4.825   3.898  0.6145 -0.0922  0.3946
16558TIP3   OH271164   3.162   1.883   2.353 -0.1437 -0.1361 -0.3035
16558TIP3    H171165   3.238   1.869   2.410  1.1062 -2.1260 -2.2946
16558TIP3    H271166   3.122   1.964   2.386  1.9827  0.1982  1.7269
16559TIP3   OH271167   5.037   5.628  16.874  0.2086 -0.5921 -0.5401
16559TIP3    H171168   5.023   5.711  16.920  1.7297 -0.9769  0.7200
16559TIP3    H271169   4.952   5.583  16.879  0.2439 -0.5245  1.7993
16560TIP3   OH271170   0.945   0.726   5.419 -0.0867 -0.0977  0.1502
16560TIP3    H171171   0.978   0.668   5.351  1.2992 -0.3422  0.9800
16560TIP3    H271172   0.885   0.785   5.374  0.8970 -0.1596 -1.3069
16561TIP3   OH271173   0.068   3.760   4.954  0.2611 -0.2962 -0.0831
16561TIP3    H171174   0.097   3.670   4.941 -0.3659 -0.4449 -0.5039
16561TIP3    H271175   0.028   3.759   5.041  2.5727  0.2053  1.0521
16562TIP3   OH271176   6.084   6.540   1.704  0.0793  0.1295 -0.0890
16562TIP3    H171177   6.026   6.516   1.776 -0.5487  0.3431 -0.5131
16562TIP3    H271178   6.110   6.630   1.723  0.4068 -0.0229  0.1874
16563TIP3   OH271179   5.926   4.202   2.110  0.0860 -0.4213  0.0266
16563TIP3    H171180   5.864   4.132   2.086 -0.7324  0.9594 -2.1396
16563TIP3    H271181   5.984   4.209   2.034  2.5119 -1.1673  1.7150
16564TIP3   OH271182   3.269   5.345  14.676  0.0879  0.3149 -0.1428
16564TIP3    H171183   3.192   5.362  14.622  0.1297  0.1891 -0.2433
16564TIP3    H271184   3.315   5.275  14.631 -0.7698 -1.0154  0.9581
16565TIP3   OH271185   5.285   2.024  16.717 -0.7118  0.0854  0.1340
16565TIP3    H171186   5.288   1.989  16.628 -0.2706 -0.6801  0.4380
16565TIP3    H271187   5.369   2.067  16.729  0.2781 -1.9376  0.9919
16566TIP3   OH271188   6.540   4.197   1.517  0.1243 -0.2033  0.1128
16566TIP3    H171189   6.613   4.147   1.552  0.3122 -0.1766 -0.2412
16566TIP3    H271190   6.571   4.287   1.515  0.2040 -0.2408 -0.3642
16567TIP3   OH271191   2.787   2.537  11.017 -0.2506  0.0039 -0.1492
16567TIP3    H171192   2.792   2.531  10.921 -1.3733  0.5566 -0.2588
16567TIP3    H271193   2.860   2.593  11.041  0.3880 -0.6036 -0.6209
16568TIP3   OH271194   3.954   6.314   6.523  0.1222  0.3954 -0.5721
16568TIP3    H171195   4.025   6.254   6.502  0.4341  1.1479 -1.7793
16568TIP3    H271196   3.952   6.376   6.450 -0.2137  1.8265  0.5818
16569TIP3   OH271197   0.523   1.777   2.209 -0.0693 -0.0778  0.1997
16569TIP3    H171198   0.598   1.822   2.171  0.4343  1.3504  2.6884
16569TIP3    H271199   0.539   1.684   2.191  0.2007  0.4498 -2.7523
16570TIP3   OH271200   1.569   1.230   5.059  0.1456  0.2324  0.4992
16570TIP3    H171201   1.578   1.216   4.964 -2.5171 -0.4213  0.2739
16570TIP3    H271202   1.629   1.302   5.077 -0.9424  1.9656 -2.1392
16571TIP3   OH271203   1.262   3.203   2.546 -0.0377  0.2661 -0.3132
16571TIP3    H171204   1.323   3.210   2.473 -0.3681  1.9732 -0.4741
16571TIP3    H271205   1.236   3.111   2.548  4.7450 -1.3611  1.6111
16572TIP3   OH271206   5.752   5.564   0.175  0.8156 -0.0165 -0.3566
16572TIP3    H171207   5.678   5.521   0.132  0.7175  0.2160 -0.4281
16572TIP3    H271208   5.818   5.574   0.107  0.2977  1.2002 -0.7173
16573TIP3   OH271209   6.178   4.202  10.584  0.4002 -0.7211 -0.3593
16573TIP3    H171210   6.229   4.279  10.612 -1.2167  0.1842  0.2256
16573TIP3    H271211   6.226   4.128  10.621  2.4206 -0.1023 -1.5744
16574TIP3   OH271212   5.240   5.451   5.630 -0.0898  0.4802 -0.2745
16574TIP3    H171213   5.187   5.493   5.697 -0.0747  0.8993 -0.5266
16574TIP3    H271214   5.330   5.459   5.662 -0.0426  1.0504 -0.5447
16575TIP3   OH271215   2.812   0.924   2.628  0.2628 -0.7433 -0.5050
16575TIP3    H171216   2.877   0.989   2.599  0.6897 -0.7291  0.4600
16575TIP3    H271217   2.728   0.959   2.597  0.2191  1.3470  1.6990
16576TIP3   OH271218   0.377   4.417  12.060 -0.6175  0.4011  0.3219
16576TIP3    H171219   0.398   4.427  12.153  0.1985 -0.6423  0.2621
16576TIP3    H271220   0.380   4.507  12.026  2.1207  0.5417  0.6915
16577TIP3   OH271221   2.965   1.584  15.197  0.4161  0.1170 -0.1237
16577TIP3    H171222   3.018   1.663  15.208 -0.5682  0.6572  1.0894
16577TIP3    H271223   2.979   1.534  15.277 -0.0100 -0.2847 -0.2929
16578TIP3   OH271224   1.390   1.848  15.587 -0.2865  0.1298  0.1216
16578TIP3    H171225   1.353   1.936  15.580 -1.0289  0.0709  2.4950
16578TIP3    H271226   1.452   1.853  15.659 -0.4543 -1.3192  0.4046
16579TIP3   OH271227   3.562   0.512   2.373 -0.1638 -0.2867 -0.5252
16579TIP3    H171228   3.628   0.517   2.304 -2.2640 -0.8692 -2.7116
16579TIP3    H271229   3.513   0.593   2.365  0.7780  0.5818  1.7124
16580TIP3   OH271230   1.528   3.506   0.782  0.5548  0.2325  0.1911
16580TIP3    H171231   1.607   3.477   0.736  1.0585  0.9808  0.5571
16580TIP3    H271232   1.474   3.547   0.715  1.3204  1.3923  0.2472
16581TIP3   OH271233   3.259   6.553  13.235  0.0310  0.2434 -0.2435
16581TIP3    H171234   3.350   6.539  13.263 -0.3907  1.5250  1.9978
16581TIP3    H271235   3.260   6.640  13.194  0.0062 -0.2129 -1.2281
16582TIP3   OH271236   1.597   1.355  14.692  0.1201  0.4033  0.5644
16582TIP3    H171237   1.529   1.349  14.625  1.0223  1.8742 -0.5321
16582TIP3    H271238   1.663   1.291  14.665  0.9852  1.7433 -0.5970
16583TIP3   OH271239   0.507   5.685   5.772 -0.2639 -0.0771  0.0358
16583TIP3    H171240   0.549   5.768   5.793 -1.4511  0.4769  0.2950
16583TIP3    H271241   0.416   5.708   5.753 -0.8684 -1.4416  1.1119
16584TIP3   OH271242   6.131   5.149   2.618  0.0840 -0.2212  0.1138
16584TIP3    H171243   6.222   5.146   2.647 -0.3647  1.4656  1.9452
16584TIP3    H271244   6.084   5.097   2.684 -0.2646 -1.3814 -1.0176
16585TIP3   OH271245   0.579   5.807   1.380  0.0606  0.1392 -0.2404
16585TIP3    H171246   0.530   5.888   1.364  1.0982  1.2575  1.9189
16585TIP3    H271247   0.517   5.750   1.425 -0.3674  0.1005 -0.8676
16586TIP3   OH271248   4.337   1.561  16.254  0.2138 -0.7125 -0.1269
16586TIP3    H171249   4.360   1.480  16.300  1.6088 -0.3612 -0.1510
16586TIP3    H271250   4.329   1.535  16.162  0.6269 -0.8381 -0.1304
16587TIP3   OH271251   4.882   1.433  13.571  0.2430  0.0427  0.6291
16587TIP3    H171252   4.901   1.383  13.493  0.9417  2.2951 -0.7373
16587TIP3    H271253   4.790   1.413  13.591  0.4604 -1.6225  0.1075
16588TIP3   OH271254   0.919   0.076  16.755 -0.5173 -0.3838 -0.1350
16588TIP3    H171255   0.888  -0.002  16.800 -1.8073 -0.7575 -1.5821
16588TIP3    H271256   0.888   0.149  16.807 -0.8934 -0.8149  0.2441
16589TIP3   OH271257   0.334   3.899  15.287  0.3841  0.3639  0.2081
16589TIP3    H171258   0.256   3.871  15.334  1.2229  0.1058  1.4933
16589TIP3    H271259   0.327   3.994  15.283  0.3617  0.4026  1.0055
16590TIP3   OH271260   1.819   0.564  12.409 -0.2135 -0.2420 -0.2796
16590TIP3    H171261   1.789   0.474  12.408  0.8454 -0.6337  0.8636
16590TIP3    H271262   1.812   0.592  12.500 -0.2391  0.7300 -0.5602
16591TIP3   OH271263   0.112   0.844  12.316 -0.0732  0.0539 -0.3074
16591TIP3    H171264   0.182   0.903  12.343  0.2489 -0.6613  0.4677
16591TIP3    H271265   0.035   0.901  12.306  0.3083  0.6498  0.0891
16592TIP3   OH271266   5.628   2.748  11.790  0.3824  0.5071 -0.2965
16592TIP3    H171267   5.648   2.749  11.696  1.8800  0.1060 -0.0105
16592TIP3    H271268   5.556   2.810  11.800 -1.1148 -0.8634 -1.9818
16593TIP3   OH271269   5.811   5.026  13.184 -0.7838  0.5339 -0.7659
16593TIP3    H171270   5.748   4.969  13.229 -0.7743  1.0104 -0.1305
16593TIP3    H271271   5.760   5.101  13.156 -0.7671  0.2856 -1.4750
16594TIP3   OH271272   0.995   2.030   4.843  0.1556  0.6064  0.5329
16594TIP3    H171273   1.040   2.107   4.877  0.1837  0.5003  0.7367
16594TIP3    H271274   1.057   1.958   4.856  0.9663  0.8666 -1.4989
16595TIP3   OH271275   2.335   0.722  15.580 -0.5086 -0.0982 -0.1019
16595TIP3    H171276   2.308   0.636  15.612  1.6617 -1.2448 -1.0898
16595TIP3    H271277   2.329   0.715  15.485  0.6441  0.4596 -0.2366
16596TIP3   OH271278   4.591   3.403   3.506  0.1091 -0.6564  0.7151
16596TIP3    H171279   4.517   3.380   3.562 -0.6245 -0.3796 -0.1132
16596TIP3    H271280   4.646   3.458   3.561 -1.0404  0.3394  0.9160
16597TIP3   OH271281   3.771   0.563  15.538 -0.2074 -0.0699 -0.2847
16597TIP3    H171282   3.842   0.513  15.579 -1.0712 -0.2945  0.9931
16597TIP3    H271283   3.796   0.569  15.445  2.2585  1.2291  0.3935
16598TIP3   OH271284   2.390   3.147   2.986  0.4085  0.0691  0.4828
16598TIP3    H171285   2.393   3.094   3.065  0.3255  0.8909  1.0510
16598TIP3    H271286   2.475   3.190   2.982  1.0148 -1.1818 -0.7539
16599TIP3   OH271287   0.581   2.071  11.299  0.0432  0.4245 -0.3071
16599TIP3    H171288   0.659   2.020  11.275 -1.3788 -2.5521  0.8561
16599TIP3    H271289   0.511   2.033  11.245 -1.4956 -0.4526  2.1371
16600TIP3   OH271290   6.159   6.551   2.374  0.0188  0.1959  0.0080
16600TIP3    H171291   6.252   6.551   2.350 -0.0188  1.1062 -0.1593
16600TIP3    H271292   6.146   6.634   2.419 -0.6163 -0.1327  0.4348
16601TIP3   OH271293   6.377   0.343  15.110 -0.0905  0.4540 -0.1943
16601TIP3    H171294   6.318   0.400  15.060 -1.0797  0.7548  1.2399
16601TIP3    H271295   6.399   0.394  15.188  0.4323 -0.4628  0.2727
16602TIP3   OH271296   0.665   0.507   1.871  0.1431  0.0623 -0.1592
16602TIP3    H171297   0.610   0.463   1.806  1.3775 -0.5764 -0.7895
16602TIP3    H271298   0.684   0.593   1.832 -0.1446  0.1695 -0.0703
16603TIP3   OH271299   1.796   1.361  14.336  0.4262  0.2226 -0.0939
16603TIP3    H171300   1.888   1.350  14.360  0.5663  0.0978 -0.6834
16603TIP3    H271301   1.782   1.298  14.265 -0.5871 -1.0989  1.2081
16604TIP3   OH271302   4.204   4.875  13.009 -0.5601  0.1379 -0.1666
16604TIP3    H171303   4.195   4.804  13.072 -0.9351  0.3299 -0.0041
16604TIP3    H271304   4.120   4.921  13.012 -1.0362 -0.5956 -1.7235
16605TIP3   OH271305   6.118   4.128  10.926 -0.2562 -0.9066  0.1397
16605TIP3    H171306   6.182   4.118  10.856  0.0482  0.6941  0.1565
16605TIP3    H271307   6.047   4.068  10.903  0.4276 -1.3656 -0.8355
16606TIP3   OH271308   5.824   6.115  15.312  0.4355 -0.6301  0.3977
16606TIP3    H171309   5.857   6.180  15.250  0.8364 -0.2206  1.0254
16606TIP3    H271310   5.893   6.050  15.319 -0.3243 -1.6161 -0.9002
16607TIP3   OH271311   0.801   2.462   0.480 -0.2017  0.1404 -0.6515
16607TIP3    H171312   0.798   2.478   0.385 -0.1135  0.1805 -0.6479
16607TIP3    H271313   0.824   2.369   0.487 -0.0021  0.1867 -0.6696
16608TIP3   OH271314   2.705   6.786   4.190  0.2059 -0.1007 -0.4047
16608TIP3    H171315   2.708   6.824   4.278 -0.2739  1.9692 -1.2242
16608TIP3    H271316   2.714   6.861   4.132  0.2055 -1.3970 -2.1410
16609TIP3   OH271317   4.478   2.133  15.342 -0.0667  0.5763  0.7808
16609TIP3    H171318   4.482   2.199  15.412 -1.2163  1.5662 -0.0496
16609TIP3    H271319   4.562   2.141  15.298 -0.3593  1.8385  0.4052
16610TIP3   OH271320   5.012   3.479  14.725 -0.0129 -0.1477 -0.5256
16610TIP3    H171321   5.012   3.388  14.694 -2.5709 -0.4146  0.0213
16610TIP3    H271322   4.988   3.473  14.817  1.7924  1.0208  0.0824
16611TIP3   OH271323   1.660   1.166   4.824 -0.1411 -0.1337  0.2313
16611TIP3    H171324   1.732   1.106   4.803 -0.0836 -0.0458  0.1751
16611TIP3    H271325   1.653   1.223   4.748 -0.7973 -0.6498 -0.1023
16612TIP3   OH271326   4.351   5.539  15.000  0.1929 -0.0578 -0.0517
16612TIP3    H171327   4.306   5.477  15.058  0.9927  0.1776  0.8409
16612TIP3    H271328   4.306   5.622  15.015  1.7844  0.5090  1.9250
16613TIP3   OH271329   4.615   3.262  14.279  0.5227  0.0263 -0.2635
16613TIP3    H171330   4.610   3.330  14.346  0.2326 -0.2202 -0.0330
16613TIP3    H271331   4.551   3.197  14.306  0.9777 -0.4634 -0.3482
16614TIP3   OH271332   3.230   0.159   1.225 -0.3364  0.4681 -0.1008
16614TIP3    H171333   3.277   0.113   1.156 -0.5982 -1.0988  0.7212
16614TIP3    H271334   3.163   0.097   1.254  0.4703  0.6158  2.3258
16615TIP3   OH271335   3.625   0.063  14.943  0.7034  0.3110  0.6435
16615TIP3    H171336   3.591   0.106  14.864 -1.3260 -0.9302  0.7474
16615TIP3    H271337   3.644   0.134  15.003 -1.3088  1.1674  0.3476
16616TIP3   OH271338   0.875   4.604  11.597 -0.4677  0.3600 -0.2044
16616TIP3    H171339   0.884   4.515  11.564 -0.2341  0.4294 -0.3285
16616TIP3    H271340   0.780   4.619  11.601 -0.5122  0.0296  0.0265
16617TIP3   OH271341   3.650   1.087  16.942  0.2260  0.8638  0.0350
16617TIP3    H171342   3.733   1.062  16.983 -0.3773 -0.5412  0.4757
16617TIP3    H271343   3.675   1.142  16.868  1.7387 -1.3632 -1.2180
16618TIP3   OH271344   4.975   5.133  15.569  0.6264  0.0790  0.3593
16618TIP3    H171345   4.893   5.105  15.607  1.5545 -2.2738  0.7892
16618TIP3    H271346   4.977   5.093  15.482  0.8429  1.0273 -0.0870
16619TIP3   OH271347   5.651   2.346  15.422  0.7527 -0.2698  0.1030
16619TIP3    H171348   5.584   2.404  15.457  2.3419  1.5438  0.2679
16619TIP3    H271349   5.702   2.319  15.498  0.6753 -1.0401 -0.1107
16620TIP3   OH271350   6.843   2.812  10.174  0.2731  0.2268 -0.1674
16620TIP3    H171351   6.765   2.861  10.198  0.7997  1.4334 -0.8379
16620TIP3    H271352   6.812   2.740  10.119 -0.5625 -0.5410  1.2316
16621TIP3   OH271353   1.867   0.999   4.824  1.2041 -0.2533 -0.0911
16621TIP3    H171354   1.857   0.943   4.901  2.2351 -2.5224 -1.4898
16621TIP3    H271355   1.937   1.059   4.847 -0.0335  0.6411  1.5193
16622TIP3   OH271356   1.559   3.635   3.966  0.0038  0.0024  0.1714
16622TIP3    H171357   1.583   3.693   3.894  0.8928 -1.2540 -0.6021
16622TIP3    H271358   1.475   3.669   3.998 -0.1971  0.8480 -1.1715
16623TIP3   OH271359   5.858   3.415  16.028  0.0893 -0.1211  0.2041
16623TIP3    H171360   5.776   3.454  16.057 -0.2864  1.0596 -2.1573
16623TIP3    H271361   5.872   3.452  15.941  1.6192 -2.5708 -0.6860
16624TIP3   OH271362   1.307   6.153  16.340  0.5219 -0.3979 -0.1632
16624TIP3    H171363   1.355   6.185  16.416 -1.0418 -0.6821  0.9918
16624TIP3    H271364   1.364   6.086  16.302  2.2102  1.1523 -0.4690
16625TIP3   OH271365   3.538   6.403   2.865  0.4690 -0.2657  0.4929
16625TIP3    H171366   3.553   6.495   2.890  0.4317  0.2460 -1.2363
16625TIP3    H271367   3.548   6.354   2.947  0.4159  1.2844  1.4732
16626TIP3   OH271368   3.357   3.758   2.900  0.5048 -0.3684  0.3162
16626TIP3    H171369   3.316   3.845   2.903 -1.8714 -1.4388  0.6786
16626TIP3    H271370   3.313   3.708   2.968  1.0037 -2.2224 -0.6554
16627TIP3   OH271371   2.440   4.554   4.458  0.2856 -0.0072  0.3498
16627TIP3    H171372   2.373   4.615   4.489  1.0247  1.8557 -1.4696
16627TIP3    H271373   2.516   4.573   4.512  0.4052  0.4728  0.0241
16628TIP3   OH271374   6.783   6.019  14.050 -0.0685 -0.1765  0.0578
16628TIP3    H171375   6.753   6.020  14.141 -0.2243 -1.1031  0.0274
16628TIP3    H271376   6.824   6.105  14.037 -2.6307  1.1490  0.1252
16629TIP3   OH271377   4.776   3.098  11.013 -0.1787  0.6594  0.2320
16629TIP3    H171378   4.857   3.060  11.046 -0.4256  0.5408  0.7053
16629TIP3    H271379   4.787   3.098  10.918 -0.3575 -1.0450  0.1742
16630TIP3   OH271380   4.081   5.989  11.935  0.5707  0.7834 -0.4103
16630TIP3    H171381   4.082   5.976  12.029  0.2445 -0.5518 -0.5738
16630TIP3    H271382   4.157   6.044  11.917  2.2715 -1.1888  0.3470
16631TIP3   OH271383   4.204   6.262  15.960  0.1528  0.3125 -0.6680
16631TIP3    H171384   4.134   6.327  15.957 -1.7493 -1.5538  0.5286
16631TIP3    H271385   4.179   6.197  15.894  1.4280  0.1979 -1.0742
16632TIP3   OH271386   4.218   6.081  16.764 -0.3569 -0.3028  0.2785
16632TIP3    H171387   4.246   6.040  16.682 -0.5987  0.3189 -0.1260
16632TIP3    H271388   4.294   6.133  16.792 -1.0602  1.4564 -0.8665
16633TIP3   OH271389   5.011   3.871  14.358  0.1051  0.4590  0.1445
16633TIP3    H171390   5.097   3.828  14.362 -0.5528 -0.9620 -0.3517
16633TIP3    H271391   4.986   3.865  14.266 -2.3162 -2.9316  0.8535
16634TIP3   OH271392   1.439   1.777  11.593  0.3857  0.1884 -0.8569
16634TIP3    H171393   1.525   1.744  11.568  0.9660  0.8031  0.2459
16634TIP3    H271394   1.446   1.794  11.687 -1.1658 -0.4108 -0.5945
16635TIP3   OH271395   5.724   4.430  10.670 -0.1334 -0.3155  0.5104
16635TIP3    H171396   5.781   4.450  10.745 -0.7898 -0.5911  1.0953
16635TIP3    H271397   5.766   4.355  10.628  0.0554 -0.3758  0.8015
16636TIP3   OH271398   1.681   0.204   1.499  0.2435 -0.2338  0.0898
16636TIP3    H171399   1.744   0.136   1.474 -0.1541 -0.3474 -0.6259
16636TIP3    H271400   1.647   0.175   1.583  0.5447 -0.5948  0.0920
16637TIP3   OH271401   3.593   4.758   0.781  0.4806  0.0185 -0.1113
16637TIP3    H171402   3.547   4.730   0.701  0.4380  0.2813 -0.1814
16637TIP3    H271403   3.663   4.694   0.792  2.4713  1.6633 -2.1094
16638TIP3   OH271404   3.764   0.639   4.985 -0.0824  0.4044 -0.2375
16638TIP3    H171405   3.772   0.671   4.895 -2.6506  0.3350 -0.5612
16638TIP3    H271406   3.754   0.544   4.976  1.8173  0.1152  0.3209
16639TIP3   OH271407   4.104   2.165  15.595 -0.2874 -0.3419 -0.4183
16639TIP3    H171408   4.107   2.202  15.507  0.6834  0.2345 -0.1624
16639TIP3    H271409   4.158   2.086  15.590 -0.3309 -0.3744 -0.3697
16640TIP3   OH271410   0.886   4.038   4.709 -0.1114  0.1151 -0.3260
16640TIP3    H171411   0.815   3.989   4.666 -1.5169  2.1332 -0.4562
16640TIP3    H271412   0.958   4.036   4.646  0.9422 -3.8899  0.6989
16641TIP3   OH271413   5.957   6.551   1.098  0.4954  0.2193 -0.3191
16641TIP3    H171414   5.901   6.533   1.173  0.3117 -0.0453 -0.5166
16641TIP3    H271415   5.936   6.641   1.073  1.4098  0.7270  0.6664
16642TIP3   OH271416   0.118   5.850   0.721 -0.1379  0.0387 -0.4251
16642TIP3    H171417   0.102   5.828   0.629  1.3888  2.6948 -1.4138
16642TIP3    H271418   0.046   5.908   0.745 -0.0933 -0.0083 -0.1756
16643TIP3   OH271419   0.592   1.635  16.464  0.1954  0.4714  0.4571
16643TIP3    H171420   0.632   1.668  16.384  2.3314  2.2640  2.1084
16643TIP3    H271421   0.646   1.671  16.534 -0.5060 -2.3852  2.6898
16644TIP3   OH271422   5.037   1.483  14.807 -0.0777 -0.0731 -0.0144
16644TIP3    H171423   4.975   1.411  14.811 -0.5985  0.4019  1.0942
16644TIP3    H271424   5.110   1.455  14.862  1.3638 -1.1851 -2.3565
16645TIP3   OH271425   1.771   6.830  13.122 -0.4132  0.5768  0.3159
16645TIP3    H171426   1.683   6.831  13.083 -0.8911  0.0017  1.3326
16645TIP3    H271427   1.788   6.738  13.140 -0.0388  0.7923  1.0898
16646TIP3   OH271428   2.739   0.615   3.138  0.7431 -0.2190  1.0175
16646TIP3    H171429   2.776   0.602   3.226  0.1017 -0.1689  1.3009
16646TIP3    H271430   2.669   0.678   3.151  1.9872  1.4333  0.1121
16647TIP3   OH271431   5.435   6.021  15.607 -0.0814  0.4697 -0.2115
16647TIP3    H171432   5.524   6.032  15.573 -0.7119 -0.8830 -2.5453
16647TIP3    H271433   5.433   5.930  15.637 -0.8209  0.3297 -0.6760
16648TIP3   OH271434   0.683   2.526  15.260 -0.2455 -0.0813 -0.1311
16648TIP3    H171435   0.687   2.619  15.282  1.6211 -0.2356  0.2784
16648TIP3    H271436   0.614   2.491  15.316 -1.7590  1.2228 -1.0725
16649TIP3   OH271437   1.451   3.112  16.877 -0.6665  0.3006 -0.4687
16649TIP3    H171438   1.377   3.165  16.848 -1.0877 -0.7019 -1.2539
16649TIP3    H271439   1.500   3.170  16.936 -2.8573  0.5212  1.2651
16650TIP3   OH271440   6.683   0.391   4.902 -0.4529  0.5628  0.4557
16650TIP3    H171441   6.590   0.384   4.922 -0.5638  1.3787  0.2563
16650TIP3    H271442   6.727   0.370   4.984 -0.8031  0.0348  0.5143
16651TIP3   OH271443   3.728   3.710   5.102 -0.5429  0.1754  0.0507
16651TIP3    H171444   3.661   3.772   5.130  0.3231  1.3309 -0.3599
16651TIP3    H271445   3.721   3.637   5.164 -3.0851 -0.4145 -0.7688
16652TIP3   OH271446   3.325   6.119   3.156  0.2516 -0.5010 -0.0495
16652TIP3    H171447   3.392   6.119   3.088  0.5183 -0.5150  0.2076
16652TIP3    H271448   3.318   6.211   3.183 -1.7371 -0.0252 -1.8977
16653TIP3   OH271449   6.588   6.817   5.583 -0.6886  0.2611 -0.1709
16653TIP3    H171450   6.649   6.787   5.515 -0.0805  2.2468 -0.5439
16653TIP3    H271451   6.618   6.773   5.663 -0.7802 -1.2954 -0.9511
16654TIP3   OH271452   3.583   0.428   6.393  0.4405 -0.3358 -0.0282
16654TIP3    H171453   3.551   0.340   6.373  0.3360 -0.7900  1.9510
16654TIP3    H271454   3.674   0.414   6.422  1.1058  0.4679 -1.5917
16655TIP3   OH271455   6.477   6.343  14.115 -0.4192 -0.3486 -0.2570
16655TIP3    H171456   6.411   6.295  14.165  0.0470 -0.9144 -0.1727
16655TIP3    H271457   6.436   6.359  14.030 -0.7807 -0.4160 -0.0978
16656TIP3   OH271458   4.327   4.460  15.864 -0.6412 -0.1709  0.1468
16656TIP3    H171459   4.387   4.385  15.868 -1.1987 -0.7971 -2.1338
16656TIP3    H271460   4.264   4.443  15.934  0.6060 -0.5794  1.2147
16657TIP3   OH271461   2.491   5.649   4.714  0.0050 -0.3631  0.5732
16657TIP3    H171462   2.580   5.616   4.724  0.1871 -0.2664 -0.5956
16657TIP3    H271463   2.453   5.595   4.644  0.0859  1.3899 -0.9027
16658TIP3   OH271464   5.686   3.523   0.008 -0.1819  0.2908  0.0982
16658TIP3    H171465   5.729   3.551  -0.073 -3.2919  1.3596 -1.3505
16658TIP3    H271466   5.707   3.429   0.015 -0.8174 -0.1517 -2.6960
16659TIP3   OH271467   0.152   0.514  15.474 -0.3213  0.2457 -0.4011
16659TIP3    H171468   0.153   0.472  15.388 -3.3174 -1.1433  0.1038
16659TIP3    H271469   0.217   0.465  15.525  0.2813 -0.0235 -1.3978
16660TIP3   OH271470   2.381   1.611   2.354 -0.3253  0.0487 -0.3326
16660TIP3    H171471   2.311   1.644   2.410  0.9508 -1.0225  2.0745
16660TIP3    H271472   2.369   1.516   2.354  0.3824 -0.0492 -0.9264
16661TIP3   OH271473   4.684   0.893   4.136  0.0059 -0.0790 -0.0676
16661TIP3    H171474   4.606   0.902   4.191  0.1694  1.6350 -0.0827
16661TIP3    H271475   4.754   0.936   4.185  0.6834 -0.5533 -0.5885
16662TIP3   OH271476   4.037   1.039  10.929  0.2273  0.4364  0.3530
16662TIP3    H171477   3.970   1.107  10.933  0.6154  0.7649  1.5335
16662TIP3    H271478   4.061   1.036  10.836 -1.0557  0.6463 -0.0181
16663TIP3   OH271479   1.271   4.038   4.264  0.0905 -0.0646 -0.0959
16663TIP3    H171480   1.196   3.992   4.302 -1.2614  2.1687  0.1447
16663TIP3    H271481   1.325   4.062   4.340 -0.1721  0.3318 -0.0311
16664TIP3   OH271482   3.286   6.236  16.294 -0.3387  0.1036  0.2040
16664TIP3    H171483   3.335   6.297  16.240 -1.0383  0.7228  0.2523
16664TIP3    H271484   3.198   6.235  16.256 -0.4039 -0.6822  0.3550
16665TIP3   OH271485   3.482   3.687   5.429  0.0020 -0.4782 -0.3695
16665TIP3    H171486   3.492   3.718   5.339 -0.2728  0.5224 -0.0757
16665TIP3    H271487   3.401   3.729   5.460  1.5419  1.5148  1.2442
16666TIP3   OH271488   4.779   6.744   3.525 -0.0251  0.0708 -0.8419
16666TIP3    H171489   4.713   6.813   3.528 -0.3613 -0.2792  0.8924
16666TIP3    H271490   4.763   6.698   3.443 -0.2181  1.6336 -1.6994
16667TIP3   OH271491   4.505   6.119   1.764  0.1580  0.1253  0.1457
16667TIP3    H171492   4.558   6.041   1.777 -1.1416 -0.7923  0.2149
16667TIP3    H271493   4.546   6.164   1.690  0.9281 -0.6266  0.0957
16668TIP3   OH271494   6.272   4.140  11.533  0.2507 -0.0609 -0.0770
16668TIP3    H171495   6.349   4.171  11.485 -0.0346 -0.4534 -0.8020
16668TIP3    H271496   6.285   4.171  11.623  0.4692  1.2492 -0.5535
16669TIP3   OH271497   1.224   4.705   5.862  0.9119  0.2320  0.1237
16669TIP3    H171498   1.213   4.761   5.785 -0.5870 -1.3786 -0.9279
16669TIP3    H271499   1.157   4.734   5.923  0.7949  0.2519 -0.0118
16670TIP3   OH271500   0.976   4.399  10.968  0.2911  0.7048 -0.8739
16670TIP3    H171501   0.983   4.472  10.907  0.5010 -0.2835 -2.0755
16670TIP3    H271502   0.884   4.398  10.995 -0.3690 -0.2249 -2.9789
16671TIP3   OH271503   5.835   1.252  13.674  0.2418  0.0520  0.6086
16671TIP3    H171504   5.760   1.300  13.639  0.9761  1.0128  0.3143
16671TIP3    H271505   5.885   1.317  13.723  1.4632 -0.3017 -0.1211
16672TIP3   OH271506   5.931   1.245  11.356  0.4857  0.0301 -0.1672
16672TIP3    H171507   5.855   1.192  11.381  0.3226  0.5577  0.5012
16672TIP3    H271508   5.981   1.189  11.297  0.2874 -0.8512  0.4777
16673TIP3   OH271509   2.766   0.241   0.305  0.2127  0.2232 -0.1053
16673TIP3    H171510   2.794   0.332   0.307  0.8219  0.0470 -0.5114
16673TIP3    H271511   2.730   0.229   0.217 -0.5940  0.2839  0.2116
16674TIP3   OH271512   6.410   0.553   6.048 -0.2514  0.2959 -0.4153
16674TIP3    H171513   6.501   0.573   6.024  0.0373 -0.6849 -0.1923
16674TIP3    H271514   6.366   0.638   6.047  1.1896  1.1529  1.7879
16675TIP3   OH271515   0.556   4.686   3.804  0.3385  0.1623 -0.7012
16675TIP3    H171516   0.549   4.621   3.734 -0.8329  0.3526 -0.7802
16675TIP3    H271517   0.631   4.740   3.779  1.9488 -1.6857 -0.1629
16676TIP3   OH271518   5.945   5.365   1.301 -0.6062 -0.2293  0.1222
16676TIP3    H171519   5.898   5.382   1.383 -0.4683  1.4423 -0.1001
16676TIP3    H271520   5.875   5.345   1.238 -0.7283 -1.2850  0.5727
16677TIP3   OH271521   4.361   1.851   1.160 -0.0952  0.3453 -0.4497
16677TIP3    H171522   4.388   1.811   1.078 -0.2043 -1.0308  0.1508
16677TIP3    H271523   4.425   1.920   1.176  1.6445 -1.2505 -0.2705
16678TIP3   OH271524   4.914   3.744   4.187  0.3961 -0.4490 -0.5665
16678TIP3    H171525   4.899   3.765   4.095 -2.9160  0.9591  0.1497
16678TIP3    H271526   5.003   3.774   4.204  0.8737 -0.1522 -3.1228
16679TIP3   OH271527   4.632   0.833   6.003  0.1507  0.7880  0.0051
16679TIP3    H171528   4.577   0.852   5.927  0.8252  1.3710 -0.3432
16679TIP3    H271529   4.721   0.847   5.972  0.3885  2.3284  1.2460
16680TIP3   OH271530   4.670   5.291  16.757 -0.2142 -0.6818 -0.0972
16680TIP3    H171531   4.713   5.318  16.676 -0.5212 -1.6355 -0.5833
16680TIP3    H271532   4.729   5.323  16.826 -1.1432  2.3287 -0.5451
16681TIP3   OH271533   6.036   3.203  15.200 -0.0811  0.5396 -0.1002
16681TIP3    H171534   6.131   3.206  15.189  0.0665  0.7116  1.0514
16681TIP3    H271535   6.021   3.130  15.260 -0.5379  1.3106  0.7656
16682TIP3   OH271536   0.544   6.537   3.952  0.1826  0.5617  0.1494
16682TIP3    H171537   0.485   6.592   3.900  0.7139 -0.3644 -1.5117
16682TIP3    H271538   0.508   6.449   3.942  1.7778 -0.0065 -0.8284
16683TIP3   OH271539   4.176   2.239   0.477  0.5877 -0.0265 -0.2390
16683TIP3    H171540   4.183   2.293   0.556  1.1345 -0.3734 -0.0436
16683TIP3    H271541   4.187   2.149   0.509 -1.1854 -0.3525 -0.4281
16684TIP3   OH271542   1.203   4.639  11.932 -0.2738  0.1035 -0.6583
16684TIP3    H171543   1.272   4.574  11.917 -0.7249 -0.6007  0.2125
16684TIP3    H271544   1.228   4.683  12.012  0.8113  2.0978 -2.0175
16685TIP3   OH271545   4.760   3.983   2.927 -0.1755 -0.4527  0.0330
16685TIP3    H171546   4.837   4.034   2.950 -1.1321  0.7927  0.5874
16685TIP3    H271547   4.786   3.892   2.944  1.5910 -0.1955 -1.0722
16686TIP3   OH271548   4.551   2.529   3.655 -0.1787 -0.3554 -0.3091
16686TIP3    H171549   4.491   2.603   3.645  0.2552  0.1101  0.3729
16686TIP3    H271550   4.541   2.503   3.747 -0.3555 -1.1726 -0.5596
16687TIP3   OH271551   1.713   2.105   1.956 -0.9512 -0.3051  0.5630
16687TIP3    H171552   1.673   2.059   1.882 -0.7380 -1.5433  1.1909
16687TIP3    H271553   1.785   2.049   1.984  0.3991  1.2317  0.3186
16688TIP3   OH271554   1.908   1.532  15.793 -0.3301  0.2648 -0.3277
16688TIP3    H171555   1.924   1.537  15.698  2.6118 -0.5385  0.0232
16688TIP3    H271556   1.835   1.471  15.801  0.9213 -1.6248 -2.0711
16689TIP3   OH271557   5.659   3.394   3.266 -0.0196 -0.1987  0.0600
16689TIP3    H171558   5.658   3.301   3.288 -0.0780 -0.3349 -0.4887
16689TIP3    H271559   5.685   3.438   3.346 -2.3622 -0.4830  1.0708
16690TIP3   OH271560   0.907   5.426  10.757  0.3418  0.0454 -0.1004
16690TIP3    H171561   0.982   5.416  10.815 -0.7695 -0.8678  1.2410
16690TIP3    H271562   0.922   5.508  10.711  2.6355 -0.5998 -0.6103
16691TIP3   OH271563   5.300   3.596  11.210 -0.3506  0.2064 -0.0026
16691TIP3    H171564   5.285   3.551  11.127 -1.0830 -3.1812  1.7553
16691TIP3    H271565   5.216   3.594  11.254  0.5398 -0.3100  1.7766
16692TIP3   OH271566   5.181   1.177  17.064  0.1284  0.1273 -0.4535
16692TIP3    H171567   5.217   1.265  17.063  2.7645 -0.8554 -2.6921
16692TIP3    H271568   5.245   1.125  17.112  0.7089 -1.2724 -2.6171
16693TIP3   OH271569   1.822   0.305   2.306  0.0796  0.6264  0.2249
16693TIP3    H171570   1.915   0.317   2.328 -0.0094 -0.0566  1.0018
16693TIP3    H271571   1.811   0.353   2.224  2.0007 -2.2688 -1.9516
16694TIP3   OH271572   1.267   0.736   5.565 -0.2983 -0.7102  0.4783
16694TIP3    H171573   1.225   0.815   5.530 -1.2660 -1.6436 -0.5459
16694TIP3    H271574   1.302   0.764   5.650 -0.8713  0.7421  0.2750
16695TIP3   OH271575   2.523   2.896   2.852 -0.0336  0.0204  0.7917
16695TIP3    H171576   2.573   2.850   2.785 -1.0632  1.4822 -1.0958
16695TIP3    H271577   2.551   2.988   2.843 -0.9669  0.4054  1.6459
16696TIP3   OH271578   1.831   4.647   6.112 -0.5121 -0.0710 -0.5731
16696TIP3    H171579   1.760   4.654   6.175 -1.0303 -0.1510 -1.1325
16696TIP3    H271580   1.848   4.738   6.085  1.7315  0.3261  1.8252
16697TIP3   OH271581   2.332   5.702   3.245  1.0246  0.5041 -0.4125
16697TIP3    H171582   2.256   5.760   3.254  0.3133  0.0768 -3.0255
16697TIP3    H271583   2.401   5.758   3.209  1.4090  0.4738  0.2600
16698TIP3   OH271584   1.614   4.155   0.887  0.0110 -0.3990  0.0213
16698TIP3    H171585   1.642   4.178   0.976 -0.8628  1.2399 -0.0739
16698TIP3    H271586   1.694   4.129   0.843  0.6359 -0.1937  0.9941
16699TIP3   OH271587   5.893   5.051   0.268 -0.4526 -0.1365 -0.3246
16699TIP3    H171588   5.878   5.145   0.262 -0.6349 -0.1813 -0.5645
16699TIP3    H271589   5.811   5.016   0.303 -0.9776 -0.3936 -1.7426
16700TIP3   OH271590   6.713   2.425   1.622  0.0520  0.4666  0.0824
16700TIP3    H171591   6.643   2.371   1.584  2.7297 -2.0875 -1.7540
16700TIP3    H271592   6.700   2.419   1.716 -0.6569 -2.3658 -0.0932
16701TIP3   OH271593   0.941   3.344  12.777  0.2878  0.0288  0.5474
16701TIP3    H171594   0.994   3.347  12.857  1.2933 -1.0536 -0.0592
16701TIP3    H271595   0.997   3.304  12.712 -0.4653  1.0640 -0.7851
16702TIP3   OH271596   4.018   5.426   0.682 -0.6377  0.0761  0.9913
16702TIP3    H171597   3.956   5.354   0.670  1.4699 -1.8145  0.8139
16702TIP3    H271598   4.003   5.456   0.772 -1.1503 -1.0117  1.2873
16703TIP3   OH271599   4.301   3.645   1.264 -0.1668  0.0110 -0.7558
16703TIP3    H171600   4.331   3.712   1.203  0.5215  0.4803  0.0998
16703TIP3    H271601   4.236   3.689   1.318 -0.1678 -0.1818 -0.5992
16704TIP3   OH271602   2.091   0.131  11.450  0.5800 -0.6313  0.2128
16704TIP3    H171603   2.062   0.063  11.389  0.3537 -0.6132  0.2952
16704TIP3    H271604   2.135   0.196  11.396  2.7872 -1.8809  0.3776
16705TIP3   OH271605   2.761   3.987  14.271  0.3058  0.2333  0.3109
16705TIP3    H171606   2.746   4.080  14.283  0.6842  0.6613 -2.0793
16705TIP3    H271607   2.849   3.972  14.305  0.6721  0.9925 -0.2709
16706TIP3   OH271608   4.019   2.761   5.425  0.2827  0.0232 -0.1636
16706TIP3    H171609   4.030   2.726   5.337  0.6661  0.0213 -0.1155
16706TIP3    H271610   3.973   2.844   5.413 -1.0601 -0.6876 -0.2463
16707TIP3   OH271611   4.011   6.021  15.113 -0.6364  0.0109  0.0014
16707TIP3    H171612   3.997   6.109  15.079 -0.9784  0.2744  0.8009
16707TIP3    H271613   3.985   5.963  15.041 -1.0421  0.5544 -0.2971
16708TIP3   OH271614   4.950   0.389   1.190 -0.1675  0.4032  0.6054
16708TIP3    H171615   4.867   0.425   1.158 -0.8616 -1.2131  0.4760
16708TIP3    H271616   4.985   0.340   1.115  1.4411  1.9032  0.3315
16709TIP3   OH271617   4.675   1.767  16.981  0.4574 -0.1555  0.6364
16709TIP3    H171618   4.668   1.750  16.887 -2.1477  0.8201  0.5554
16709TIP3    H271619   4.613   1.705  17.021  1.3114 -0.3628  1.6894
16710TIP3   OH271620   1.457   6.131   3.093 -0.6245  0.7406 -0.1423
16710TIP3    H171621   1.462   6.204   3.155 -1.0370  0.0747  0.6903
16710TIP3    H271622   1.458   6.173   3.007  0.2293  1.6637  0.2958
16711TIP3   OH271623   2.786   3.805  13.964  0.0517 -0.3837  0.5621
16711TIP3    H171624   2.863   3.756  13.993  0.6817 -0.8445 -1.7353
16711TIP3    H271625   2.714   3.769  14.016  1.1789 -0.7484  1.9382
16712TIP3   OH271626   1.705   3.127   0.736 -0.1853  0.7767 -0.2866
16712TIP3    H171627   1.676   3.199   0.679  1.0305  1.5621  0.0498
16712TIP3    H271628   1.756   3.170   0.804 -1.9511 -0.0929  1.6924
16713TIP3   OH271629   3.156   0.366   3.171 -0.0976  0.0157  0.4778
16713TIP3    H171630   3.226   0.323   3.120  0.9591  1.5887  0.5269
16713TIP3    H271631   3.123   0.434   3.112 -0.5513  0.2606  1.0127
16714TIP3   OH271632   3.403   2.900   2.177  1.3957  0.1307  0.7929
16714TIP3    H171633   3.421   2.912   2.084  0.7590  2.2456  0.8835
16714TIP3    H271634   3.429   2.810   2.196  3.6405  0.3310 -0.9266
16715TIP3   OH271635   5.073   5.439   4.574 -0.2550  0.8040 -0.2791
16715TIP3    H171636   5.164   5.410   4.570 -0.3659  0.3530  0.2796
16715TIP3    H271637   5.062   5.495   4.497  0.0840 -0.2708 -1.1311
16716TIP3   OH271638   1.794   3.393   2.442 -0.1256 -0.4842 -0.5015
16716TIP3    H171639   1.816   3.357   2.356  0.3454  0.8253 -0.9453
16716TIP3    H271640   1.870   3.374   2.497  1.1511  1.8086 -1.3591
16717TIP3   OH271641   1.025   2.042  14.342  0.4551 -0.3698 -0.2474
16717TIP3    H171642   1.039   2.000  14.426 -0.9237 -0.9640 -0.2890
16717TIP3    H271643   1.112   2.048  14.303  0.6560 -4.1744 -0.7071
16718TIP3   OH271644   0.006   6.299  13.805 -0.0604  0.0477 -0.0205
16718TIP3    H171645   0.032   6.254  13.885  0.7089 -0.4140 -0.5200
16718TIP3    H271646   0.076   6.280  13.742 -1.6510 -1.3985 -1.4669
16719TIP3   OH271647   3.206   1.846   6.232  0.5590  0.1782 -0.6746
16719TIP3    H171648   3.177   1.931   6.265  1.4417 -0.2273  1.2877
16719TIP3    H271649   3.295   1.836   6.265  0.0236 -2.0573  0.3081
16720TIP3   OH271650   4.492   6.225  10.901 -0.0045  0.2763 -0.3944
16720TIP3    H171651   4.514   6.312  10.934 -1.2287  0.6409 -0.5195
16720TIP3    H271652   4.448   6.240  10.818  0.3824 -0.5109 -0.7620
16721TIP3   OH271653   4.616   4.543  12.848 -0.4579  0.6384 -0.1522
16721TIP3    H171654   4.692   4.570  12.899 -0.6052 -0.9884  1.0218
16721TIP3    H271655   4.559   4.620  12.846  1.9148  2.5259 -2.6111
16722TIP3   OH271656   6.837   2.486  12.831 -0.0541 -0.1189  0.2881
16722TIP3    H171657   6.791   2.570  12.842  0.4537 -0.1103  3.0139
16722TIP3    H271658   6.930   2.511  12.824 -0.1037 -0.3397 -1.9930
16723TIP3   OH271659   2.074   0.174  11.841 -0.1195  0.2308  0.4118
16723TIP3    H171660   2.053   0.262  11.810 -0.3503  0.0421  0.0265
16723TIP3    H271661   2.079   0.182  11.936  0.8649  0.8732  0.3184
16724TIP3   OH271662   0.369   0.018  14.725 -0.3569 -0.1622 -0.2400
16724TIP3    H171663   0.314  -0.028  14.662 -1.0067 -0.2609  0.3879
16724TIP3    H271664   0.380   0.106  14.689 -0.5178 -0.2913 -0.6080
16725TIP3   OH271665   5.183   2.932   1.754  0.1543 -0.5030  0.2375
16725TIP3    H171666   5.277   2.917   1.742  0.1457  0.1229 -0.7666
16725TIP3    H271667   5.144   2.845   1.745  0.6206 -0.7349  0.4368
16726TIP3   OH271668   1.066   4.339  11.731 -0.0089 -0.2369 -0.1864
16726TIP3    H171669   1.069   4.275  11.802  1.2352 -0.6984 -0.6393
16726TIP3    H271670   1.057   4.424  11.776  2.1147 -0.3862  0.6252
16727TIP3   OH271671   6.789   1.178  15.556 -0.4173  0.3785 -0.5979
16727TIP3    H171672   6.779   1.100  15.501 -2.8596 -0.0594  0.3365
16727TIP3    H271673   6.785   1.144  15.646  2.7071  1.1714 -0.0683
16728TIP3   OH271674   0.588   1.676   3.125 -0.1800  0.8145  0.4734
16728TIP3    H171675   0.661   1.626   3.088 -1.0534  0.2611 -0.5545
16728TIP3    H271676   0.597   1.763   3.086 -2.2652 -0.2848 -2.8930
16729TIP3   OH271677   2.080   0.269  13.359 -0.0348  0.1955 -0.0981
16729TIP3    H171678   2.072   0.325  13.436  1.7132 -0.5840  0.6889
16729TIP3    H271679   2.063   0.181  13.391  0.8230 -0.1469 -0.5586
16730TIP3   OH271680   0.723   3.727   2.107 -0.3332 -0.1803  0.0246
16730TIP3    H171681   0.779   3.779   2.050  0.4354  0.1705  1.0690
16730TIP3    H271682   0.672   3.672   2.048  0.5349  0.0781 -0.9782
16731TIP3   OH271683   6.742   4.052   1.656 -0.2669  0.6348 -0.7964
16731TIP3    H171684   6.786   4.124   1.701 -0.3117  0.9777 -1.3021
16731TIP3    H271685   6.797   4.033   1.580 -0.2780  0.1626 -0.6919
16732TIP3   OH271686   0.913   1.078  10.351  0.0323 -0.0111  0.1619
16732TIP3    H171687   0.997   1.113  10.321  0.0961  0.4672  0.8840
16732TIP3    H271688   0.902   0.997  10.301 -0.0855  0.9695 -1.4720
16733TIP3   OH271689   1.596   0.432   1.991  0.4152  0.3821  0.0461
16733TIP3    H171690   1.590   0.527   1.990 -0.6951  0.3315  0.2106
16733TIP3    H271691   1.688   0.413   2.007  0.6317  1.4242  0.0704
16734TIP3   OH271692   0.973   1.803  14.507 -0.4459 -0.0447  0.4105
16734TIP3    H171693   0.970   1.804  14.411 -0.2114  1.2284  0.3886
16734TIP3    H271694   0.883   1.821  14.534 -0.0189  2.8135  0.3264
16735TIP3   OH271695   1.343   6.671  15.121 -0.6610 -0.2387 -0.4149
16735TIP3    H171696   1.361   6.746  15.178 -1.7127 -0.8444  0.7638
16735TIP3    H271697   1.258   6.691  15.081 -1.7505 -1.4413  1.1329
16736TIP3   OH271698   6.109   2.471   3.138 -0.3627  0.2315 -0.1779
16736TIP3    H171699   6.192   2.437   3.171  0.2897  1.5053 -0.4340
16736TIP3    H271700   6.066   2.395   3.099  0.3144 -0.6145  0.6559
16737TIP3   OH271701   5.700   2.741  13.614  0.0971  0.0061  0.0924
16737TIP3    H171702   5.750   2.660  13.619  0.2482  0.0063 -1.0543
16737TIP3    H271703   5.628   2.729  13.674  1.0233 -0.3209  1.1715
16738TIP3   OH271704   1.723   5.205  15.127 -0.1315  0.0429 -0.0737
16738TIP3    H171705   1.734   5.213  15.222  1.1822 -0.2580 -0.1819
16738TIP3    H271706   1.638   5.162  15.116 -0.7685  1.0028  0.9217
16739TIP3   OH271707   0.873   3.816  11.985 -0.1281  0.1466  0.2663
16739TIP3    H171708   0.899   3.769  12.063 -2.0637 -0.7772  0.4098
16739TIP3    H271709   0.815   3.886  12.016 -0.8566 -0.1801 -0.3134
16740TIP3   OH271710   1.359   1.350  16.562  0.0253  0.0180  0.0040
16740TIP3    H171711   1.430   1.320  16.619 -0.0321  2.0437  1.2508
16740TIP3    H271712   1.291   1.382  16.622 -0.5345  1.1660 -1.1689
16741TIP3   OH271713   2.048   3.866   4.928 -0.0469 -0.4983  0.4234
16741TIP3    H171714   1.972   3.909   4.889 -0.6567 -0.5618  1.5039
16741TIP3    H271715   2.016   3.833   5.012  0.9155 -1.3959  0.4575
16742TIP3   OH271716   5.926   5.759  12.340 -0.4445 -0.1138  0.0795
16742TIP3    H171717   5.998   5.754  12.404 -0.6172  0.1310  0.2964
16742TIP3    H271718   5.928   5.850  12.310 -1.0981  0.0797  0.5985
16743TIP3   OH271719   3.312   5.095  11.968  0.6722 -0.6953  0.2860
16743TIP3    H171720   3.260   5.175  11.969  2.0616  0.2520 -0.5001
16743TIP3    H271721   3.359   5.096  12.051 -0.9662 -1.8817  1.2922
16744TIP3   OH271722   1.426   6.270   2.870  0.4774  0.1996  0.6719
16744TIP3    H171723   1.399   6.349   2.916 -1.3929  1.2585 -1.9607
16744TIP3    H271724   1.459   6.302   2.786 -2.0104 -1.7944 -1.2230
16745TIP3   OH271725   4.833   4.596  12.999  0.3642  0.2356  0.3255
16745TIP3    H171726   4.921   4.621  12.972  0.1839  0.3514 -0.1644
16745TIP3    H271727   4.793   4.677  13.031  0.0636  0.4173 -0.4861
16746TIP3   OH271728   3.586   5.128   5.790 -0.1612  0.5176 -0.2205
16746TIP3    H171729   3.628   5.105   5.873 -0.0266  3.1997  0.5494
16746TIP3    H271730   3.656   5.119   5.725 -0.2149 -1.4188 -0.0758
16747TIP3   OH271731   1.876   0.933  12.427 -0.5590  0.2938  0.0176
16747TIP3    H171732   1.924   0.960  12.348 -0.9852  2.8239  0.5340
16747TIP3    H271733   1.926   0.970  12.500 -0.9644 -0.7565  0.8514
16748TIP3   OH271734   0.990   3.850  13.403 -0.0637 -0.0222  0.3423
16748TIP3    H171735   0.914   3.792  13.414  0.2065 -0.4307  0.0705
16748TIP3    H271736   1.031   3.821  13.322 -0.0483  0.6937  0.0844
16749TIP3   OH271737   4.158   3.315  16.299  0.6525  0.2719  0.0030
16749TIP3    H171738   4.072   3.300  16.339 -0.7009  3.2337 -1.4574
16749TIP3    H271739   4.140   3.319  16.205  2.6441 -0.2595 -0.4352
16750TIP3   OH271740   1.025   2.281   6.051  0.1986 -0.1182  0.1304
16750TIP3    H171741   1.010   2.211   5.988  0.0965  1.5056 -1.7502
16750TIP3    H271742   1.038   2.359   5.997 -0.1708  1.4139  2.1457
16751TIP3   OH271743   0.382   3.613   3.553 -0.2218 -0.2756  0.1359
16751TIP3    H171744   0.356   3.660   3.474 -0.0604  0.1045  0.3047
16751TIP3    H271745   0.465   3.654   3.578  0.2013 -1.0238 -0.0264
16752TIP3   OH271746   2.817   6.315  16.056  0.3860  0.2885  0.0290
16752TIP3    H171747   2.744   6.372  16.030  0.6216 -0.0432 -1.4322
16752TIP3    H271748   2.788   6.227  16.033  0.8501  0.0493  0.3583
16753TIP3   OH271749   3.818   4.365  13.536  0.2024  0.2229 -0.0806
16753TIP3    H171750   3.898   4.353  13.485 -0.7329 -0.6377 -1.4041
16753TIP3    H271751   3.800   4.278  13.573 -0.4461  0.2597 -0.3001
16754TIP3   OH271752   4.865   3.783   0.375  0.0012  0.4549 -0.8353
16754TIP3    H171753   4.953   3.771   0.411  0.7836  3.1456 -1.6582
16754TIP3    H271754   4.807   3.760   0.447  1.4089  0.4434  0.3483
16755TIP3   OH271755   1.787   2.520   3.689 -0.1725  0.1012 -0.3966
16755TIP3    H171756   1.880   2.522   3.710 -0.3129  2.1691  0.2920
16755TIP3    H271757   1.778   2.582   3.616 -1.0794  0.4233 -0.0259
16756TIP3   OH271758   1.298   5.144   6.288  0.8146  0.1262  0.6727
16756TIP3    H171759   1.339   5.161   6.203  1.9577  3.7316  1.7700
16756TIP3    H271760   1.371   5.118   6.345  0.5852  0.8055  1.2801
16757TIP3   OH271761   1.856   4.027   1.752 -0.8428  0.0500  0.1653
16757TIP3    H171762   1.822   3.938   1.750 -2.8407  0.6853  1.9807
16757TIP3    H271763   1.948   4.018   1.776 -0.4259 -1.5917 -1.8282
16758TIP3   OH271764   6.181   2.992  14.600  0.7435 -0.9146  0.7316
16758TIP3    H171765   6.179   2.900  14.627 -2.7627 -0.5765  2.1930
16758TIP3    H271766   6.222   3.038  14.674 -1.0165 -0.9737  1.8172
16759TIP3   OH271767   3.677   0.298  16.604  0.4048  0.1145 -0.6262
16759TIP3    H171768   3.659   0.251  16.685  0.3010 -2.0148 -1.7901
16759TIP3    H271769   3.730   0.373  16.631  0.2670 -0.4548  1.4115
16760TIP3   OH271770   1.114   5.946   1.136 -0.5434  0.1358 -0.4575
16760TIP3    H171771   1.033   5.896   1.125 -0.1194 -0.4769 -0.8370
16760TIP3    H271772   1.103   6.022   1.079 -0.9680  0.2156 -0.2788
16761TIP3   OH271773   3.393   3.686  14.665 -0.1150  0.1170  0.1592
16761TIP3    H171774   3.334   3.671  14.739  1.0048 -0.6680  0.9166
16761TIP3    H271775   3.403   3.781  14.662  0.7099  0.1238  1.7607
16762TIP3   OH271776   2.196   0.428   2.082 -0.3434  0.1472  0.2074
16762TIP3    H171777   2.217   0.389   2.167 -1.0846  0.8026  0.7120
16762TIP3    H271778   2.184   0.354   2.023  0.2907 -0.3117  0.6494
16763TIP3   OH271779   1.316   3.445  15.981  0.1145  0.2216 -0.8012
16763TIP3    H171780   1.253   3.424  15.912 -1.4918  0.8147  0.4270
16763TIP3    H271781   1.349   3.360  16.010 -0.7179 -0.1524 -0.9303
16764TIP3   OH271782   2.146   4.840  14.836  0.0587 -0.8090 -0.2323
16764TIP3    H171783   2.208   4.902  14.874  1.6642 -2.5678  0.1852
16764TIP3    H271784   2.197   4.760  14.823 -1.5145 -1.5906 -2.1996
16765TIP3   OH271785   4.676   4.654  11.923 -0.5806  0.9546 -0.4999
16765TIP3    H171786   4.651   4.688  11.837 -1.2769  2.4318  0.2370
16765TIP3    H271787   4.764   4.689  11.937 -0.3811  0.5338 -0.7014
16766TIP3   OH271788   5.485   6.538  11.143 -0.0117 -0.1537  0.6801
16766TIP3    H171789   5.483   6.631  11.120  1.2539 -0.3626 -0.4207
16766TIP3    H271790   5.415   6.499  11.090 -0.1017  0.0685  0.6326
16767TIP3   OH271791   0.978   3.011   2.412  0.0733 -0.4048 -0.2329
16767TIP3    H171792   0.998   3.079   2.347  0.5494  0.7520  1.0632
16767TIP3    H271793   0.931   3.057   2.481  0.4068 -1.3880  0.6818
16768TIP3   OH271794   1.865   3.891  12.937 -0.0182 -0.5778  0.1360
16768TIP3    H171795   1.930   3.882  13.008 -1.6550  2.5226  2.3025
16768TIP3    H271796   1.833   3.802  12.922  2.0824 -1.6784  1.6258
16769TIP3   OH271797   6.319   5.460   3.183  0.7508  0.2326 -0.0456
16769TIP3    H171798   6.265   5.492   3.256 -0.9796 -0.9557 -0.7239
16769TIP3    H271799   6.357   5.539   3.146 -2.7147  1.5774 -1.1658
16770TIP3   OH271800   1.684   3.546   5.203 -0.1378 -0.1408 -0.0657
16770TIP3    H171801   1.747   3.489   5.159  0.1024  0.5391 -0.6098
16770TIP3    H271802   1.627   3.577   5.134  0.4035  1.1473  0.0420
16771TIP3   OH271803   4.264   4.250  16.636 -0.3291  0.4338 -0.4986
16771TIP3    H171804   4.337   4.223  16.691  0.7575  0.1628 -2.0336
16771TIP3    H271805   4.295   4.330  16.593 -0.9825  0.3850 -1.0731
16772TIP3   OH271806   5.169   3.310  10.807  0.3741  0.1919 -0.0215
16772TIP3    H171807   5.123   3.359  10.874 -0.7231  1.1271 -1.4009
16772TIP3    H271808   5.109   3.310  10.732  1.5214 -0.8711 -0.9837
16773TIP3   OH271809   4.502   5.252   0.164 -0.1012  0.2936 -0.7642
16773TIP3    H171810   4.520   5.250   0.070  0.1307  0.0866 -0.7161
16773TIP3    H271811   4.445   5.328   0.176 -0.4266  0.1092 -1.1226
16774TIP3   OH271812   1.794   6.091  11.953  0.4632 -0.0014  0.0618
16774TIP3    H171813   1.735   6.063  12.023 -0.1056  0.4400 -0.2254
16774TIP3    H271814   1.793   6.187  11.958  0.6482  0.0281 -0.3589
16775TIP3   OH271815   2.579   1.740   1.864  0.5462 -0.4392 -0.3368
16775TIP3    H171816   2.547   1.782   1.785 -3.4301 -2.4568 -0.0119
16775TIP3    H271817   2.579   1.810   1.930  1.3566  0.6468 -1.4392
16776TIP3   OH271818   4.033   2.054  13.725  0.4344  0.7032  0.2375
16776TIP3    H171819   4.065   2.114  13.792 -1.2448  1.2850  0.5504
16776TIP3    H271820   3.981   2.108  13.666 -0.5460 -0.3247  0.1383
16777TIP3   OH271821   6.530   2.803  13.639 -0.3750 -0.0717  0.0689
16777TIP3    H171822   6.577   2.745  13.579  1.2985 -0.7894  1.9868
16777TIP3    H271823   6.449   2.756  13.659  0.0956 -0.8855  0.1112
16778TIP3   OH271824   5.902   6.410   3.664  0.2315 -0.1165 -0.2362
16778TIP3    H171825   5.887   6.331   3.716 -0.2445  0.7952  1.0584
16778TIP3    H271826   5.815   6.445   3.646  0.4377  0.1684 -0.7338
16779TIP3   OH271827   5.195   3.729  15.684  0.4148  0.6426 -0.7861
16779TIP3    H171828   5.135   3.794  15.721  0.0537  1.4364 -2.6461
16779TIP3    H271829   5.148   3.694  15.608  1.0676 -1.0111 -0.4699
16780TIP3   OH271830   4.463   6.407   0.403  0.0062 -0.5993  0.2319
16780TIP3    H171831   4.554   6.438   0.400 -0.1721 -0.0872 -0.1579
16780TIP3    H271832   4.469   6.316   0.429  0.6211 -0.5032  0.4390
16781TIP3   OH271833   1.453   3.511   2.654  0.2900 -0.0922  0.2979
16781TIP3    H171834   1.490   3.487   2.569 -1.3889 -0.6947 -0.3015
16781TIP3    H271835   1.419   3.600   2.641 -0.9100 -0.5731 -0.0179
16782TIP3   OH271836   0.223   6.373  15.306  0.4201 -0.1957  0.6073
16782TIP3    H171837   0.233   6.409  15.394 -1.7289 -0.1014  0.8552
16782TIP3    H271838   0.282   6.427  15.252 -2.5125  3.8201  0.9744
16783TIP3   OH271839   6.648   0.326   5.482  0.0324  0.1668 -0.4557
16783TIP3    H171840   6.636   0.361   5.571  1.7762 -0.2346 -0.0409
16783TIP3    H271841   6.588   0.379   5.429 -1.1513  0.3285  0.9560
16784TIP3   OH271842   2.854   5.000  15.190  0.1479 -0.2925 -0.4362
16784TIP3    H171843   2.815   4.915  15.210 -0.0768 -0.2990 -0.8912
16784TIP3    H271844   2.866   5.041  15.276  1.2249 -1.1926 -0.1203
16785TIP3   OH271845   3.118   5.066  11.511 -0.0334 -0.1384  0.1895
16785TIP3    H171846   3.028   5.097  11.520 -1.0398 -3.0866  1.7280
16785TIP3    H271847   3.134   5.016  11.591  3.1222  0.5348  0.0892
16786TIP3   OH271848   2.620   2.170  15.360  0.0324 -0.2433 -0.0626
16786TIP3    H171849   2.642   2.146  15.270  1.6400  1.8674 -0.3111
16786TIP3    H271850   2.704   2.177  15.404 -0.2879  3.2319  0.3249
16787TIP3   OH271851   6.532   3.648   3.785 -0.7174 -0.4504  0.3527
16787TIP3    H171852   6.608   3.656   3.842 -0.0708  1.6636 -0.6647
16787TIP3    H271853   6.483   3.729   3.800 -1.5787 -0.7739 -0.6116
16788TIP3   OH271854   6.143   4.687  11.658 -0.1142  0.5128  0.4635
16788TIP3    H171855   6.214   4.630  11.688  0.8379  0.9649 -0.8143
16788TIP3    H271856   6.147   4.762  11.717  0.9656  0.8589 -0.0121
16789TIP3   OH271857   5.961   4.296   6.318  0.1011  0.5102  0.5451
16789TIP3    H171858   5.908   4.306   6.397 -0.7538 -0.1073  0.0557
16789TIP3    H271859   6.039   4.249   6.348  0.7323  2.0165  1.4006
16790TIP3   OH271860   6.676   2.257  15.897  0.0842 -0.5263 -0.1409
16790TIP3    H171861   6.616   2.288  15.829 -1.6567 -0.2689  1.4358
16790TIP3    H271862   6.694   2.335  15.950 -0.2383 -1.1279  0.8736
16791TIP3   OH271863   6.054   1.528   3.955 -0.3093  0.0832 -0.7068
16791TIP3    H171864   6.088   1.594   4.016 -2.3928  0.7984 -0.2244
16791TIP3    H271865   6.086   1.556   3.869  1.0672  0.1573 -0.1999
16792TIP3   OH271866   3.951   4.431  10.959 -0.2567 -0.0584  0.1225
16792TIP3    H171867   3.923   4.378  10.884  1.0962 -0.0508 -0.4029
16792TIP3    H271868   4.015   4.376  11.004 -0.4565  0.2742  0.8161
16793TIP3   OH271869   2.335   0.316   2.965  0.0213 -0.0522 -0.3659
16793TIP3    H171870   2.385   0.235   2.969 -2.3486 -1.6227 -0.5521
16793TIP3    H271871   2.322   0.341   3.057 -0.7485 -0.8933 -0.2387
16794TIP3   OH271872   6.119   5.029   3.851 -0.4667  0.3947 -0.1243
16794TIP3    H171873   6.036   5.028   3.898  1.3868 -0.2352  3.4098
16794TIP3    H271874   6.119   5.113   3.804 -3.0867  0.3441 -0.3599
16795TIP3   OH271875   2.600   1.243  10.492 -0.3000  0.6688  0.0168
16795TIP3    H171876   2.658   1.319  10.483 -0.3500  0.6126 -0.8503
16795TIP3    H271877   2.574   1.222  10.403  1.2787 -1.5869 -0.0044
16796TIP3   OH271878   3.107   4.004   1.213 -0.5880  0.3749  0.1036
16796TIP3    H171879   3.059   3.924   1.230  2.7268 -1.7094  0.6851
16796TIP3    H271880   3.123   4.004   1.119  0.8465 -0.6712  0.3057
16797TIP3   OH271881   3.689   5.927   0.860  0.2899 -0.0467 -0.8315
16797TIP3    H171882   3.725   5.993   0.919  0.2582 -1.1371  0.4775
16797TIP3    H271883   3.751   5.923   0.787  1.9671 -0.6869  0.5534
16798TIP3   OH271884   1.982   5.148  15.754  0.0136 -0.3718  0.2660
16798TIP3    H171885   1.982   5.229  15.804 -2.3355  0.2958 -0.6987
16798TIP3    H271886   1.908   5.098  15.790  0.4342 -1.3854 -0.2402
16799TIP3   OH271887   5.309   1.910   2.095 -0.1561 -0.0673 -0.0990
16799TIP3    H171888   5.339   1.820   2.104  0.7777  0.1709 -0.7032
16799TIP3    H271889   5.291   1.939   2.184  3.5167  0.4646  0.5954
16800TIP3   OH271890   4.446   1.376  15.466 -0.4160 -0.2917  0.6842
16800TIP3    H171891   4.406   1.450  15.422  0.8401  0.0247  0.0176
16800TIP3    H271892   4.481   1.412  15.547  1.8795  0.3541 -0.4917
16801TIP3   OH271893   4.769   4.124  12.327 -0.6017 -0.3329  0.2941
16801TIP3    H171894   4.679   4.130  12.296  0.2287 -1.1535 -2.6199
16801TIP3    H271895   4.813   4.068  12.263  2.0734  0.3246  1.3973
16802TIP3   OH271896   2.795   5.052  14.054  0.3955  0.3152  0.3409
16802TIP3    H171897   2.813   5.003  14.133 -1.9361 -2.6340 -0.7356
16802TIP3    H271898   2.847   5.009  13.986 -0.2587  0.5413 -0.3212
16803TIP3   OH271899   2.444   6.553  14.349  0.3831 -0.8269  0.2945
16803TIP3    H171900   2.471   6.644  14.362  0.1038 -0.6438 -0.3276
16803TIP3    H271901   2.518   6.512  14.306  0.4840 -0.8764  0.5156
16804TIP3   OH271902   6.440   5.438   5.091  0.9069  0.1886  0.5548
16804TIP3    H171903   6.392   5.362   5.057 -0.9060  0.9102  1.3525
16804TIP3    H271904   6.530   5.424   5.062  0.5756 -2.1025  0.4152
16805TIP3   OH271905   4.545   4.996   3.231  0.1031  0.4680 -0.0051
16805TIP3    H171906   4.596   4.993   3.312  1.0559 -4.0685 -0.5005
16805TIP3    H271907   4.603   5.040   3.168  1.4083 -0.2193  0.6677
16806TIP3   OH271908   1.967   5.003  11.010 -0.4402 -0.3361 -0.4089
16806TIP3    H171909   1.981   5.097  10.993 -1.7589  0.1493  0.9586
16806TIP3    H271910   1.939   4.967  10.926  0.6657  0.3472 -1.1048
16807TIP3   OH271911   1.428   4.262  15.262 -0.1992 -0.0624  0.5694
16807TIP3    H171912   1.457   4.178  15.226 -0.5363  0.9369 -2.3118
16807TIP3    H271913   1.502   4.322  15.245 -0.7105  0.6361  0.7556
16808TIP3   OH271914   5.179   3.922  15.990 -0.7499  0.6326  0.0499
16808TIP3    H171915   5.258   3.947  16.038 -1.2533  0.3944  1.0211
16808TIP3    H271916   5.168   3.991  15.924  0.7687  0.1909 -0.7161
16809TIP3   OH271917   3.113   3.612  16.193  0.1812  0.0395 -0.0181
16809TIP3    H171918   3.158   3.535  16.157 -0.6915 -0.6726  0.3648
16809TIP3    H271919   3.150   3.686  16.145  1.3497 -0.5668 -0.1031
16810TIP3   OH271920   0.504   4.031  16.016  1.1099 -0.5018 -0.2911
16810TIP3    H171921   0.491   4.018  15.922  1.4825 -0.0413 -0.4049
16810TIP3    H271922   0.560   4.108  16.023 -0.6774  0.8147  0.3613
16811TIP3   OH271923   5.317   2.683   0.534 -0.3215  0.2558 -0.0842
16811TIP3    H171924   5.319   2.588   0.523 -1.1870  0.4534 -2.3524
16811TIP3    H271925   5.227   2.708   0.514  0.2122  1.6719 -0.8512
16812TIP3   OH271926   6.021   2.482   3.525  0.5058  0.0810 -0.0080
16812TIP3    H171927   6.059   2.526   3.602 -0.5276  1.2057 -0.1080
16812TIP3    H271928   6.089   2.489   3.458  0.6409  0.8714  0.2034
16813TIP3   OH271929   4.952   3.459  13.788 -0.2842  0.9006  0.1729
16813TIP3    H171930   4.936   3.549  13.816 -0.4486  0.1201  2.9913
16813TIP3    H271931   5.019   3.427  13.849  0.7148 -0.5246 -1.5816
16814TIP3   OH271932   3.898   6.345   4.310 -0.2266 -0.2168 -0.3392
16814TIP3    H171933   3.937   6.401   4.243 -0.1685  0.0802 -0.0561
16814TIP3    H271934   3.893   6.259   4.268  0.9247 -0.3072 -0.3107
16815TIP3   OH271935   1.491   0.001   2.955 -0.7590  0.7094 -0.0034
16815TIP3    H171936   1.467  -0.027   3.044 -1.0557 -1.9338 -0.8254
16815TIP3    H271937   1.410  -0.004   2.906 -0.7366  2.7981 -0.3545
16816TIP3   OH271938   6.093   5.906  14.636  0.3701  0.0826 -0.1814
16816TIP3    H171939   6.076   5.878  14.726  2.2763  0.4745  0.3451
16816TIP3    H271940   6.047   5.841  14.582 -2.1133  0.7300  1.0302
16817TIP3   OH271941   2.299   0.997   3.774 -0.3610 -0.1055 -0.3111
16817TIP3    H171942   2.338   1.068   3.825  0.3934 -0.6313 -0.1366
16817TIP3    H271943   2.346   0.998   3.691 -0.6768 -0.0939 -0.4899
16818TIP3   OH271944   3.296   5.586  14.788  0.1509  0.0209  0.3420
16818TIP3    H171945   3.315   5.496  14.761 -0.4787  0.3457 -1.2939
16818TIP3    H271946   3.328   5.640  14.715  1.7414  1.2618  1.8699
16819TIP3   OH271947   4.311   0.796   1.985 -0.0457 -0.4104  0.1233
16819TIP3    H171948   4.233   0.800   2.041 -0.4427 -2.3516 -0.2151
16819TIP3    H271949   4.315   0.883   1.944 -2.8994 -0.6429 -0.9378
16820TIP3   OH271950   6.469   2.327   3.763  0.0828  0.1133  0.3786
16820TIP3    H171951   6.466   2.421   3.781 -2.0482  0.3647 -1.0107
16820TIP3    H271952   6.557   2.300   3.791  0.4312  2.3280  1.6007
16821TIP3   OH271953   4.985   3.072  12.505 -0.6728 -0.0806 -0.5755
16821TIP3    H171954   4.966   2.980  12.523 -1.4243  0.1100 -0.3422
16821TIP3    H271955   5.073   3.072  12.467  0.5015 -0.6062  1.9983
16822TIP3   OH271956   0.887   3.981   0.295  0.2720 -0.0366 -0.0660
16822TIP3    H171957   0.861   3.997   0.386  1.8094  1.0819  0.2201
16822TIP3    H271958   0.828   4.037   0.244 -0.3577 -0.3860  0.2618
16823TIP3   OH271959   6.125   4.053  16.876 -0.0088 -0.0981 -0.2460
16823TIP3    H171960   6.078   4.131  16.846 -0.0495 -0.3157 -0.7513
16823TIP3    H271961   6.213   4.062  16.839 -0.1454 -0.5126 -0.6681
16824TIP3   OH271962   5.626   6.305   2.003 -0.4519  0.6950  0.2086
16824TIP3    H171963   5.588   6.226   2.041  0.0516  0.6389  0.6004
16824TIP3    H271964   5.656   6.356   2.078  1.3393  0.1899 -0.1250
16825TIP3   OH271965   1.275   5.901   6.190 -0.1272 -0.8539 -0.0869
16825TIP3    H171966   1.309   5.982   6.227 -1.2737  0.5479 -1.9822
16825TIP3    H271967   1.332   5.882   6.115 -1.4590 -0.2935 -1.2762
16826TIP3   OH271968   6.515   2.804  15.583  0.5958 -0.2412 -0.1953
16826TIP3    H171969   6.512   2.739  15.513  0.6253  0.9736 -1.3636
16826TIP3    H271970   6.472   2.881  15.546  0.7594  0.4784  1.0698
16827TIP3   OH271971   1.468   5.385   1.968 -0.3702 -0.3332 -0.0887
16827TIP3    H171972   1.433   5.309   2.014 -0.9425 -0.0942 -0.1236
16827TIP3    H271973   1.397   5.449   1.970 -0.3903 -0.2935 -1.2486
16828TIP3   OH271974   2.282   1.114  10.513 -0.5756  0.2744 -0.1790
16828TIP3    H171975   2.281   1.210  10.512  1.1479  0.3204 -0.4168
16828TIP3    H271976   2.195   1.089  10.481 -0.2428  1.7746 -2.4835
16829TIP3   OH271977   0.054   2.702   1.820  0.1806 -0.1551 -0.3308
16829TIP3    H171978   0.037   2.712   1.726  1.2903 -1.1512 -0.6743
16829TIP3    H271979   0.015   2.617   1.842 -0.2607  0.1728  0.1672
16830TIP3   OH271980   6.068   4.259  13.755  0.7887 -0.6824  0.9555
16830TIP3    H171981   6.088   4.171  13.787  1.8793 -0.3129  1.3297
16830TIP3    H271982   6.145   4.312  13.779 -0.9350  1.0026  3.1900
16831TIP3   OH271983   4.804   1.360  16.015 -0.6075  0.1245 -0.0995
16831TIP3    H171984   4.837   1.298  15.950 -1.1234 -2.3773  1.8787
16831TIP3    H271985   4.877   1.420  16.030  0.1125 -0.3061 -1.6794
16832TIP3   OH271986   5.708   1.305   3.099 -0.2490  0.0204  0.5602
16832TIP3    H171987   5.615   1.311   3.075 -0.3034 -0.8502  0.5017
16832TIP3    H271988   5.715   1.222   3.146  0.6167 -0.2415 -0.0039
16833TIP3   OH271989   5.121   6.418  14.344  0.4534  0.2582  0.0502
16833TIP3    H171990   5.064   6.343  14.356 -1.7146  1.3872 -2.3195
16833TIP3    H271991   5.062   6.493  14.334  2.4906  2.2384  1.5511
16834TIP3   OH271992   4.194   1.228  13.331 -0.6420  0.4839 -0.1957
16834TIP3    H171993   4.188   1.194  13.420 -1.3100  0.7884 -0.1187
16834TIP3    H271994   4.158   1.158  13.276  0.9943 -0.2585 -0.3814
16835TIP3   OH271995   3.785   5.542  12.607  0.3474 -0.3264  0.2573
16835TIP3    H171996   3.843   5.469  12.628 -1.7937 -2.3157 -0.4398
16835TIP3    H271997   3.729   5.552  12.684 -2.1421 -2.3059 -1.1575
16836TIP3   OH271998   3.043   4.739   1.726 -0.5566  0.1857  0.4664
16836TIP3    H171999   2.971   4.690   1.765 -0.5582  0.6920  1.1183
16836TIP3    H272000   3.074   4.796   1.796 -0.3217  0.8538 -0.1648
16837TIP3   OH272001   0.304   4.544   1.231  0.6540 -0.0104  0.1392
16837TIP3    H172002   0.212   4.521   1.244  0.2337  1.2427 -0.4609
16837TIP3    H272003   0.341   4.469   1.183 -0.4794  0.1821 -1.0960
16838TIP3   OH272004   4.517   4.275   1.258  0.0983 -0.0858 -0.2111
16838TIP3    H172005   4.607   4.293   1.286 -0.1137  0.1196  0.3576
16838TIP3    H272006   4.467   4.351   1.289 -0.7285 -1.3577  1.7938
16839TIP3   OH272007   5.737   0.206   4.932  0.4374  0.2132 -0.9077
16839TIP3    H172008   5.685   0.137   4.891 -0.8546  1.5531 -1.6426
16839TIP3    H272009   5.763   0.263   4.859 -0.6639  1.8473 -0.0967
16840TIP3   OH272010   4.603   2.642   2.547  0.2219 -0.6076 -0.2683
16840TIP3    H172011   4.515   2.606   2.556  0.4250 -1.3891 -1.2134
16840TIP3    H272012   4.608   2.669   2.455  0.0913  1.8673  0.3790
16841TIP3   OH272013   5.728   5.552   2.415  0.0716  0.7119 -0.0724
16841TIP3    H172014   5.788   5.514   2.479  1.0340  0.8938 -0.8428
16841TIP3    H272015   5.700   5.635   2.455  1.4016  1.2847 -0.2663
16842TIP3   OH272016   6.683   1.610   5.577  0.5055 -0.4430  0.0196
16842TIP3    H172017   6.722   1.692   5.606 -0.9429  0.0316  0.7453
16842TIP3    H272018   6.730   1.588   5.496 -0.4142  2.2164 -1.3855
16843TIP3   OH272019   6.047   4.424   6.079  0.0718  0.0737  0.3450
16843TIP3    H172020   6.001   4.379   6.151  1.8076 -1.9125  0.3099
16843TIP3    H272021   6.121   4.467   6.121 -0.1883  0.8466  0.0237
16844TIP3   OH272022   0.255   5.109   5.455 -0.2850  0.6772 -0.0088
16844TIP3    H172023   0.287   5.067   5.535  0.2912 -0.5580 -0.8569
16844TIP3    H272024   0.160   5.099   5.459 -0.1367 -1.7041 -0.6556
16845TIP3   OH272025   6.844   3.966   1.233 -0.4105  0.3103  0.4570
16845TIP3    H172026   6.763   4.014   1.246  0.4451  1.9122  0.0726
16845TIP3    H272027   6.883   4.004   1.154  0.7947 -0.3084  0.7222
16846TIP3   OH272028   4.182   1.220  10.693  0.2404  0.1036 -0.1255
16846TIP3    H172029   4.087   1.233  10.691 -0.0658 -1.4893  1.6451
16846TIP3    H272030   4.210   1.258  10.776  0.6148 -2.2538  0.9039
16847TIP3   OH272031   5.083   4.678   0.256  0.1304 -0.0939 -0.3131
16847TIP3    H172032   5.062   4.585   0.245 -2.0471  0.0759  1.6426
16847TIP3    H272033   5.077   4.714   0.168 -0.6547 -1.5062 -0.8724
16848TIP3   OH272034   6.255   2.163   4.388 -0.3572  0.2065  0.6390
16848TIP3    H172035   6.328   2.225   4.377  0.5934 -0.9079  0.4893
16848TIP3    H272036   6.288   2.081   4.351 -2.0163 -0.1001 -0.2382
16849TIP3   OH272037   2.978   5.897   1.714 -0.1426  0.1338 -0.4137
16849TIP3    H172038   2.886   5.889   1.689  0.1530  0.7901 -1.7907
16849TIP3    H272039   3.026   5.867   1.637  0.8688 -3.8363  1.4558
16850TIP3   OH272040   6.289   5.484   3.674 -0.3674  0.2291  0.7261
16850TIP3    H172041   6.211   5.521   3.714  0.3512  0.6551  1.7916
16850TIP3    H272042   6.330   5.433   3.744 -0.0069 -0.4916  0.0120
16851TIP3   OH272043   1.920   3.469  13.142 -0.1178  0.1659  0.2970
16851TIP3    H172044   1.955   3.384  13.114  1.2479  0.1851  1.7997
16851TIP3    H272045   1.826   3.463  13.124 -0.2128 -1.9950  1.1744
16852TIP3   OH272046   4.862   1.887  11.760  0.0818 -0.8691  0.2568
16852TIP3    H172047   4.859   1.966  11.815 -0.1452 -0.3066 -0.5425
16852TIP3    H272048   4.865   1.920  11.670 -1.4638 -1.7584 -0.1698
16853TIP3   OH272049   3.540   6.172  16.729  0.0143  0.0116 -0.2441
16853TIP3    H172050   3.451   6.192  16.699  0.0788 -0.2352 -0.5947
16853TIP3    H272051   3.568   6.252  16.774 -0.2312  0.2335 -0.4837
16854TIP3   OH272052   0.629   4.624  16.770  0.2523  0.8474  0.4837
16854TIP3    H172053   0.590   4.662  16.691  0.9377  2.4855  0.9050
16854TIP3    H272054   0.558   4.624  16.834  0.2679  1.4854  0.5007
16855TIP3   OH272055   0.524   5.331  16.410  0.5487 -0.0104 -0.0867
16855TIP3    H172056   0.483   5.246  16.426 -0.6959  0.4735 -0.5668
16855TIP3    H272057   0.618   5.315  16.422  0.1214 -0.5380  3.7898
16856TIP3   OH272058   2.370   5.351  11.775  0.0383  0.0475 -0.2457
16856TIP3    H172059   2.448   5.338  11.829  1.0405 -3.5055 -2.2243
16856TIP3    H272060   2.404   5.354  11.685 -2.0414 -1.9503 -1.1865
16857TIP3   OH272061   6.346   5.424   0.204  0.3072 -0.0984 -0.3871
16857TIP3    H172062   6.352   5.351   0.266 -0.5114  0.0031 -0.1825
16857TIP3    H272063   6.436   5.439   0.176  0.8051  0.3937  1.3871
16858TIP3   OH272064   3.916   1.757  12.706  0.1196  0.5671  0.1890
16858TIP3    H172065   3.952   1.669  12.697 -0.7187  0.1234  0.9681
16858TIP3    H272066   3.830   1.744  12.748 -0.1061  1.7339  0.1326
16859TIP3   OH272067   1.680   1.430   3.494  0.3228 -0.3889  0.8213
16859TIP3    H172068   1.705   1.510   3.448  0.4136 -0.8575  0.0526
16859TIP3    H272069   1.619   1.460   3.562  2.6952  0.7596  2.5988
16860TIP3   OH272070   1.277   6.693  12.643  0.3378  0.6375  0.3906
16860TIP3    H172071   1.254   6.784  12.623 -1.9687 -0.0533 -0.4100
16860TIP3    H272072   1.258   6.646  12.562  2.2180 -0.4848  0.5560
16861TIP3   OH272073   2.242   5.234   3.839  0.0510 -0.3552 -0.2368
16861TIP3    H172074   2.189   5.231   3.759  1.4465 -0.5807 -1.2018
16861TIP3    H272075   2.199   5.172   3.898  1.0455 -3.1428 -2.2031
16862TIP3   OH272076   4.466   5.117  16.252 -0.3534 -0.3749  0.0165
16862TIP3    H172077   4.392   5.058  16.235 -0.5728 -0.8124  2.2039
16862TIP3    H272078   4.428   5.189  16.302  0.4244  0.2366 -0.2552
16863TIP3   OH272079   3.542   4.003   2.160  0.0106 -0.2868  0.3292
16863TIP3    H172080   3.522   4.002   2.066  3.3101  1.3521 -0.5509
16863TIP3    H272081   3.567   4.094   2.178  0.9085 -0.8882  2.4465
16864TIP3   OH272082   0.083   4.438   3.742 -0.0110  0.3205 -0.4107
16864TIP3    H172083   0.131   4.370   3.695  0.3666  2.5147 -3.4221
16864TIP3    H272084   0.149   4.481   3.797 -0.1608 -1.3034  1.1532
16865TIP3   OH272085   2.196   5.430  13.931  0.0190  0.0721 -0.2967
16865TIP3    H172086   2.163   5.469  14.011 -1.3422 -1.8663  0.1628
16865TIP3    H272087   2.137   5.461  13.863  1.8755  2.6877 -0.8663
16866TIP3   OH272088   3.567   4.987   2.572  0.6084 -0.1543  0.4462
16866TIP3    H172089   3.475   4.960   2.576  0.0136  1.7445  1.1655
16866TIP3    H272090   3.599   4.976   2.662  0.9927 -0.5303  0.2639
16867TIP3   OH272091   2.146   3.619  11.859  0.4533  0.1540 -0.2230
16867TIP3    H172092   2.052   3.605  11.866  0.3926  0.8221  0.4620
16867TIP3    H272093   2.180   3.596  11.946  0.8665  0.2845 -0.3489
16868TIP3   OH272094   5.664   1.230   4.695 -0.4022 -0.5374  0.3918
16868TIP3    H172095   5.613   1.239   4.614  1.6227  2.9108 -0.7237
16868TIP3    H272096   5.729   1.163   4.675 -0.1772 -0.0028 -0.7476
16869TIP3   OH272097   1.064   1.393   1.619 -0.4670 -0.3386 -0.0994
16869TIP3    H172098   1.120   1.316   1.619  1.4814  0.9935 -1.0973
16869TIP3    H272099   0.993   1.372   1.557 -0.2167 -1.4649 -0.0170
16870TIP3   OH272100   5.001   2.411  14.385 -0.0981  0.2574  0.1007
16870TIP3    H172101   4.951   2.416  14.303 -1.2553 -0.7918  0.7137
16870TIP3    H272102   5.092   2.410  14.357 -0.4921 -1.5527 -1.3077
16871TIP3   OH272103   1.001   3.944  14.382 -0.0885  0.1768 -0.6061
16871TIP3    H172104   1.049   3.861  14.385 -0.7755 -0.1965  0.6711
16871TIP3    H272105   1.039   3.991  14.307  0.6942 -1.0457 -1.0050
16872TIP3   OH272106   0.373   5.911  10.945 -0.1336  0.0797  0.0067
16872TIP3    H172107   0.344   5.988  10.896 -0.9831 -1.2468 -1.6812
16872TIP3    H272108   0.370   5.840  10.882  0.1145 -1.4655  1.6561
16873TIP3   OH272109   5.372   5.945   6.468  0.8098 -0.1618 -0.2534
16873TIP3    H172110   5.341   6.010   6.404 -0.2678  0.9063  1.2667
16873TIP3    H272111   5.311   5.953   6.541  2.0937 -1.2204  0.9869
16874TIP3   OH272112   3.096   6.126  13.276 -0.2085  0.9470 -0.1016
16874TIP3    H172113   3.139   6.176  13.206 -1.4363 -0.4436 -1.9758
16874TIP3    H272114   3.004   6.152  13.270 -0.6299 -0.4989 -0.2377
16875TIP3   OH272115   1.028   6.354   0.591 -0.6617 -0.4731  0.2062
16875TIP3    H172116   0.954   6.394   0.546 -1.5554  0.2224  2.1673
16875TIP3    H272117   1.095   6.423   0.594 -0.2906 -0.7769 -0.6879
16876TIP3   OH272118   4.018   3.212   3.480 -0.1677 -0.0983  0.1228
16876TIP3    H172119   3.996   3.295   3.440  0.3828  0.2848  0.5928
16876TIP3    H272120   3.934   3.167   3.489 -0.6206  0.8448  0.8261
16877TIP3   OH272121   4.898   6.638   5.200  0.2819 -0.0610  0.9421
16877TIP3    H172122   4.809   6.646   5.166 -0.9723  1.2521  4.0943
16877TIP3    H272123   4.904   6.549   5.232  0.7347 -0.6440 -0.6583
16878TIP3   OH272124   5.305   6.450   2.815 -0.0682 -0.3260  0.7185
16878TIP3    H172125   5.354   6.375   2.780 -0.3387 -0.2290  0.1185
16878TIP3    H272126   5.329   6.522   2.757  3.0133  0.9781  3.3355
16879TIP3   OH272127   3.335   6.051   0.328 -0.1485  0.1383  0.1787
16879TIP3    H172128   3.361   6.121   0.268  0.5202 -0.4073 -0.1755
16879TIP3    H272129   3.357   6.084   0.415  0.5720  0.1989 -0.0201
16880TIP3   OH272130   2.427   4.337  16.166  0.0178  0.4020 -0.0337
16880TIP3    H172131   2.447   4.377  16.250  1.9093  0.1601 -0.3441
16880TIP3    H272132   2.508   4.295  16.138 -0.8895 -0.5322 -1.4437
16881TIP3   OH272133   5.197   6.841  13.334  0.2666  0.1011 -0.4001
16881TIP3    H172134   5.203   6.936  13.329  1.8120  0.0987  0.6824
16881TIP3    H272135   5.203   6.812  13.242 -0.7534  1.0319 -0.7888
16882TIP3   OH272136   5.552   6.685  12.311 -0.0616  0.0067 -0.7703
16882TIP3    H172137   5.522   6.598  12.337 -2.5093  0.8032 -0.6856
16882TIP3    H272138   5.580   6.726  12.393 -1.1124  0.0720 -0.4267
16883TIP3   OH272139   1.415   3.169  10.872  0.6000 -0.0946 -0.8019
16883TIP3    H172140   1.503   3.205  10.883 -0.1364  1.8946 -0.9339
16883TIP3    H272141   1.401   3.169  10.777  0.5544 -0.6542 -0.7962
16884TIP3   OH272142   4.001   0.373   5.644 -0.4334 -0.3759 -0.1430
16884TIP3    H172143   3.940   0.315   5.691 -3.3289 -0.0024 -3.0970
16884TIP3    H272144   3.961   0.460   5.652  1.3815  0.4561  0.2978
16885TIP3   OH272145   0.495   1.905   4.758  0.1873 -0.2586 -0.2983
16885TIP3    H172146   0.424   1.843   4.775  1.5238 -1.8683 -0.3125
16885TIP3    H272147   0.506   1.952   4.841 -0.2444 -0.6838  0.0081
16886TIP3   OH272148   6.191   6.847  11.930  0.3156  0.5463 -0.6057
16886TIP3    H172149   6.235   6.927  11.957 -1.7754  0.5819  3.4173
16886TIP3    H272150   6.262   6.783  11.922  1.7398  2.1212 -1.2305
16887TIP3   OH272151   2.980   6.402  10.902  0.2512  0.4185 -0.0080
16887TIP3    H172152   2.893   6.413  10.864 -0.2937 -0.0397  1.0413
16887TIP3    H272153   3.014   6.322  10.861 -0.2572  0.0205  0.3342
16888TIP3   OH272154   1.009   5.295   3.281 -0.0023  0.1942  0.3738
16888TIP3    H172155   0.926   5.334   3.251 -0.0769  0.1516  0.5250
16888TIP3    H272156   1.067   5.370   3.292  0.1447  0.1784 -0.2441
16889TIP3   OH272157   2.699   5.497  16.138 -0.1331 -0.1374 -0.4236
16889TIP3    H172158   2.632   5.431  16.116  0.3201 -0.2958 -1.3966
16889TIP3    H272159   2.782   5.454  16.115  0.1769  0.7064 -0.9067
16890TIP3   OH272160   3.951   4.990   0.840  0.0244 -0.0921 -0.3610
16890TIP3    H172161   4.001   5.037   0.773  0.1187  0.7755  0.3080
16890TIP3    H272162   3.901   4.925   0.790  0.4664  0.2089 -1.2232
16891TIP3   OH272163   2.514   0.392  14.997  0.3515  0.3233  0.4801
16891TIP3    H172164   2.560   0.477  14.993  2.5130 -0.7197  1.4010
16891TIP3    H272165   2.431   0.408  14.952  0.6145  2.9607  0.7325
16892TIP3   OH272166   2.111   4.593  13.215 -0.1354 -0.4933  0.3508
16892TIP3    H172167   2.083   4.594  13.123 -0.2193  0.9680  0.3602
16892TIP3    H272168   2.177   4.524  13.219  1.4727  0.8158 -1.3487
16893TIP3   OH272169   6.131   4.156   1.871  0.6315 -0.7396 -0.2659
16893TIP3    H172170   6.122   4.244   1.907  0.3269 -1.4675  1.5415
16893TIP3    H272171   6.192   4.166   1.798  1.6349  0.7569  0.7293
16894TIP3   OH272172   4.710   2.956  13.325  0.2733  0.4357 -0.8953
16894TIP3    H172173   4.677   2.879  13.279  1.6288  0.0055 -1.1732
16894TIP3    H272174   4.721   2.927  13.415 -0.0137  0.5553 -0.8206
16895TIP3   OH272175   4.933   4.731   4.850  0.1692  0.5942  0.2526
16895TIP3    H172176   4.913   4.695   4.764 -0.4264  1.8478 -0.1661
16895TIP3    H272177   4.943   4.825   4.835  1.7686  0.6393  1.2737
16896TIP3   OH272178   4.247   5.927  11.049 -0.0086 -0.3722 -0.1737
16896TIP3    H172179   4.254   5.975  10.967 -0.5400 -0.6103 -0.3619
16896TIP3    H272180   4.153   5.921  11.066  0.0609 -1.0082  0.0409
16897TIP3   OH272181   5.314   5.103  17.075 -0.4964  0.1104 -0.0818
16897TIP3    H172182   5.384   5.163  17.052 -0.0847  0.5295  2.1067
16897TIP3    H272183   5.351   5.016  17.060  0.8337  0.2963  1.8083
16898TIP3   OH272184   0.583   3.323  13.675 -0.0239  0.6149 -0.1752
16898TIP3    H172185   0.532   3.345  13.597  1.4415  1.7326 -0.8787
16898TIP3    H272186   0.669   3.299  13.641  0.7398  1.4295  1.0954
16899TIP3   OH272187   4.029   3.158  12.193 -0.5231 -0.0537 -0.6750
16899TIP3    H172188   3.983   3.239  12.172 -0.8300  0.0934  0.5042
16899TIP3    H272189   4.037   3.113  12.109 -1.2483  0.7349 -1.1855
16900TIP3   OH272190   3.937   3.458   3.067  0.1301 -0.4005 -0.5891
16900TIP3    H172191   3.904   3.460   2.977  1.4085  0.1208 -1.0826
16900TIP3    H272192   4.010   3.396   3.064  0.1008 -0.4706  0.1110
16901TIP3   OH272193   5.918   5.126   3.177  0.2140  0.0038 -0.1731
16901TIP3    H172194   6.005   5.122   3.218  0.7546 -1.4749 -1.3554
16901TIP3    H272195   5.872   5.050   3.212 -1.2925  1.7366  1.8000
16902TIP3   OH272196   5.182   4.342  14.124  0.1883  0.0007  0.2899
16902TIP3    H172197   5.200   4.256  14.163 -0.7940 -0.5638 -0.4407
16902TIP3    H272198   5.089   4.356  14.141 -0.6706 -0.9257 -2.9831
16903TIP3   OH272199   6.770   6.133   5.329 -0.2047 -0.4380 -0.0201
16903TIP3    H172200   6.715   6.204   5.296 -0.9358 -1.2346 -0.5636
16903TIP3    H272201   6.787   6.156   5.421 -1.8247 -0.3946  0.2866
16904TIP3   OH272202   6.068   0.945   4.503  0.1786  0.3350 -0.1298
16904TIP3    H172203   6.123   0.929   4.427 -1.0571 -0.6081 -0.8603
16904TIP3    H272204   6.038   1.035   4.493  1.5486  0.8637  0.2809
16905TIP3   OH272205   1.752   2.914   2.970  0.6393 -0.2028 -0.4292
16905TIP3    H172206   1.847   2.918   2.956  0.5085 -1.3206 -1.9491
16905TIP3    H272207   1.717   2.887   2.885 -1.2237  1.8716 -0.3935
16906TIP3   OH272208   5.237   6.683  13.544 -0.3116 -0.3734  0.3742
16906TIP3    H172209   5.328   6.704  13.522 -0.5330  0.7326  0.4386
16906TIP3    H272210   5.186   6.733  13.480 -0.9145  0.8125  1.7229
16907TIP3   OH272211   3.433   6.168  13.919 -0.1140 -0.0984 -0.5474
16907TIP3    H172212   3.436   6.081  13.879 -0.3632  0.0093 -0.8102
16907TIP3    H272213   3.342   6.178  13.947  0.3687 -0.7536  1.3866
16908TIP3   OH272214   1.507   0.682  13.417 -0.0657  0.0850 -0.4023
16908TIP3    H172215   1.549   0.687  13.503  0.2022 -1.4259 -0.4160
16908TIP3    H272216   1.459   0.764  13.409  0.7580  0.7126  0.7368
16909TIP3   OH272217   1.028   1.093  17.095 -0.3405 -0.1622  0.1619
16909TIP3    H172218   1.098   1.028  17.093  0.8373  0.9885 -2.9672
16909TIP3    H272219   0.953   1.049  17.055  0.2880  0.1217 -1.4314
16910TIP3   OH272220   3.851   2.653  14.158 -0.2339  0.3334 -0.4338
16910TIP3    H172221   3.835   2.746  14.169 -0.2996  0.0826  1.9553
16910TIP3    H272222   3.786   2.625  14.093 -1.0260  1.6960 -0.2679
16911TIP3   OH272223   6.169   3.414  10.930  0.0526 -0.2018  0.1979
16911TIP3    H172224   6.176   3.334  10.878 -0.8673 -1.1088  1.4165
16911TIP3    H272225   6.241   3.409  10.993  0.7365  0.5518 -0.4941
16912TIP3   OH272226   3.095   5.751  15.492 -0.3550  0.3891 -0.1414
16912TIP3    H172227   3.054   5.785  15.572  0.7674  2.5896 -0.4230
16912TIP3    H272228   3.064   5.810  15.423 -0.2348 -0.6642 -1.1267
16913TIP3   OH272229   1.392   1.480  13.703  0.3874 -0.7253  0.4747
16913TIP3    H172230   1.409   1.399  13.751  1.4946 -0.4532  0.5525
16913TIP3    H272231   1.438   1.469  13.620 -1.2430 -1.0613 -0.4477
16914TIP3   OH272232   1.050   5.062  16.130  0.0811  0.2509 -0.2333
16914TIP3    H172233   1.129   5.012  16.153  0.1856  0.2928 -0.4926
16914TIP3    H272234   0.982   4.996  16.120 -0.5361  0.3794  2.3914
16915TIP3   OH272235   0.571   1.658  15.769  0.4992  0.0730 -0.4378
16915TIP3    H172236   0.641   1.626  15.825 -0.3008 -0.4811  0.2605
16915TIP3    H272237   0.506   1.588  15.768  1.0002 -0.4431 -3.0252
16916TIP3   OH272238   1.900   5.702   4.112 -0.3441  0.3488  0.1833
16916TIP3    H172239   1.831   5.767   4.125 -0.2968  0.0985  1.9240
16916TIP3    H272240   1.855   5.627   4.072 -0.6002  1.0386 -0.8634
16917TIP3   OH272241   6.362   3.362  13.055  0.8173  0.4032  0.2074
16917TIP3    H172242   6.364   3.287  12.994  2.2901  0.1904  0.4702
16917TIP3    H272243   6.454   3.380  13.073  0.4528  1.6960  0.8913
16918TIP3   OH272244   1.496   3.171  14.640  0.5724  0.0523 -0.4450
16918TIP3    H172245   1.483   3.264  14.619  1.5851  0.1142 -0.8726
16918TIP3    H272246   1.492   3.127  14.555  1.2208 -0.1441 -0.3817
16919TIP3   OH272247   2.046   0.153   4.290  0.2034  0.3878 -0.2885
16919TIP3    H172248   2.020   0.145   4.382 -1.2833  0.2679 -0.6913
16919TIP3    H272249   2.134   0.116   4.287 -0.1139 -0.5438  0.9128
16920TIP3   OH272250   4.178   0.299   2.816  0.0688  0.2624  0.2145
16920TIP3    H172251   4.106   0.350   2.850  0.0852  0.6394 -0.3009
16920TIP3    H272252   4.194   0.232   2.882 -0.5516  0.3621  0.4695
16921TIP3   OH272253   6.176   0.943  13.916 -0.0815 -0.0577  0.0663
16921TIP3    H172254   6.271   0.934  13.911  0.1287  0.3226  2.3584
16921TIP3    H272255   6.160   0.978  14.003 -2.1278  3.0290 -1.3731
16922TIP3   OH272256   6.720   1.620   3.786 -0.1849 -0.4003  0.0828
16922TIP3    H172257   6.792   1.675   3.815 -1.5154  1.4269  0.0822
16922TIP3    H272258   6.647   1.643   3.844 -0.9237 -1.8544 -0.2145
16923TIP3   OH272259   2.203   6.510  13.553  0.1074 -0.2340 -0.0314
16923TIP3    H172260   2.220   6.561  13.473 -0.4471  1.5973  0.9632
16923TIP3    H272261   2.283   6.520  13.605 -0.0733 -0.2494  0.2477
16924TIP3   OH272262   6.783   2.991   5.360 -0.0081  0.0152  0.5631
16924TIP3    H172263   6.803   2.898   5.347  0.0273  0.0105  0.6544
16924TIP3    H272264   6.861   3.037   5.328  0.0188  0.0089  0.6188
16925TIP3   OH272265   1.619   3.973   2.510  0.1341 -0.4307  0.3668
16925TIP3    H172266   1.646   3.973   2.418 -0.2336 -0.5343  0.2589
16925TIP3    H272267   1.641   3.886   2.542 -1.3362 -0.9983 -0.0968
16926TIP3   OH272268   5.890   1.723   1.461  0.4981 -0.5556 -0.6230
16926TIP3    H172269   5.819   1.662   1.446  0.0615 -0.2845  0.2698
16926TIP3    H272270   5.965   1.668   1.485 -0.3663 -0.6918  1.9910
16927TIP3   OH272271   0.210   1.235   2.097  0.3989 -0.4657 -0.2298
16927TIP3    H172272   0.145   1.218   2.165 -1.7810  0.7570 -1.9053
16927TIP3    H272273   0.243   1.323   2.117  0.4558 -0.4802 -0.2593
16928TIP3   OH272274   6.386   6.021  16.172 -0.4114 -0.1238  0.3352
16928TIP3    H172275   6.420   5.974  16.247 -0.2907 -0.3554  0.1363
16928TIP3    H272276   6.439   5.991  16.098  0.1122  0.8274  0.3182
16929TIP3   OH272277   1.121   1.952  11.169  0.2535 -0.4900 -0.6844
16929TIP3    H172278   1.139   1.869  11.125 -0.2082  0.1290 -2.0846
16929TIP3    H272279   1.143   2.019  11.105  1.7084  0.5471  0.8151
16930TIP3   OH272280   2.272   2.240  15.299  0.0810 -0.1140  0.4688
16930TIP3    H172281   2.257   2.334  15.287 -2.0455 -0.5267 -0.5339
16930TIP3    H272282   2.295   2.208  15.212  0.5955 -0.5858  0.7693
16931TIP3   OH272283   1.556   2.424  14.106 -0.5340  0.1723  0.4252
16931TIP3    H172284   1.527   2.337  14.135  0.2468 -1.7612 -3.7780
16931TIP3    H272285   1.476   2.476  14.102 -1.4672 -1.2105  0.5716
16932TIP3   OH272286   5.854   5.215  15.174 -0.4873 -0.2500  0.0337
16932TIP3    H172287   5.784   5.154  15.195  0.7757 -1.1427  1.9886
16932TIP3    H272288   5.848   5.283  15.241 -0.4269  0.5109 -0.7144
16933TIP3   OH272289   2.968   6.326   4.698  0.0814 -0.1573 -0.1044
16933TIP3    H172290   2.880   6.296   4.676 -0.4890  1.0601  0.3884
16933TIP3    H272291   3.009   6.253   4.744 -0.9867 -0.4375  0.4190
16934TIP3   OH272292   2.637   4.860  13.328 -0.1750  0.2010 -0.5392
16934TIP3    H172293   2.561   4.866  13.270 -0.7234  0.2341  0.1674
16934TIP3    H272294   2.686   4.941  13.312  0.0927 -0.1426 -1.5065
16935TIP3   OH272295   5.687   4.595  12.976  0.2652  0.5286  0.4976
16935TIP3    H172296   5.766   4.565  13.023  0.2894 -1.0885 -0.4837
16935TIP3    H272297   5.714   4.598  12.884 -1.1007 -1.2020 -0.0101
16936TIP3   OH272298   2.083   5.136   5.539  0.2077  0.4124  0.5347
16936TIP3    H172299   2.165   5.174   5.507  0.5207  1.1248  2.0737
16936TIP3    H272300   2.084   5.046   5.506  1.4739  0.5045  0.2656
16937TIP3   OH272301   4.458   1.166   0.577 -0.3446  0.6209 -0.4473
16937TIP3    H172302   4.520   1.094   0.573 -0.8961 -0.2430  3.1296
16937TIP3    H272303   4.374   1.129   0.548 -0.6029 -0.2100  1.2791
16938TIP3   OH272304   5.187   0.644  11.851 -0.2233  0.1007  0.2058
16938TIP3    H172305   5.169   0.660  11.758 -0.2874  1.5090  0.4405
16938TIP3    H272306   5.240   0.719  11.879  0.0147 -0.4341  1.2523
16939TIP3   OH272307   6.777   4.016   5.113 -0.1402  0.3619 -0.8853
16939TIP3    H172308   6.686   4.044   5.119  0.2503  1.4258  0.9706
16939TIP3    H272309   6.781   3.935   5.165  0.0754  0.6865 -0.3804
16940TIP3   OH272310   1.978   5.656   5.705  0.4081 -0.2152  0.3483
16940TIP3    H172311   1.914   5.721   5.735 -1.1460 -1.0437 -1.0230
16940TIP3    H272312   1.966   5.581   5.764  0.6833 -0.0710  0.5887
16941TIP3   OH272313   4.095   1.196  16.821 -0.2147 -0.0032  0.3173
16941TIP3    H172314   4.063   1.276  16.863  0.8566  0.4670  0.2708
16941TIP3    H272315   4.150   1.227  16.749 -0.0961 -0.7834  0.0603
16942TIP3   OH272316   4.919   4.257  17.014  0.1313 -0.0972  0.0360
16942TIP3    H172317   4.830   4.278  16.985  0.6193  0.8754 -0.8073
16942TIP3    H272318   4.910   4.239  17.108 -1.3161 -2.2930 -0.4505
16943TIP3   OH272319   3.371   2.600  16.760 -0.4139 -0.0580  0.4410
16943TIP3    H172320   3.454   2.634  16.727 -0.6441  1.0550  0.9554
16943TIP3    H272321   3.305   2.639  16.702 -0.6388 -0.1770  0.6170
16944TIP3   OH272322   5.815   4.492   5.488  0.5355  0.4086 -0.8538
16944TIP3    H172323   5.779   4.404   5.496 -0.0655  0.6659 -0.7269
16944TIP3    H272324   5.909   4.478   5.471  0.6688 -0.2362  0.3280
16945TIP3   OH272325   0.384   4.411  16.051 -0.4120 -0.2508 -0.6380
16945TIP3    H172326   0.306   4.357  16.036 -0.4074 -0.7904  1.0707
16945TIP3    H272327   0.430   4.367  16.123  1.2724  0.2803 -1.3514
16946TIP3   OH272328   4.590   2.903   2.692 -0.1487  0.2484  0.4190
16946TIP3    H172329   4.525   2.874   2.756 -0.9452  0.7572 -0.1481
16946TIP3    H272330   4.627   2.822   2.657 -2.5484 -0.1946 -1.3686
16947TIP3   OH272331   4.805   3.181   3.756 -0.4883  0.7877 -0.5981
16947TIP3    H172332   4.816   3.166   3.849 -0.4187  0.8178 -0.6017
16947TIP3    H272333   4.710   3.186   3.743 -0.5696 -0.5825 -0.7330
16948TIP3   OH272334   1.961   5.582  11.117 -0.6556  0.2442 -0.7381
16948TIP3    H172335   1.884   5.530  11.139  0.0641 -0.8423 -0.6987
16948TIP3    H272336   2.026   5.517  11.090 -0.5910  1.2973 -3.3650
16949TIP3   OH272337   2.746   3.493   4.522 -0.4221  0.3221  0.1613
16949TIP3    H172338   2.709   3.580   4.537  1.2469  1.0727  0.2037
16949TIP3    H272339   2.741   3.449   4.607 -0.2454  0.7954  0.4166
16950TIP3   OH272340   4.995   3.831  16.335 -0.2470  0.0695  0.6011
16950TIP3    H172341   5.074   3.872  16.370 -0.1936 -0.5738  1.2489
16950TIP3    H272342   5.012   3.737  16.340 -0.7628 -0.0625  0.0480
16951TIP3   OH272343   0.041   5.590   5.800 -0.0550 -0.3889 -0.4131
16951TIP3    H172344  -0.008   5.627   5.873 -0.3949 -2.0888  0.2648
16951TIP3    H272345   0.116   5.648   5.789 -0.7025  0.6378  0.4052
16952TIP3   OH272346   1.419   2.508   6.162 -0.5255  0.0224 -0.0305
16952TIP3    H172347   1.454   2.492   6.074 -1.2668  1.1955 -0.5663
16952TIP3    H272348   1.428   2.602   6.175 -0.2453 -0.1642  1.2495
16953TIP3   OH272349   1.677   6.476  12.881 -0.0268 -0.0625 -0.2249
16953TIP3    H172350   1.745   6.494  12.945 -0.8649  2.0414  0.1612
16953TIP3    H272351   1.607   6.435  12.931 -0.8613  1.9760  0.3926
16954TIP3   OH272352   0.656   6.768  11.697  0.1046 -0.6279 -0.0333
16954TIP3    H172353   0.639   6.732  11.784 -1.2285 -0.1680 -0.0913
16954TIP3    H272354   0.591   6.838  11.686  0.9103  0.0009 -0.9967
16955TIP3   OH272355   3.430   0.778  16.225  0.2587  0.1514  0.2739
16955TIP3    H172356   3.503   0.766  16.286  0.4962 -0.3538 -0.1005
16955TIP3    H272357   3.468   0.764  16.139 -0.4592 -1.0918  0.1240
16956TIP3   OH272358   5.215   5.219   5.187 -0.4200  0.1726  0.0153
16956TIP3    H172359   5.133   5.170   5.178 -0.5728  0.6173 -1.1927
16956TIP3    H272360   5.210   5.258   5.274 -0.2367 -2.0061  1.0799
16957TIP3   OH272361   2.753   5.738   5.620  0.6977 -0.0601  0.0725
16957TIP3    H172362   2.821   5.771   5.679  1.3159  0.0381 -0.6760
16957TIP3    H272363   2.676   5.728   5.675  1.2450  0.0925  0.8806
16958TIP3   OH272364   3.798   5.116   4.387 -0.2277  0.1382  0.4076
16958TIP3    H172365   3.872   5.163   4.348  0.2185 -0.2733  0.7437
16958TIP3    H272366   3.749   5.184   4.433 -0.0289  0.4062  0.2303
16959TIP3   OH272367   1.187   5.194   0.066  0.5322  0.1603  0.0675
16959TIP3    H172368   1.105   5.233   0.095  0.5104 -1.2425  2.1327
16959TIP3    H272369   1.169   5.100   0.060  1.7389 -0.0697 -0.3699
16960TIP3   OH272370   0.299   2.540   1.759 -0.2026 -0.2593  0.2473
16960TIP3    H172371   0.234   2.611   1.764 -1.0455 -1.0119  0.3918
16960TIP3    H272372   0.261   2.478   1.697  1.5917  0.4483 -1.6658
16961TIP3   OH272373   4.565   5.335  11.995  0.2863 -0.1267 -0.0205
16961TIP3    H172374   4.615   5.357  11.916 -1.3551  0.6899 -0.8873
16961TIP3    H272375   4.566   5.239  11.998  1.1464 -0.1415 -0.5052
16962TIP3   OH272376   6.360   3.651   4.833  0.1673 -0.0205 -0.0050
16962TIP3    H172377   6.319   3.702   4.763 -0.8574 -0.9849 -0.1341
16962TIP3    H272378   6.309   3.673   4.911  0.1528 -0.3172  0.0703
16963TIP3   OH272379   2.643   4.938  15.533 -0.1342  0.5361  0.2468
16963TIP3    H172380   2.701   4.862  15.525  1.1557  1.6724 -1.8734
16963TIP3    H272381   2.689   4.997  15.593  0.3954  0.9823 -0.5944
16964TIP3   OH272382   3.885   2.738   2.323 -0.3026 -0.0674 -0.2454
16964TIP3    H172383   3.950   2.767   2.387 -0.3906  1.1289 -0.6702
16964TIP3    H272384   3.849   2.658   2.360 -1.7727  1.5970  2.1801
16965TIP3   OH272385   3.936   3.843   1.643  0.5940  0.8925  0.0496
16965TIP3    H172386   3.895   3.808   1.722  0.6916  1.5372  0.3872
16965TIP3    H272387   4.022   3.800   1.639 -0.1704 -0.6491 -0.7918
16966TIP3   OH272388   5.008   1.435   4.806  0.4454 -0.4872 -0.4623
16966TIP3    H172389   5.080   1.479   4.850 -0.2255 -0.2336  0.4331
16966TIP3    H272390   5.029   1.342   4.813 -0.1992 -0.5444  1.5141
16967TIP3   OH272391   2.962   1.989   2.931  0.1693 -0.2878 -0.4624
16967TIP3    H172392   3.053   2.016   2.946 -0.1190  0.5916 -0.2499
16967TIP3    H272393   2.937   2.033   2.850 -0.4186  0.3828  0.0729
16968TIP3   OH272394   5.149   0.670   1.095  0.4829  0.8434 -0.6237
16968TIP3    H172395   5.221   0.607   1.104  0.0713 -0.3939 -4.1423
16968TIP3    H272396   5.073   0.616   1.073 -0.0598  2.4151 -3.0552
16969TIP3   OH272397   3.850   1.462   6.393  0.4854 -0.0771  0.0516
16969TIP3    H172398   3.855   1.373   6.358 -1.4172 -1.3143  2.5884
16969TIP3    H272399   3.915   1.464   6.463  0.9310  0.7606 -0.3705
16970TIP3   OH272400   0.124   6.845  13.109 -0.2211  0.2094 -1.1133
16970TIP3    H172401   0.214   6.867  13.133  0.2644 -2.3824 -0.1297
16970TIP3    H272402   0.071   6.873  13.184  0.3776 -1.7329  0.1245
16971TIP3   OH272403   5.222   1.114  15.126  0.5688 -0.0426 -0.0726
16971TIP3    H172404   5.187   1.034  15.166  0.3708  0.0010 -0.1585
16971TIP3    H272405   5.310   1.122  15.163  0.5178 -0.1947  0.0863
16972TIP3   OH272406   4.294   3.841   0.306 -1.2707 -0.0163 -0.0809
16972TIP3    H172407   4.294   3.774   0.238 -0.3260 -0.8075  0.6517
16972TIP3    H272408   4.218   3.896   0.287 -2.4509 -1.6721 -0.3421
16973TIP3   OH272409   1.196   5.162   3.949  0.6119 -0.0414 -0.5350
16973TIP3    H172410   1.101   5.164   3.953  0.6016  0.1030 -0.8193
16973TIP3    H272411   1.222   5.254   3.944  0.8852  0.0775  1.8746
16974TIP3   OH272412   6.213   5.321   2.014 -0.5623 -0.6147 -0.3818
16974TIP3    H172413   6.128   5.280   2.026  0.5374 -2.4526  2.1160
16974TIP3    H272414   6.259   5.264   1.953 -0.2555 -1.1077  0.3011
16975TIP3   OH272415   1.055   4.761   0.553  0.7886 -0.1001  0.3287
16975TIP3    H172416   0.970   4.722   0.575  0.8857 -0.2095  0.5087
16975TIP3    H272417   1.058   4.758   0.457  1.3191 -1.6679  0.3674
16976TIP3   OH272418   4.670   3.555   1.997 -0.5280 -0.1015 -0.4967
16976TIP3    H172419   4.750   3.514   2.028 -0.8179  0.5108  1.1700
16976TIP3    H272420   4.612   3.482   1.975  0.3289 -0.5408 -1.3747
16977TIP3   OH272421   1.129   3.410   3.188  0.0904  0.5839  0.2807
16977TIP3    H172422   1.118   3.362   3.270 -2.5409 -1.2619 -0.9891
16977TIP3    H272423   1.074   3.363   3.126  3.4979  0.6409 -3.1308
16978TIP3   OH272424   0.682   5.494  13.062 -0.2623  0.4143  0.2788
16978TIP3    H172425   0.774   5.516  13.049  0.1363 -0.7078  1.0928
16978TIP3    H272426   0.649   5.478  12.973  1.1790 -2.3568  0.1293
16979TIP3   OH272427   3.050   0.030  11.079  0.5597  0.5011 -0.4189
16979TIP3    H172428   3.138   0.019  11.114 -0.3219 -1.9322  1.3168
16979TIP3    H272429   3.043  -0.036  11.010  0.2571  1.0607 -0.9349
16980TIP3   OH272430   3.917   5.192  15.381  0.2296 -0.4315 -0.5871
16980TIP3    H172431   3.988   5.225  15.326 -0.5023  1.6891 -0.3517
16980TIP3    H272432   3.916   5.097  15.365  1.9106 -0.2633 -1.9663
16981TIP3   OH272433   0.762   1.049  14.115 -0.1013 -0.1824  0.7379
16981TIP3    H172434   0.698   1.116  14.141 -0.9751 -0.5705 -0.3009
16981TIP3    H272435   0.733   1.022  14.028  1.5779 -0.2902  0.1874
16982TIP3   OH272436   4.606   0.618  13.086  0.8120  0.2562  0.2045
16982TIP3    H172437   4.601   0.590  12.995  0.0386 -0.9706  0.5899
16982TIP3    H272438   4.658   0.550  13.129  1.7370  1.1685  0.5715
16983TIP3   OH272439   2.280   0.626   3.822  0.0444  0.1215  0.3347
16983TIP3    H172440   2.357   0.667   3.784 -0.2470  2.6374  2.2288
16983TIP3    H272441   2.224   0.699   3.849 -1.8927 -1.5844  1.2322
16984TIP3   OH272442   1.692   1.938  16.447 -0.3610 -0.4477 -0.5679
16984TIP3    H172443   1.773   1.904  16.408 -0.0422  0.5296 -0.7770
16984TIP3    H272444   1.706   2.033  16.452 -1.1269 -0.3730  0.2523
16985TIP3   OH272445   1.278   5.000   4.736 -0.4415 -0.2083 -0.0615
16985TIP3    H172446   1.336   4.996   4.659  0.0153 -0.5305  0.2946
16985TIP3    H272447   1.196   5.035   4.702  0.0383  0.4902 -0.5359
16986TIP3   OH272448   2.609   2.825  15.447 -0.1919 -0.6851  0.3493
16986TIP3    H172449   2.515   2.812  15.462 -0.1330 -0.1405  1.2919
16986TIP3    H272450   2.644   2.736  15.439 -0.9505 -0.8759 -1.2422
16987TIP3   OH272451   2.973   3.124  14.992 -0.1885  0.1517 -0.5054
16987TIP3    H172452   2.935   3.191  15.049  0.1664  0.2958 -0.4353
16987TIP3    H272453   3.056   3.162  14.963  0.3330 -0.5242  0.0680
16988TIP3   OH272454   0.311   0.822   3.609  0.2972 -0.9296  0.1690
16988TIP3    H172455   0.316   0.761   3.535 -1.7872 -1.9201  0.7779
16988TIP3    H272456   0.295   0.766   3.685 -1.0127  0.3205  0.8583
16989TIP3   OH272457   2.109   4.638  15.714 -0.6085 -0.7615 -0.4402
16989TIP3    H172458   2.145   4.593  15.791 -0.6113  0.2889  0.1909
16989TIP3    H272459   2.100   4.729  15.742 -1.6394 -0.5770 -1.3353
16990TIP3   OH272460   3.790   4.055  12.735 -0.2310  0.1953  0.1485
16990TIP3    H172461   3.786   4.072  12.829 -1.0141  2.6575 -0.2702
16990TIP3    H272462   3.879   4.081  12.710 -0.8865  2.2525 -0.2023
16991TIP3   OH272463   3.386   1.062   1.486  0.3095 -0.3294 -0.0853
16991TIP3    H172464   3.346   1.138   1.529  0.1335 -0.7357  0.4864
16991TIP3    H272465   3.384   1.083   1.393  1.2298  0.8247  0.1270
16992TIP3   OH272466   3.546   1.029  14.626  0.0715  0.3058  0.3493
16992TIP3    H172467   3.479   1.032  14.558 -0.8550  1.7971  1.2576
16992TIP3    H272468   3.497   1.023  14.708  1.1484 -1.0458  0.9399
16993TIP3   OH272469   2.615   6.314  10.994 -0.4757  0.1199 -0.2286
16993TIP3    H172470   2.698   6.275  10.967 -0.1335  0.4229  0.3646
16993TIP3    H272471   2.581   6.356  10.915  0.2814  0.6019 -0.3118
16994TIP3   OH272472   3.965   1.276  15.218  0.2287 -0.1589  0.6787
16994TIP3    H172473   4.018   1.198  15.200 -0.0765 -0.6423  1.8115
16994TIP3    H272474   3.886   1.264  15.164 -0.6118 -1.5227  2.1125
16995TIP3   OH272475   1.067   3.667   4.892 -0.1942  0.5999  0.2369
16995TIP3    H172476   0.990   3.696   4.940 -0.7317 -2.0223  1.1513
16995TIP3    H272477   1.036   3.594   4.839  1.5572 -0.3176  0.3851
16996TIP3   OH272478   5.942   4.485   0.168 -0.4434  0.4858 -0.2472
16996TIP3    H172479   5.937   4.503   0.074  1.0256 -1.0305 -0.6673
16996TIP3    H272480   5.854   4.457   0.192 -0.7151  0.3982 -1.3003
16997TIP3   OH272481   2.994   5.537  12.183 -0.6746  0.4301  0.5703
16997TIP3    H172482   2.965   5.462  12.236 -0.2768 -0.2624 -0.1693
16997TIP3    H272483   2.948   5.527  12.100 -1.8289  1.8968  0.9821
16998TIP3   OH272484   1.481   0.766   0.496  0.3780 -0.1943 -0.3995
16998TIP3    H172485   1.502   0.683   0.537  0.5650  0.0011 -0.0955
16998TIP3    H272486   1.387   0.760   0.476 -0.2153  0.4527  1.8472
16999TIP3   OH272487   2.117   6.459  14.771  0.4234  0.7630  0.2962
16999TIP3    H172488   2.194   6.460  14.713 -0.7694  0.3372 -1.3633
16999TIP3    H272489   2.102   6.366  14.789 -0.8862  0.6766 -1.0789
17000TIP3   OH272490   1.243   5.621  14.325  0.2340 -0.1485 -0.4908
17000TIP3    H172491   1.238   5.712  14.297 -0.3488  0.7429  2.2608
17000TIP3    H272492   1.308   5.581  14.266  0.0251  1.8439 -2.1582
17001TIP3   OH272493   4.487   6.095  16.021  0.5963  0.1084  0.3171
17001TIP3    H172494   4.558   6.030  16.025  1.4772  0.8278 -1.8792
17001TIP3    H272495   4.423   6.057  15.960 -1.2267 -0.7292  2.6082
17002TIP3   OH272496   5.252   4.120  11.514  0.3987 -0.1973 -0.4224
17002TIP3    H172497   5.182   4.108  11.579 -0.6096  3.5318 -0.5852
17002TIP3    H272498   5.217   4.082  11.434 -0.2923 -0.7763  0.1334
17003TIP3   OH272499   0.773   0.651  17.068 -0.3096 -0.2542  0.0674
17003TIP3    H172500   0.814   0.661  17.154  1.3044 -0.1051 -0.6855
17003TIP3    H272501   0.679   0.653  17.086 -0.0207 -1.1638  1.9337
17004TIP3   OH272502   3.221   2.569  14.671  0.4099 -0.0852 -0.5372
17004TIP3    H172503   3.286   2.500  14.655  0.7375  0.0464  0.2034
17004TIP3    H272504   3.271   2.640  14.711 -0.5742 -0.9691  2.5423
17005TIP3   OH272505   6.419   5.072  14.857  0.0323  0.4184  0.2396
17005TIP3    H172506   6.406   5.030  14.771  1.5478 -0.7976  0.5565
17005TIP3    H272507   6.439   5.163  14.837 -0.6750  0.3967 -0.6330
17006TIP3   OH272508   1.466   3.131  11.155  0.6624  0.2205  0.5222
17006TIP3    H172509   1.507   3.166  11.076 -0.5785 -2.2509 -1.3627
17006TIP3    H272510   1.537   3.085  11.200  0.8556 -0.5635 -0.5555
17007TIP3   OH272511   4.311   3.414   2.382  0.1142 -0.1635 -0.2088
17007TIP3    H172512   4.362   3.478   2.332  1.5948 -0.8769  0.3233
17007TIP3    H272513   4.267   3.361   2.316  0.9915 -0.2620 -0.7264
17008TIP3   OH272514   6.066   2.637  14.525 -0.1496 -0.1087 -0.4603
17008TIP3    H172515   5.996   2.702  14.524 -1.8315 -1.7619  0.9362
17008TIP3    H272516   6.046   2.580  14.450  0.2849 -0.0137 -0.6489
17009TIP3   OH272517   0.172   5.647   3.465  0.1538  0.1987  0.5385
17009TIP3    H172518   0.143   5.627   3.554  1.2848 -0.8337  0.7050
17009TIP3    H272519   0.128   5.729   3.443 -1.5816 -0.4742  1.3490
17010TIP3   OH272520   1.551   4.042  15.139  0.1975 -0.1953  0.8831
17010TIP3    H172521   1.629   4.031  15.084  0.4182 -0.9225  1.3144
17010TIP3    H272522   1.558   3.971  15.204 -0.3475  0.3008  1.4945
17011TIP3   OH272523   5.828   6.513  12.369 -0.6348 -0.0946  0.6328
17011TIP3    H172524   5.762   6.450  12.341 -0.0908 -0.6226  0.5177
17011TIP3    H272525   5.785   6.561  12.440 -1.6081  0.4825 -0.3145
17012TIP3   OH272526   2.912   0.085  15.939 -0.0682 -0.1060 -0.2399
17012TIP3    H172527   2.846   0.135  15.987 -1.1586 -0.2423 -1.5352
17012TIP3    H272528   2.892  -0.007  15.959  0.3823 -0.1238  0.1625
17013TIP3   OH272529   2.918   4.368  12.547 -0.0463  0.4235  0.0748
17013TIP3    H172530   2.837   4.419  12.556  0.4751  1.4721 -0.9049
17013TIP3    H272531   2.917   4.309  12.622 -1.8801  0.1654 -0.0827
17014TIP3   OH272532   0.182   1.480   5.870  0.5467 -0.1849  0.2181
17014TIP3    H172533   0.206   1.569   5.895 -0.8878 -0.0490  1.1743
17014TIP3    H272534   0.118   1.452   5.935  1.4727 -2.1993  0.3664
17015TIP3   OH272535   2.337   2.410   3.979 -0.2248 -0.5128 -0.1933
17015TIP3    H172536   2.381   2.365   4.051  1.5836 -0.4256 -1.1766
17015TIP3    H272537   2.254   2.363   3.968  0.0021 -1.2797  1.1519
17016TIP3   OH272538   0.383   5.494  16.577 -0.5076 -0.3466 -0.8227
17016TIP3    H172539   0.381   5.418  16.634 -1.5453 -0.1153 -0.5357
17016TIP3    H272540   0.377   5.458  16.489  3.5715 -0.9011 -1.0649
17017TIP3   OH272541   3.965   2.517  13.067 -0.7684  0.5168  0.4617
17017TIP3    H172542   3.871   2.506  13.055 -1.0500  0.2220  2.5683
17017TIP3    H272543   3.973   2.589  13.129  0.4114  0.6477  0.1775
17018TIP3   OH272544   5.304   4.015   0.524  0.4982 -0.6767  0.0204
17018TIP3    H172545   5.297   3.973   0.610  1.6647 -2.2663 -0.6187
17018TIP3    H272546   5.387   4.062   0.527  2.0038 -3.0486 -1.1086
17019TIP3   OH272547   0.297   4.483  16.722 -0.1457 -0.0062  0.2200
17019TIP3    H172548   0.306   4.523  16.809 -0.6278  0.2308  0.1633
17019TIP3    H272549   0.204   4.463  16.715 -0.4369  1.5456 -0.9187
17020TIP3   OH272550   5.708   1.578  15.992 -0.0393 -0.0446  0.1517
17020TIP3    H172551   5.763   1.500  15.983  0.9483  0.7570 -1.1209
17020TIP3    H272552   5.680   1.599  15.903 -1.8000  0.0416  0.6700
17021TIP3   OH272553   3.169   4.559   6.134 -0.0344  0.5612  0.0232
17021TIP3    H172554   3.143   4.477   6.091  1.9479  0.6305 -1.4489
17021TIP3    H272555   3.156   4.626   6.067 -0.1711  1.2212  0.7000
17022TIP3   OH272556   4.333   6.212  15.320 -0.5004 -0.3268 -0.1175
17022TIP3    H172557   4.346   6.287  15.263  1.6000 -0.0565  0.6294
17022TIP3    H272558   4.241   6.217  15.345 -0.6015  1.5518 -0.6850
17023TIP3   OH272559   1.018   6.000   2.283  0.2617  0.0351 -0.1948
17023TIP3    H172560   1.027   6.075   2.225 -0.5556 -0.0305 -0.4154
17023TIP3    H272561   0.933   5.963   2.262  0.4197 -0.6320  0.2956
17024TIP3   OH272562   2.438   4.799  12.681  0.5387 -0.0409 -0.4502
17024TIP3    H172563   2.445   4.834  12.591 -0.9040  1.6344  0.0327
17024TIP3    H272564   2.361   4.743  12.679  0.9212 -0.5669 -0.4261
17025TIP3   OH272565   6.535   4.564   4.995 -1.0729 -0.4771 -0.5254
17025TIP3    H172566   6.532   4.553   4.900  1.7946 -1.2427 -0.6179
17025TIP3    H272567   6.577   4.649   5.008 -2.4310  0.1384  0.1229
17026TIP3   OH272568   1.600   2.750   5.986 -0.5413  0.2872 -0.4235
17026TIP3    H172569   1.673   2.802   5.953 -0.4412  0.7074  0.4355
17026TIP3    H272570   1.532   2.813   6.005 -0.9891 -0.0635 -0.8242
17027TIP3   OH272571   2.066   1.983  15.118  0.0951  0.5246  0.7367
17027TIP3    H172572   2.134   2.045  15.143  1.2709 -0.1336 -0.6974
17027TIP3    H272573   2.107   1.926  15.053 -2.1421  0.8796 -1.1564
17028TIP3   OH272574   3.630   2.971  14.569 -0.5607  0.3146  0.3966
17028TIP3    H172575   3.540   3.002  14.572 -1.0504 -1.1457  2.1893
17028TIP3    H272576   3.667   2.995  14.654  0.5911  0.3906 -0.1041
17029TIP3   OH272577   4.748   6.271   0.597 -0.6757  0.1220 -0.0933
17029TIP3    H172578   4.783   6.360   0.606  0.5780 -0.3618 -0.0458
17029TIP3    H272579   4.768   6.246   0.507  0.5409 -0.7448  0.3935
17030TIP3   OH272580   6.409   4.341   4.506  0.2475  0.0431  0.0784
17030TIP3    H172581   6.377   4.351   4.417  2.3203  2.1184 -0.5368
17030TIP3    H272582   6.502   4.321   4.496 -0.0579 -2.8553  1.7930
17031TIP3   OH272583   1.122   6.001  13.475 -0.0421 -0.0743 -0.0983
17031TIP3    H172584   1.071   5.927  13.508 -1.0849  1.2136  1.3571
17031TIP3    H272585   1.194   6.011  13.537 -0.3907  0.6180  0.2139
17032TIP3   OH272586   6.520   1.824  13.589  0.3441 -0.7584 -0.0427
17032TIP3    H172587   6.512   1.919  13.581  0.4021 -0.7194  0.3645
17032TIP3    H272588   6.596   1.811  13.646  1.3308 -1.0709 -1.3668
17033TIP3   OH272589   3.478   0.005  14.376  0.2489 -0.0789  0.0591
17033TIP3    H172590   3.447   0.039  14.460  1.0158  1.4647 -0.2364
17033TIP3    H272591   3.416   0.040  14.311  1.3841  1.3293 -0.3151
17034TIP3   OH272592   2.111   5.243  10.657 -0.1973 -0.3062  0.3129
17034TIP3    H172593   2.101   5.337  10.642 -0.6175 -0.5247 -0.9369
17034TIP3    H272594   2.028   5.216  10.696 -0.6011 -0.3725 -0.5671
17035TIP3   OH272595   1.559   1.546  14.090 -0.1916 -0.4871  0.1126
17035TIP3    H172596   1.611   1.518  14.015 -1.4857 -0.9135 -0.6668
17035TIP3    H272597   1.594   1.496  14.164  0.4609 -0.8074 -0.4027
17036TIP3   OH272598   4.191   4.125   5.653  0.1226  0.6813 -0.2662
17036TIP3    H172599   4.143   4.207   5.656 -0.9837  0.0254  1.0935
17036TIP3    H272600   4.253   4.130   5.725  0.7433  0.7158 -0.7940
17037TIP3   OH272601   2.092   2.043  16.121 -0.1332 -0.2989  0.1920
17037TIP3    H172602   2.184   2.067  16.113 -0.3503  0.2480 -0.8144
17037TIP3    H272603   2.060   2.038  16.031 -1.4195  0.7948  0.5524
17038TIP3   OH272604   1.195   0.466   5.632  0.1804 -0.2752 -0.1566
17038TIP3    H172605   1.110   0.483   5.673 -0.4908  0.3308 -1.7443
17038TIP3    H272606   1.241   0.550   5.636  1.1758 -0.8354  1.6173
17039TIP3   OH272607   2.268   4.214   5.830  0.2460  0.2200 -0.0904
17039TIP3    H172608   2.271   4.309   5.844  1.7595  0.0688  0.9070
17039TIP3    H272609   2.211   4.181   5.899 -1.2425  0.4886 -1.1584
17040TIP3   OH272610   2.519   5.127  10.800 -0.6590  0.3310 -0.0389
17040TIP3    H172611   2.539   5.045  10.845 -0.1301  1.2509  1.4655
17040TIP3    H272612   2.520   5.104  10.707 -3.0683 -1.9407  0.3682
17041TIP3   OH272613   0.368   1.404   1.523 -0.1613 -0.4997  0.0031
17041TIP3    H172614   0.444   1.461   1.535 -0.6043  0.0804  0.1141
17041TIP3    H272615   0.293   1.459   1.546 -0.7629 -0.5178 -1.7510
17042TIP3   OH272616   2.529   6.029   1.038  0.3973  0.4390  0.1135
17042TIP3    H172617   2.597   6.059   0.979  0.2037 -0.3024 -0.5130
17042TIP3    H272618   2.549   6.071   1.122  1.1342  0.8790 -0.2708
17043TIP3   OH272619   3.873   1.860  15.599 -0.9009  0.5393  0.1430
17043TIP3    H172620   3.817   1.852  15.677  0.9407  0.5870  1.5477
17043TIP3    H272621   3.820   1.823  15.528 -3.5415  2.5329  0.9091
17044TIP3   OH272622   4.391   4.961   5.564  0.5690 -0.2860  0.3162
17044TIP3    H172623   4.315   4.910   5.589  1.5635 -2.5937 -0.9821
17044TIP3    H272624   4.375   4.984   5.472  0.1381  1.8241  0.8836
17045TIP3   OH272625   2.747   6.458  10.769  0.0982  0.0889 -0.2203
17045TIP3    H172626   2.689   6.473  10.695  1.2681  1.2315 -0.9657
17045TIP3    H272627   2.725   6.527  10.832 -0.0900 -0.1462 -0.0287
17046TIP3   OH272628   3.985   0.473  16.406  0.2862 -0.6681 -0.2105
17046TIP3    H172629   3.929   0.489  16.330 -0.6332  0.0733  0.6040
17046TIP3    H272630   4.071   0.504  16.379 -0.7584  3.2505  0.2562
17047TIP3   OH272631   2.573   0.237  12.615 -0.5490  0.3040  0.0076
17047TIP3    H172632   2.485   0.205  12.633 -0.8988  1.5989  0.6847
17047TIP3    H272633   2.623   0.218  12.695  0.2970 -1.9619 -0.9576
17048TIP3   OH272634   6.793   4.915   5.972 -0.1936 -0.0544 -0.2097
17048TIP3    H172635   6.714   4.872   5.939 -0.5701  1.0536 -0.8359
17048TIP3    H272636   6.762   5.001   6.002  0.7580  0.3899 -0.4606
17049TIP3   OH272637   1.372   6.412  13.937  0.0494  0.2350 -0.5914
17049TIP3    H172638   1.434   6.399  14.008 -0.1569  0.6873 -0.3258
17049TIP3    H272639   1.295   6.361  13.962 -0.1384  0.6376 -0.3401
17050TIP3   OH272640   6.105   6.079   0.356  0.1663  0.3479  0.4412
17050TIP3    H172641   6.146   6.018   0.417 -0.7486 -1.2869 -0.5380
17050TIP3    H272642   6.031   6.115   0.405  0.5215  0.4515  0.9135
17051TIP3   OH272643   1.832   2.551  13.824 -0.3593  0.5640 -0.1230
17051TIP3    H172644   1.907   2.583  13.774 -0.0642 -0.9221 -0.6969
17051TIP3    H272645   1.767   2.526  13.757 -1.0443  1.0485  0.3416
17052TIP3   OH272646   4.393   0.091  11.670  0.5565 -0.0207  0.2818
17052TIP3    H172647   4.360   0.145  11.742  1.1132  0.0676  0.4721
17052TIP3    H272648   4.428   0.153  11.607 -0.5724 -0.0584 -0.4006
17053TIP3   OH272649   0.381   2.967  15.501  0.4870  0.0962  0.3835
17053TIP3    H172650   0.338   3.034  15.446 -1.1960 -0.2291  1.2304
17053TIP3    H272651   0.326   2.962  15.579  1.7336 -0.8594  1.2267
17054TIP3   OH272652   2.039   4.795   1.778 -0.2868  0.0419  0.0635
17054TIP3    H172653   2.130   4.772   1.765  0.3778  0.6746  2.8924
17054TIP3    H272654   1.990   4.733   1.724  1.7699  0.2934 -2.2750
17055TIP3   OH272655   0.429   1.344  11.629 -0.1955 -0.0113 -0.0604
17055TIP3    H172656   0.348   1.388  11.603 -0.1830 -0.6442 -1.2524
17055TIP3    H272657   0.425   1.341  11.725 -2.6255 -1.9143 -0.1134
17056TIP3   OH272658   6.275   2.934  12.141 -0.2836 -0.2642 -0.1502
17056TIP3    H172659   6.179   2.936  12.136 -0.2879  0.9371  0.0987
17056TIP3    H272660   6.304   2.979  12.061  0.0553  0.0206  0.1315
17057TIP3   OH272661   3.613   6.843  15.496  0.0686 -0.5345 -0.3096
17057TIP3    H172662   3.604   6.753  15.525  1.4333 -1.2825 -2.0252
17057TIP3    H272663   3.537   6.859  15.441 -0.5295 -0.3865  0.5457
17058TIP3   OH272664   5.520   2.380   5.245 -0.5297  0.5139  0.3120
17058TIP3    H172665   5.479   2.294   5.240  0.5859  0.0237 -1.2540
17058TIP3    H272666   5.485   2.427   5.169  2.7202 -0.4118 -1.9590
17059TIP3   OH272667   1.111   5.949   5.750 -0.4361 -0.2229  0.5755
17059TIP3    H172668   1.021   5.972   5.727  0.5167  1.6564 -1.6451
17059TIP3    H272669   1.131   6.005   5.825 -1.0049 -0.4393  0.9004
17060TIP3   OH272670   1.703   2.296  15.945  0.2778  0.1767  0.2062
17060TIP3    H172671   1.765   2.235  15.905 -0.5662  0.1403 -1.1081
17060TIP3    H272672   1.744   2.322  16.027  0.8182 -1.9000  0.6489
17061TIP3   OH272673   0.096   2.282  12.505  0.1232 -0.3959 -0.5460
17061TIP3    H172674   0.042   2.347  12.460  0.2054 -1.0405 -1.6234
17061TIP3    H272675   0.037   2.209  12.522 -0.1867  0.2649  1.4474
17062TIP3   OH272676   2.759   0.686   6.010  0.2794 -0.4481 -0.2206
17062TIP3    H172677   2.782   0.725   5.925 -0.2457 -0.2596 -0.2795
17062TIP3    H272678   2.678   0.638   5.994 -0.6552  0.8280  0.4928
17063TIP3   OH272679   6.009   1.822   0.131  0.2632  0.4010  0.3028
17063TIP3    H172680   6.038   1.737   0.164 -2.0481 -0.8700 -0.6592
17063TIP3    H272681   5.996   1.808   0.038 -1.4044  1.3840  0.3515
17064TIP3   OH272682   0.575   2.795   6.434 -0.2762 -0.5155 -0.0665
17064TIP3    H172683   0.558   2.704   6.408  1.2274 -0.8818  0.1474
17064TIP3    H272684   0.660   2.792   6.477  0.1123  1.1207 -0.6524
17065TIP3   OH272685   6.447   2.637  14.716  0.0536 -0.0860 -0.6230
17065TIP3    H172686   6.420   2.636  14.624  0.6539  3.2433 -0.9587
17065TIP3    H272687   6.539   2.610  14.714  0.2427  0.5513 -1.1272
17066TIP3   OH272688   3.832   4.179  16.976 -0.2155 -0.3047 -0.4368
17066TIP3    H172689   3.874   4.243  17.033  1.0881 -0.1003 -1.5885
17066TIP3    H272690   3.780   4.124  17.035  0.2633  0.5455  0.8014
17067TIP3   OH272691   3.471   0.658  12.657 -0.2804  0.4651 -0.3865
17067TIP3    H172692   3.467   0.574  12.703  1.1337 -0.1497 -1.3172
17067TIP3    H272693   3.407   0.713  12.703 -1.5415 -1.2201  0.0038
17068TIP3   OH272694   1.862   2.677   1.792  0.4636 -0.6288  0.2629
17068TIP3    H172695   1.948   2.704   1.761  0.2542 -0.0204  0.2103
17068TIP3    H272696   1.857   2.584   1.770  0.9088 -0.5502 -0.1768
17069TIP3   OH272697   3.830   6.241  16.132  0.4601 -0.3643  0.2986
17069TIP3    H172698   3.840   6.205  16.044  2.8960  0.4939  0.1591
17069TIP3    H272699   3.811   6.165  16.187  2.0920 -1.3952 -0.4920
17070TIP3   OH272700   2.953   6.752  17.113  0.0149 -0.1675 -0.0589
17070TIP3    H172701   2.921   6.837  17.082  0.0811  0.0415  0.4266
17070TIP3    H272702   2.882   6.691  17.094 -0.0755  0.0176 -0.3151
17071TIP3   OH272703   1.093   3.818   6.305 -0.1720  0.1334  0.0856
17071TIP3    H172704   1.077   3.771   6.386  0.3020 -0.8865 -0.4050
17071TIP3    H272705   1.128   3.903   6.333  0.0674 -0.2415  0.9353
17072TIP3   OH272706   6.258   3.821   2.835  0.5273 -0.1990  0.1262
17072TIP3    H172707   6.163   3.816   2.830  0.4363  1.4865 -0.2192
17072TIP3    H272708   6.287   3.817   2.744  0.8210 -0.8206  0.2351
17073TIP3   OH272709   2.597   2.695   1.806 -0.2722  0.7203  0.2123
17073TIP3    H172710   2.562   2.781   1.829 -0.4879  0.3873  1.1635
17073TIP3    H272711   2.626   2.657   1.889  3.6052  1.5002 -0.6028
17074TIP3   OH272712   6.678   4.588  12.760  0.1014  0.0909 -0.1347
17074TIP3    H172713   6.602   4.531  12.752  0.0547 -0.3638  2.7418
17074TIP3    H272714   6.754   4.529  12.762  0.3643  0.3962 -0.6113
17075TIP3   OH272715   0.760   5.810  15.651 -0.3031 -0.3965 -0.1943
17075TIP3    H172716   0.722   5.861  15.580  0.2938  0.8179  0.3303
17075TIP3    H272717   0.695   5.741  15.668 -0.5047 -0.6316 -1.8048
17076TIP3   OH272718   5.281   3.136   3.783 -0.3219  0.2605 -0.5581
17076TIP3    H172719   5.192   3.168   3.790 -0.0651  0.6186  1.8980
17076TIP3    H272720   5.328   3.205   3.737 -1.0380  0.6540 -0.6996
17077TIP3   OH272721   5.526   6.576  13.915  0.1462  0.4753  0.1504
17077TIP3    H172722   5.496   6.667  13.911 -0.1646  0.4328  1.1766
17077TIP3    H272723   5.569   6.561  13.830  3.9480  2.9069  1.3490
17078TIP3   OH272724   2.817   6.558   3.325  0.1569  0.0665 -0.2251
17078TIP3    H172725   2.761   6.547   3.401 -1.1260  1.6589 -0.8988
17078TIP3    H272726   2.766   6.522   3.252  0.2963  0.8993 -0.7381
17079TIP3   OH272727   0.965   4.619  15.221  0.0768 -0.0499  0.5824
17079TIP3    H172728   1.019   4.544  15.195 -1.4250 -1.1873  0.5470
17079TIP3    H272729   0.966   4.677  15.145 -1.2663 -1.5819 -0.6996
17080TIP3   OH272730   3.429   4.780   3.673  0.6103  0.4961  0.3776
17080TIP3    H172731   3.398   4.838   3.603 -1.7949  1.2162  1.9454
17080TIP3    H272732   3.475   4.838   3.733  0.1672  0.3878  0.8239
17081TIP3   OH272733   1.363   4.282  14.579  0.3397 -0.3071 -0.3583
17081TIP3    H172734   1.440   4.326  14.542  0.1980  0.2504 -0.0011
17081TIP3    H272735   1.338   4.219  14.512  0.7323 -0.0528 -0.7549
17082TIP3   OH272736   3.795   2.348  14.279 -0.3825 -0.2341  0.7339
17082TIP3    H172737   3.783   2.441  14.264 -0.1692 -0.3161  0.0395
17082TIP3    H272738   3.767   2.306  14.198  1.1694 -0.6490  0.3682
17083TIP3   OH272739   2.707   2.916   5.403  0.0215  0.0012 -0.4368
17083TIP3    H172740   2.721   2.841   5.460  0.4567  0.5022  0.1407
17083TIP3    H272741   2.639   2.888   5.342 -1.7860  0.0245  1.4514
17084TIP3   OH272742   3.447   3.632   3.290  0.1991 -0.0266 -0.2390
17084TIP3    H172743   3.511   3.699   3.311  0.6291 -1.1419  2.4699
17084TIP3    H272744   3.494   3.569   3.236  0.9210 -0.0397  0.3964
17085TIP3   OH272745   5.468   3.679   4.474 -0.2988  0.4443 -0.6663
17085TIP3    H172746   5.440   3.591   4.448  2.5393 -1.3619  1.7159
17085TIP3    H272747   5.404   3.705   4.541 -0.0294 -0.7696  0.0963
17086TIP3   OH272748   4.474   5.891  11.936  0.0155  0.1406 -0.6066
17086TIP3    H172749   4.435   5.934  12.013  0.5673  0.5443 -0.5481
17086TIP3    H272750   4.514   5.963  11.887  1.0666 -0.3199 -0.4416
17087TIP3   OH272751   4.078   2.366   5.042  0.1284  0.4755 -0.3881
17087TIP3    H172752   3.992   2.364   4.999 -0.6419  2.3660  0.9608
17087TIP3    H272753   4.116   2.450   5.015  2.0547 -0.7540 -1.7739
17088TIP3   OH272754   6.573   3.654  10.905 -0.4646 -0.4327 -0.2667
17088TIP3    H172755   6.611   3.603  10.834 -0.2598 -0.5130 -0.1020
17088TIP3    H272756   6.612   3.741  10.897 -0.5666 -0.3960 -0.3528
17089TIP3   OH272757   0.880   6.716   4.891  0.2190 -0.4352  0.4532
17089TIP3    H172758   0.958   6.719   4.836 -0.6083  0.2796 -0.7356
17089TIP3    H272759   0.877   6.802   4.933  0.0526 -0.4541  0.4811
17090TIP3   OH272760   6.793   1.027  11.224  0.2664 -0.5082 -0.2707
17090TIP3    H172761   6.839   1.008  11.142 -0.6752 -1.0205 -0.6904
17090TIP3    H272762   6.749   1.110  11.209  0.7283 -0.2064  0.0019
17091TIP3   OH272763   0.836   5.881   4.246  0.0371  0.1147 -0.1849
17091TIP3    H172764   0.817   5.935   4.169 -2.3625  1.2426  1.0632
17091TIP3    H272765   0.800   5.795   4.225  4.3738 -1.4089 -2.4106
17092TIP3   OH272766   2.543   6.792  14.773 -0.8075  0.5994  0.1043
17092TIP3    H172767   2.630   6.829  14.759 -0.6586 -0.3989 -1.8699
17092TIP3    H272768   2.558   6.706  14.811 -0.8979  0.1962 -0.7598
17093TIP3   OH272769   3.528   0.013   1.720 -0.3809  0.8838  0.1326
17093TIP3    H172770   3.489   0.093   1.684 -2.5146  0.1070  0.5525
17093TIP3    H272771   3.455  -0.031   1.764  1.0750 -0.5663  1.2174
17094TIP3   OH272772   4.637   5.763   4.549  0.0763  0.0513  0.0798
17094TIP3    H172773   4.664   5.782   4.639  1.2456  1.8573 -0.6016
17094TIP3    H272774   4.583   5.838   4.524 -0.3744 -0.5120 -0.6782
17095TIP3   OH272775   3.819   6.099   0.589  0.2861 -0.3981 -0.0197
17095TIP3    H172776   3.812   6.189   0.621  0.2761 -0.3864 -0.0549
17095TIP3    H272777   3.765   6.098   0.510 -0.9473 -0.8221  0.8042
17096TIP3   OH272778   3.983   4.857  16.785 -0.1590 -0.4182 -0.2211
17096TIP3    H172779   3.954   4.888  16.699 -2.1086 -1.8474 -0.1477
17096TIP3    H272780   4.011   4.767  16.769  0.6052 -0.3051  0.4478
17097TIP3   OH272781   1.314   4.205   3.014 -0.5497  0.3844  0.9614
17097TIP3    H172782   1.273   4.153   3.083  1.2665 -1.3636  0.8360
17097TIP3    H272783   1.325   4.143   2.941  1.3015  1.0028  0.6512
17098TIP3   OH272784   3.484   5.176  16.768  0.1885  0.2720 -0.1299
17098TIP3    H172785   3.433   5.255  16.788 -1.0890 -0.4634 -0.4186
17098TIP3    H272786   3.536   5.200  16.692  2.3369  1.8980  1.6855
17099TIP3   OH272787   0.015   6.028  11.949 -0.2335  0.1747  0.0237
17099TIP3    H172788   0.013   5.955  12.011  1.2314 -1.1663 -1.4266
17099TIP3    H272789   0.061   6.098  11.996 -2.4085  0.5638  1.7453
17100TIP3   OH272790   1.415   2.269  16.250  0.2763 -0.0490  0.0733
17100TIP3    H172791   1.404   2.277  16.345  2.1116 -0.3226  0.3419
17100TIP3    H272792   1.494   2.320  16.231  1.4919 -2.1962 -0.8936
17101TIP3   OH272793   4.304   4.664  11.745 -0.1901 -0.5405  0.1004
17101TIP3    H172794   4.397   4.684  11.759 -0.4490 -0.1424  1.3253
17101TIP3    H272795   4.305   4.581  11.697  0.7975 -0.4728 -0.0231
17102TIP3   OH272796   2.067   4.440   0.823 -0.0568 -0.0637  0.3724
17102TIP3    H172797   2.127   4.368   0.838 -1.2437 -1.1276  0.2005
17102TIP3    H272798   2.040   4.431   0.731 -0.8355  0.0990  0.5746
17103TIP3   OH272799   4.723   1.501  15.450  0.0740  0.4340  0.1851
17103TIP3    H172800   4.777   1.541  15.519  0.9192  1.1925 -0.8857
17103TIP3    H272801   4.735   1.407  15.463 -0.2295  0.5367  1.4084
17104TIP3   OH272802   2.378   2.990   4.436  0.0382  0.5485 -0.2462
17104TIP3    H172803   2.356   2.943   4.355  0.9914  0.1725 -0.2928
17104TIP3    H272804   2.433   2.929   4.485 -2.0662 -0.0375  1.5892
17105TIP3   OH272805   3.604   5.953  14.598 -0.3217  0.2808  0.0555
17105TIP3    H172806   3.555   6.009  14.659  1.9492  1.9121  0.5337
17105TIP3    H272807   3.665   5.905  14.654 -0.8184 -1.1515 -0.5897
17106TIP3   OH272808   6.662   3.996   3.129  0.2212  0.3646 -0.4292
17106TIP3    H172809   6.729   3.997   3.198  1.5901  0.2760 -1.6922
17106TIP3    H272810   6.583   4.029   3.172  0.5881 -1.1398  1.5670
17107TIP3   OH272811   2.350   1.166   1.622  0.0611 -0.5006 -0.3204
17107TIP3    H172812   2.439   1.161   1.656  0.5260  0.7988 -1.2711
17107TIP3    H272813   2.302   1.216   1.688  0.4527  0.2314 -0.5827
17108TIP3   OH272814   3.961   5.124   0.029 -0.1215  0.2979 -0.3269
17108TIP3    H172815   4.003   5.210   0.026  0.7085 -0.1230 -1.6025
17108TIP3    H272816   3.954   5.104   0.123 -2.2330  2.6188  0.1254
17109TIP3   OH272817   1.110   4.763   1.519  0.0688  0.4457  0.3250
17109TIP3    H172818   1.018   4.789   1.521 -0.3971 -0.9959 -0.4910
17109TIP3    H272819   1.112   4.686   1.462  1.6243 -0.2042  1.1769
17110TIP3   OH272820   2.030   6.703   3.860 -0.5121 -0.2677  0.1076
17110TIP3    H172821   2.059   6.670   3.776 -2.5012 -2.3476  0.1642
17110TIP3    H272822   2.057   6.795   3.860  0.3280 -0.4469 -2.3844
17111TIP3   OH272823   3.827   0.235  10.930  0.0860  0.1203  0.1923
17111TIP3    H172824   3.806   0.328  10.937 -1.4058 -0.1871  0.1316
17111TIP3    H272825   3.905   0.224  10.986  0.8768  1.5558 -0.5682
17112TIP3   OH272826   2.540   6.224  14.856 -0.4194  0.1844 -0.0788
17112TIP3    H172827   2.612   6.240  14.794  0.3965 -0.0844  0.7861
17112TIP3    H272828   2.500   6.143  14.826  0.6130 -0.4914  0.3146
17113TIP3   OH272829   5.360   1.960   0.486 -0.4784 -0.1911 -0.3404
17113TIP3    H172830   5.297   1.989   0.420 -0.4931  0.5491 -0.0169
17113TIP3    H272831   5.308   1.954   0.567  0.0996  1.6932  0.2197
17114TIP3   OH272832   1.055   4.864  15.838  0.3497  0.2351  0.2972
17114TIP3    H172833   0.980   4.920  15.858 -0.3324 -0.4540 -0.3060
17114TIP3    H272834   1.055   4.797  15.906 -0.2004 -0.3636 -0.2805
17115TIP3   OH272835   6.648   1.669  15.193  0.6716 -0.1092  0.0003
17115TIP3    H172836   6.596   1.616  15.253 -0.0646 -0.0356 -0.5504
17115TIP3    H272837   6.592   1.680  15.116  2.6289 -2.5958 -1.9519
17116TIP3   OH272838   6.339   3.796   1.644  0.2801 -0.1563  0.1969
17116TIP3    H172839   6.273   3.745   1.691 -0.6035 -0.0886 -0.9399
17116TIP3    H272840   6.301   3.884   1.637  1.2446  0.3478  1.0322
17117TIP3   OH272841   0.488   4.617   1.539  0.1510 -0.1116 -0.5001
17117TIP3    H172842   0.479   4.712   1.541 -2.4155 -0.2099 -2.5511
17117TIP3    H272843   0.436   4.589   1.464  1.7177 -3.0855 -0.6361
17118TIP3   OH272844   0.658   4.543  15.132 -0.5270 -0.6442 -0.0697
17118TIP3    H172845   0.715   4.468  15.116  0.1556  0.0532 -0.9771
17118TIP3    H272846   0.644   4.542  15.227  1.2499 -0.6618  0.2324
17119TIP3   OH272847   0.202   6.708  14.574  0.0863  0.2768 -0.7999
17119TIP3    H172848   0.148   6.632  14.596 -0.2159  0.6727 -0.1469
17119TIP3    H272849   0.152   6.754  14.506 -2.1094  2.4186  2.0064
17120TIP3   OH272850   4.135   6.491  11.459 -0.0137  0.1487  0.3938
17120TIP3    H172851   4.143   6.576  11.414  0.8888  0.3007  0.8087
17120TIP3    H272852   4.042   6.482  11.476 -0.1135  1.1121  0.4326
17121TIP3   OH272853   5.450   1.404  11.001 -0.2200 -0.6736 -0.1544
17121TIP3    H172854   5.424   1.385  10.911  0.8723 -1.0926 -0.3967
17121TIP3    H272855   5.477   1.496  11.000  0.6381 -0.9198 -0.4709
17122TIP3   OH272856   1.585   1.002  11.251 -0.1510 -0.2689  0.3660
17122TIP3    H172857   1.636   0.947  11.191  1.2561  0.2165  1.0649
17122TIP3    H272858   1.555   0.941  11.318  0.4202 -0.3988  0.5139
17123TIP3   OH272859   4.681   6.074  12.186 -0.4560  0.5570  0.3960
17123TIP3    H172860   4.628   6.020  12.127 -1.4275  1.7720  0.1249
17123TIP3    H272861   4.630   6.153  12.199  1.4371  1.9533 -0.1521
17124TIP3   OH272862   1.301   2.357   2.806  0.6353  0.1163 -1.0620
17124TIP3    H172863   1.383   2.388   2.843  0.4004  0.3940 -0.7719
17124TIP3    H272864   1.301   2.388   2.715  0.7094  0.3808 -0.9708
17125TIP3   OH272865   6.168   5.979   6.380  0.6133  0.4775 -0.1681
17125TIP3    H172866   6.236   5.915   6.357  0.8264  1.2012 -1.6625
17125TIP3    H272867   6.140   6.015   6.297 -1.1640  0.6815  0.4801
17126TIP3   OH272868   0.785   2.293  10.768 -0.8201  1.0408 -0.1940
17126TIP3    H172869   0.803   2.307  10.675 -0.8625  2.5458 -0.0089
17126TIP3    H272870   0.867   2.259  10.803 -0.4592  1.4915 -0.5861
17127TIP3   OH272871   3.623   1.184   3.998  0.3675 -0.5545  0.0831
17127TIP3    H172872   3.684   1.219   4.063  0.2948 -2.0629  1.0166
17127TIP3    H272873   3.567   1.123   4.047  1.4644 -3.1491 -1.6571
17128TIP3   OH272874   2.498   5.795   0.899 -0.1667  0.6828 -0.0983
17128TIP3    H172875   2.506   5.727   0.967 -1.6454  0.2531 -0.3196
17128TIP3    H272876   2.476   5.875   0.948  0.4562  0.7621  0.0631
17129TIP3   OH272877   2.322   2.039  16.788  0.1841  0.4929 -0.1963
17129TIP3    H172878   2.245   2.002  16.743  0.0665  0.7225 -0.1856
17129TIP3    H272879   2.339   1.978  16.860  0.3189  0.1716 -0.4974
17130TIP3   OH272880   4.926   0.920  11.829  0.2833 -0.1886 -0.1379
17130TIP3    H172881   4.919   1.002  11.780 -1.3952  0.1488  0.6195
17130TIP3    H272882   4.891   0.853  11.770 -0.3795 -0.0116  0.0507
17131TIP3   OH272883   4.873   1.567   2.368  0.3270 -0.2991  0.0946
17131TIP3    H172884   4.842   1.551   2.279 -2.3455  1.1010  0.6817
17131TIP3    H272885   4.828   1.502   2.422  2.2232 -1.3912  0.4529
17132TIP3   OH272886   6.740   1.423   1.536 -0.2902 -0.3439  0.3327
17132TIP3    H172887   6.751   1.469   1.452 -0.5084 -0.7865  0.0577
17132TIP3    H272888   6.774   1.484   1.601 -0.5689  0.2096 -0.0304
17133TIP3   OH272889   4.187   3.004  16.802  0.5238  0.5741  0.1284
17133TIP3    H172890   4.120   2.992  16.868  1.0382 -1.6570  0.3147
17133TIP3    H272891   4.258   2.946  16.828  1.7325  1.4248 -1.1014
17134TIP3   OH272892   4.118   0.551   2.550  0.8036  0.1272 -0.6718
17134TIP3    H172893   4.131   0.596   2.634  0.8268 -1.6444  0.3168
17134TIP3    H272894   4.206   0.528   2.522  0.6664 -2.4455  0.6843
17135TIP3   OH272895   2.241   4.824  16.033  0.0085 -0.2224 -0.2564
17135TIP3    H172896   2.262   4.850  16.123 -1.9785 -0.6505  0.4005
17135TIP3    H272897   2.316   4.772  16.004  0.6393 -0.1729  1.2055
17136TIP3   OH272898   3.690   6.107  15.270  0.1738  0.2138  0.0127
17136TIP3    H172899   3.681   6.043  15.340  2.2504 -1.5187 -1.1769
17136TIP3    H272900   3.705   6.054  15.191 -0.0645  2.1437 -1.3985
17137TIP3   OH272901   3.649   5.154  15.973  0.3117 -0.1715 -0.5811
17137TIP3    H172902   3.600   5.110  15.903 -0.3101  0.6000 -0.6422
17137TIP3    H272903   3.732   5.107  15.977  0.5922  0.1010 -2.2393
17138TIP3   OH272904   6.058   5.259   6.103  0.2644 -0.3524 -0.1953
17138TIP3    H172905   6.063   5.250   6.199 -1.0738 -3.0451 -0.2714
17138TIP3    H272906   5.976   5.216   6.079  0.4348  0.4932 -2.5650
17139TIP3   OH272907   4.951   0.497  13.565  0.4300 -0.3459  0.8160
17139TIP3    H172908   5.041   0.498  13.533 -0.5171 -1.0662 -2.1451
17139TIP3    H272909   4.942   0.580  13.612  2.2460  0.3739 -0.0095
17140TIP3   OH272910   2.195   3.420  10.921 -0.2483 -0.6304  0.0260
17140TIP3    H172911   2.255   3.386  10.988  0.3990  2.0967  0.9702
17140TIP3    H272912   2.200   3.516  10.930 -0.8174 -0.1451 -3.3627
17141TIP3   OH272913   0.865   1.834   5.422  0.2956  0.2566  0.0598
17141TIP3    H172914   0.920   1.861   5.349 -0.4214 -1.7450 -1.3087
17141TIP3    H272915   0.928   1.807   5.490  1.0408 -0.7953 -0.9970
17142TIP3   OH272916   4.642   3.096   1.382  0.3252 -0.6493 -0.0442
17142TIP3    H172917   4.564   3.053   1.418  0.4583 -2.1697 -1.4259
17142TIP3    H272918   4.712   3.075   1.444 -0.0900 -0.3956  0.5197
17143TIP3   OH272919   2.167   5.058  14.059  0.3201 -0.2987 -0.1183
17143TIP3    H172920   2.080   5.020  14.044  0.1316  0.0391  0.1144
17143TIP3    H272921   2.197   5.083  13.971  1.8743 -3.9788 -0.8108
17144TIP3   OH272922   6.104   0.441  16.740  0.7358  0.5598 -0.2159
17144TIP3    H172923   6.068   0.376  16.680  1.5592  0.2705 -0.4143
17144TIP3    H272924   6.111   0.396  16.823 -1.2407  1.2241  0.3601
17145TIP3   OH272925   0.579   6.661  11.918 -0.5933 -0.1241  0.2355
17145TIP3    H172926   0.498   6.616  11.943  0.1467  0.0056  3.1391
17145TIP3    H272927   0.628   6.670  11.999  1.8868  0.7958 -1.2550
17146TIP3   OH272928   5.745   3.036   5.024 -0.0090  0.0241  0.5775
17146TIP3    H172929   5.801   3.095   5.075  0.9997 -0.0505 -0.4018
17146TIP3    H272930   5.686   2.997   5.089  1.2727 -0.1152  1.7153
17147TIP3   OH272931   5.064   5.281   3.740  0.0180 -0.0407  0.1495
17147TIP3    H172932   5.012   5.346   3.694  1.3407  1.9381  1.3268
17147TIP3    H272933   5.120   5.244   3.671 -1.9486 -1.2919 -0.8698
17148TIP3   OH272934   2.551   2.367  15.541 -0.5210 -0.4455  0.2501
17148TIP3    H172935   2.457   2.349  15.539 -0.6839  0.2176  1.4331
17148TIP3    H272936   2.584   2.325  15.462 -1.8971 -0.1917 -0.4978
17149TIP3   OH272937   4.798   5.411   4.261  0.0357 -0.2443  0.3054
17149TIP3    H172938   4.743   5.437   4.335 -3.5603 -0.4229 -2.0289
17149TIP3    H272939   4.758   5.330   4.228  3.3762 -1.9096 -0.0817
17150TIP3   OH272940   2.790   1.270  11.577 -0.0187 -0.4844  0.1492
17150TIP3    H172941   2.801   1.295  11.485  0.7690 -0.5107  0.2297
17150TIP3    H272942   2.696   1.269  11.590 -0.2278 -2.1602 -1.1184
17151TIP3   OH272943   6.474   1.712  15.482  0.3777  0.1162  0.2003
17151TIP3    H172944   6.449   1.781  15.543  0.1033 -1.3620  1.8668
17151TIP3    H272945   6.567   1.698  15.498  0.2521 -0.4436  0.5044
17152TIP3   OH272946   1.857   4.076   0.742  0.3707 -0.5252  0.3322
17152TIP3    H172947   1.811   4.054   0.661  0.5127 -1.8813  0.5898
17152TIP3    H272948   1.947   4.092   0.714  1.2041 -4.0135  0.4506
17153TIP3   OH272949   6.535   5.898   0.047  0.0373  0.6356 -0.5110
17153TIP3    H172950   6.598   5.968   0.026  0.2941  0.4836 -0.2558
17153TIP3    H272951   6.581   5.844   0.111 -0.5857  0.8596  0.1256
17154TIP3   OH272952   3.202   0.409   1.327 -0.1139 -0.0011  0.0736
17154TIP3    H172953   3.189   0.332   1.273  0.7222  0.0081 -0.1495
17154TIP3    H272954   3.225   0.374   1.414  2.1204 -0.0438 -0.4726
17155TIP3   OH272955   5.054   0.114  16.163 -0.1301  0.2735  0.3919
17155TIP3    H172956   4.986   0.050  16.184 -0.8523  0.5270 -1.0811
17155TIP3    H272957   5.018   0.164  16.090  1.7974  0.1581 -0.6925
17156TIP3   OH272958   3.230   5.921  14.806  0.3086 -0.4528 -0.3803
17156TIP3    H172959   3.149   5.957  14.842  0.7961 -0.4522  0.7409
17156TIP3    H272960   3.245   5.972  14.726  0.6542  1.4579  0.8503
17157TIP3   OH272961   3.362   2.406   4.323 -0.5391 -0.6853 -0.4484
17157TIP3    H172962   3.284   2.432   4.372 -0.3705  1.4899 -1.2577
17157TIP3    H272963   3.333   2.329   4.273 -2.4767  0.5819 -1.4269
17158TIP3   OH272964   5.637   2.199  13.833 -0.3771  0.1394  0.3152
17158TIP3    H172965   5.633   2.214  13.739  0.3674 -1.2078  0.0385
17158TIP3    H272966   5.644   2.286  13.871  0.8155  0.6507 -0.9794
17159TIP3   OH272967   6.211   4.422   3.470 -0.1763 -0.0176 -0.0418
17159TIP3    H172968   6.189   4.345   3.418  2.0829  0.4162 -1.8207
17159TIP3    H272969   6.270   4.389   3.537 -0.6558 -0.0920  0.3511
17160TIP3   OH272970   4.440   0.136  12.145  0.2493  0.6433  0.5993
17160TIP3    H172971   4.417   0.204  12.082  0.0056 -0.3122 -0.3600
17160TIP3    H272972   4.487   0.070  12.094 -3.0114 -1.9324  0.5401
17161TIP3   OH272973   0.399   1.581  12.504  0.4059  0.3250  0.3587
17161TIP3    H172974   0.390   1.662  12.453  0.4211  0.7172  0.9714
17161TIP3    H272975   0.371   1.512  12.444  2.6290  0.5014 -1.0074
17162TIP3   OH272976   5.062   6.151  17.103  0.5776  0.1769 -0.2613
17162TIP3    H172977   5.154   6.133  17.085  0.4773 -0.1139 -0.4862
17162TIP3    H272978   5.056   6.149  17.199  1.0287  1.3525 -0.1959
17163TIP3   OH272979   4.426   1.109  11.461  0.2566  0.1488  0.2571
17163TIP3    H172980   4.445   1.174  11.529  1.5108  2.4313 -2.0826
17163TIP3    H272981   4.509   1.098  11.414 -0.7439 -0.6532 -1.4309
17164TIP3   OH272982   0.607   4.645   0.339 -0.5599  0.3030 -0.0579
17164TIP3    H172983   0.578   4.617   0.252 -1.7065  1.2141  0.0045
17164TIP3    H272984   0.628   4.564   0.385 -1.7817 -0.3276 -0.5653
17165TIP3   OH272985   3.905   6.825   2.368 -0.0371  0.2025 -0.4499
17165TIP3    H172986   3.951   6.741   2.371 -1.1733 -0.4417 -0.7052
17165TIP3    H272987   3.834   6.816   2.432 -0.0481  1.0522 -0.3266
17166TIP3   OH272988   5.237   6.702  16.792  0.2081 -0.6099  0.1631
17166TIP3    H172989   5.152   6.660  16.802  0.3494 -0.7983  0.5873
17166TIP3    H272990   5.279   6.693  16.877  0.4061  0.0333  0.1388
17167TIP3   OH272991   0.592   1.560  10.960  0.0277  0.1536  0.4324
17167TIP3    H172992   0.671   1.612  10.976  0.4647 -0.4541  0.2790
17167TIP3    H272993   0.570   1.578  10.869  0.4455 -0.2791  0.2417
17168TIP3   OH272994   4.424   2.804   2.889  0.4768  0.1326 -0.2234
17168TIP3    H172995   4.417   2.714   2.856  0.5709 -0.1409  0.4970
17168TIP3    H272996   4.460   2.795   2.977  1.3250  0.9352 -0.4773
17169TIP3   OH272997   0.304   0.082  12.848  0.2624  0.0691 -0.2803
17169TIP3    H172998   0.338   0.167  12.876 -0.5389 -0.1041  1.2937
17169TIP3    H272999   0.226   0.068  12.901 -0.7192 -0.7919 -1.8723
17170TIP3   OH273000   1.836   2.096  12.222  0.0145  0.2915 -0.4680
17170TIP3    H173001   1.822   2.108  12.128 -1.7936  0.1188 -0.2639
17170TIP3    H273002   1.860   2.182  12.255  0.1655  0.4626 -1.0234
17171TIP3   OH273003   0.999   3.427  13.270 -0.1358 -0.1475  0.5569
17171TIP3    H173004   0.973   3.334  13.271 -1.3999  0.1455 -1.0455
17171TIP3    H273005   0.946   3.467  13.339  0.8349 -0.6858  1.6517
17172TIP3   OH273006   6.713   4.890   3.717  0.2160 -0.6240  0.4215
17172TIP3    H173007   6.749   4.819   3.665 -1.8197 -0.8476 -0.8125
17172TIP3    H273008   6.689   4.850   3.801 -0.8548 -1.4339 -0.2421
17173TIP3   OH273009   2.530   0.859   6.127  0.0869 -0.2005 -0.3269
17173TIP3    H173010   2.623   0.842   6.112  0.5187  1.5324  0.2309
17173TIP3    H273011   2.496   0.776   6.161  1.3794 -0.8990 -0.6550
17174TIP3   OH273012   2.986   5.312   1.776 -0.0307 -0.1027 -0.0238
17174TIP3    H173013   2.975   5.341   1.685  0.3462  0.6361  0.1577
17174TIP3    H273014   2.898   5.311   1.812 -0.4046 -2.0802 -0.8794
17175TIP3   OH273015   3.913   5.918  15.373  0.2627 -0.1334 -0.0467
17175TIP3    H173016   3.848   5.853  15.346  1.1063 -1.8608  1.7586
17175TIP3    H273017   3.943   5.958  15.292 -0.9845 -1.3245 -1.1505
17176TIP3   OH273018   0.671   1.355   0.051  0.2716  0.1144  0.4884
17176TIP3    H173019   0.689   1.446   0.076 -0.4624  0.8728 -1.5808
17176TIP3    H273020   0.745   1.331  -0.005  0.0677 -0.3167  0.4071
17177TIP3   OH273021   4.317   2.439  15.408 -0.7260 -0.2642 -0.2424
17177TIP3    H173022   4.259   2.514  15.401  0.1079  0.2406 -2.8568
17177TIP3    H273023   4.270   2.368  15.364  0.5304  0.1558 -2.4079
17178TIP3   OH273024   5.707   2.659  15.765  0.0213  0.0968  0.0935
17178TIP3    H173025   5.773   2.712  15.808 -1.2320  4.3844 -2.6318
17178TIP3    H273026   5.626   2.676  15.814 -0.0282 -1.2798  0.5485
17179TIP3   OH273027   6.304   1.740  13.711  0.5025 -0.6127 -0.8514
17179TIP3    H173028   6.385   1.759  13.665  0.4589  0.8343 -0.3823
17179TIP3    H273029   6.332   1.696  13.791  1.0002  1.2087  0.0388
17180TIP3   OH273030   2.941   6.023  12.742 -0.0182 -0.2934 -0.1773
17180TIP3    H173031   2.970   6.095  12.799  0.3309 -0.1652 -0.5078
17180TIP3    H273032   2.898   6.067  12.669 -1.1390 -0.4860  0.3470
17181TIP3   OH273033   0.699   1.858  11.831 -0.4159 -0.0051  0.1049
17181TIP3    H173034   0.705   1.935  11.775  0.7737  0.0756  0.3208
17181TIP3    H273035   0.633   1.880  11.896  0.5113  1.1712  0.6758
17182TIP3   OH273036   1.845   0.217  15.397 -0.6079 -0.7315  0.9246
17182TIP3    H173037   1.833   0.146  15.334 -2.5746 -1.3188  1.9144
17182TIP3    H273038   1.844   0.297  15.343 -0.5165 -1.3040  0.0506
17183TIP3   OH273039   2.314   4.055   3.480  0.1955  0.3932 -0.0912
17183TIP3    H173040   2.365   4.070   3.401  1.3648 -1.7963  0.1691
17183TIP3    H273041   2.274   3.969   3.467 -1.1320  0.8194  0.9156
17184TIP3   OH273042   1.443   1.277   3.773  0.4407 -0.2049 -0.3297
17184TIP3    H173043   1.486   1.362   3.768  0.1163  0.0515  0.9001
17184TIP3    H273044   1.475   1.238   3.854  1.9679 -2.0700 -1.7325
17185TIP3   OH273045   3.642   6.771   5.515  0.0368  0.0185 -0.3490
17185TIP3    H173046   3.581   6.757   5.587 -0.8426  0.3646 -1.0159
17185TIP3    H273047   3.717   6.715   5.537  0.4010  1.1630  1.5184
17186TIP3   OH273048   3.562   0.040   1.218 -0.2790  0.3829 -0.0039
17186TIP3    H173049   3.558  -0.029   1.284 -0.9790 -0.4094 -0.8526
17186TIP3    H273050   3.477   0.038   1.175 -0.4106  1.9651  0.1211
17187TIP3   OH273051   6.616   1.149  14.060  0.1377  0.1563  0.2428
17187TIP3    H173052   6.644   1.175  13.972  0.1127  1.0057  0.4770
17187TIP3    H273053   6.521   1.137  14.052 -0.0684  1.5388  0.4527
17188TIP3   OH273054   6.227   0.562   4.814 -0.4256  0.0662  0.0970
17188TIP3    H173055   6.229   0.658   4.806 -1.4271  0.1364  0.5308
17188TIP3    H273056   6.150   0.544   4.868 -0.1128 -0.9789  0.2201
17189TIP3   OH273057   5.222   1.317   3.999  0.1949  0.2455 -0.3783
17189TIP3    H173058   5.275   1.297   4.076  1.2645  1.6639 -0.7037
17189TIP3    H273059   5.185   1.403   4.017 -0.9495 -0.1595 -0.7293
17190TIP3   OH273060   4.179   6.427   2.223  0.5624 -0.3002 -0.3421
17190TIP3    H173061   4.257   6.377   2.244 -0.7470 -1.7883  1.2597
17190TIP3    H273062   4.107   6.375   2.258 -1.1835  0.9320 -1.9034
17191TIP3   OH273063   2.832   4.255  17.059 -0.0213  0.3850 -0.4401
17191TIP3    H173064   2.807   4.164  17.048 -3.1779  1.1126 -0.1983
17191TIP3    H273065   2.865   4.261  17.149  0.9961 -0.6351 -0.7319
17192TIP3   OH273066   6.166   0.808  16.274  0.1189 -0.1937  0.2672
17192TIP3    H173067   6.207   0.881  16.320 -0.1232  0.1929 -0.1317
17192TIP3    H273068   6.158   0.838  16.184 -1.4583 -0.1003  0.4217
17193TIP3   OH273069   1.076   6.697   4.719  0.1606  0.1931 -0.1801
17193TIP3    H173070   1.155   6.750   4.705 -0.1763  0.6912 -0.2005
17193TIP3    H273071   1.089   6.620   4.662 -1.0881  2.0643 -3.2213
17194TIP3   OH273072   4.172   6.339  12.005  0.0164  0.0502  0.7358
17194TIP3    H173073   4.127   6.325  12.089 -0.2790  0.2081  0.6057
17194TIP3    H273074   4.145   6.427  11.978 -0.0077 -0.0606  0.4019
17195TIP3   OH273075   3.083   1.543  15.570 -0.4090 -0.3482 -0.3484
17195TIP3    H173076   3.067   1.637  15.579 -0.8502 -0.6287  3.2343
17195TIP3    H273077   3.109   1.514  15.658 -0.0604 -3.5411 -1.3709
17196TIP3   OH273078   6.520   2.030   5.607  0.2970 -0.0528  0.4234
17196TIP3    H173079   6.504   2.034   5.701 -0.8450 -1.9986  0.3605
17196TIP3    H273080   6.596   1.972   5.598 -0.4496 -1.0054  0.1055
17197TIP3   OH273081   0.203   2.575   1.314 -0.6047  0.0257 -0.1325
17197TIP3    H173082   0.272   2.564   1.249 -0.1924 -0.1572  0.3331
17197TIP3    H273083   0.140   2.635   1.273 -0.8055 -0.8031 -1.0577
17198TIP3   OH273084   1.113   0.185   3.277 -0.1238 -0.3573  0.2368
17198TIP3    H173085   1.191   0.174   3.223  0.4359  1.1295  0.7203
17198TIP3    H273086   1.146   0.207   3.364 -1.0674  1.9231  0.0730
17199TIP3   OH273087   5.419   0.491  16.226  0.2334  0.2502 -0.2968
17199TIP3    H173088   5.352   0.554  16.198  0.5354 -0.4719 -2.8584
17199TIP3    H273089   5.480   0.544  16.279  0.0278  1.9474 -1.6585
17200TIP3   OH273090   0.211   4.975   0.114 -0.0992  1.2517 -0.2131
17200TIP3    H173091   0.140   4.997   0.053 -1.4218 -0.5696  0.5541
17200TIP3    H273092   0.172   4.988   0.200  0.0449 -0.9083  0.2306
17201TIP3   OH273093   3.777   6.435   3.624  0.0139  0.2082  0.0967
17201TIP3    H173094   3.835   6.509   3.610 -1.7802  2.1900  2.3028
17201TIP3    H273095   3.778   6.421   3.719  0.4241 -2.8059 -0.2271
17202TIP3   OH273096   2.659   6.216   2.581  0.7809 -0.1431  0.4592
17202TIP3    H173097   2.634   6.211   2.673  1.4530  0.3902  0.6817
17202TIP3    H273098   2.616   6.141   2.540 -3.4802  2.1128  0.2086
17203TIP3   OH273099   3.724   5.406   3.568  0.4268  0.2075 -0.4236
17203TIP3    H173100   3.633   5.378   3.571 -0.1862  1.1967 -4.1520
17203TIP3    H273101   3.775   5.325   3.566 -0.6912 -0.5066 -2.0974
17204TIP3   OH273102   6.241   2.720   1.534 -0.0141 -0.1446 -0.2462
17204TIP3    H173103   6.152   2.707   1.503 -0.1041 -1.7927  0.5910
17204TIP3    H273104   6.297   2.682   1.466 -0.0579 -0.9625  0.1709
17205TIP3   OH273105   5.944   0.392   1.537  0.1273 -0.0111 -0.1471
17205TIP3    H173106   5.851   0.385   1.559 -0.1957 -0.7076 -1.5915
17205TIP3    H273107   5.989   0.387   1.621 -1.0280 -1.9002  0.4157
17206TIP3   OH273108   1.825   5.399   1.224 -0.0800  0.1757 -0.1136
17206TIP3    H173109   1.898   5.408   1.162  0.4202 -1.6351  0.1410
17206TIP3    H273110   1.751   5.443   1.181  0.7335  0.6080 -1.1248
17207TIP3   OH273111   4.127   2.770   2.103  0.5071  0.2813  0.3426
17207TIP3    H173112   4.042   2.726   2.108  1.3015 -1.4694 -0.5324
17207TIP3    H273113   4.189   2.699   2.090  1.7879  1.7560 -2.1811
17208TIP3   OH273114   4.681   4.898   4.381 -0.3717 -0.2163  0.3295
17208TIP3    H173115   4.588   4.887   4.397 -0.8867 -0.5388 -2.4751
17208TIP3    H273116   4.706   4.821   4.330  1.2370  0.3214  0.2368
17209TIP3   OH273117   6.499   2.709  16.778  0.7584  0.0335  0.1401
17209TIP3    H173118   6.469   2.737  16.864 -0.7986  0.3455 -0.4717
17209TIP3    H273119   6.544   2.626  16.794  1.2286  0.5121  1.3526
17210TIP3   OH273120   5.946   5.104   4.048 -0.4837 -0.8426  0.1360
17210TIP3    H173121   5.860   5.063   4.040 -1.4342  1.2509 -1.4346
17210TIP3    H273122   5.928   5.189   4.090  1.0805 -1.0153  1.2618
17211TIP3   OH273123   6.518   0.671   3.719  0.6988 -0.0066 -0.5988
17211TIP3    H173124   6.522   0.668   3.814 -0.2141  0.0126 -0.5515
17211TIP3    H273125   6.454   0.739   3.700  0.6779 -0.1965 -1.2228
17212TIP3   OH273126   4.102   4.741   5.210  0.8734  0.2208  0.4518
17212TIP3    H173127   4.162   4.730   5.136 -1.9409 -0.3194 -1.9757
17212TIP3    H273128   4.089   4.652   5.243 -0.2864 -0.0259 -0.5804
17213TIP3   OH273129   5.931   2.774   3.297  0.0322 -0.0422 -0.2455
17213TIP3    H173130   5.848   2.731   3.317  0.3260 -0.9049 -0.8172
17213TIP3    H273131   5.907   2.862   3.270 -0.6874 -0.2387 -0.2684
17214TIP3   OH273132   6.326   6.338  13.872 -0.1660 -0.5847 -0.3762
17214TIP3    H173133   6.232   6.356  13.878  0.0702  0.3838  0.9215
17214TIP3    H273134   6.331   6.250  13.837 -1.6165 -1.1797  0.7684
17215TIP3   OH273135   4.169   2.519  12.070 -0.1487 -0.6670 -0.1210
17215TIP3    H173136   4.260   2.524  12.041 -0.0439 -0.9221  0.1568
17215TIP3    H273137   4.142   2.429  12.050  0.5248 -1.4746  2.2903
17216TIP3   OH273138   1.054   0.561   5.986 -0.4206  0.5665 -0.1291
17216TIP3    H173139   1.028   0.479   5.943  0.7489  0.6282 -0.9860
17216TIP3    H273140   1.072   0.536   6.077  0.8905 -0.3331 -0.6128
17217TIP3   OH273141   4.860   1.336  14.945  0.3547  0.5477  0.5334
17217TIP3    H173142   4.853   1.388  15.025 -0.9787  0.5460  0.4438
17217TIP3    H273143   4.807   1.258  14.963 -1.2989  1.2625 -0.8793
17218TIP3   OH273144   6.331   3.038   3.543 -0.3597 -0.1185 -0.0270
17218TIP3    H173145   6.260   2.985   3.508  0.4822 -1.6911  0.5367
17218TIP3    H273146   6.404   3.024   3.483 -1.0202  3.1369 -1.8011
17219TIP3   OH273147   2.899   0.657  14.712  0.2913  0.1764  0.4736
17219TIP3    H173148   2.841   0.629  14.783  0.3708 -0.0404  0.4532
17219TIP3    H273149   2.975   0.600  14.719 -0.0876 -0.4630 -0.3387
17220TIP3   OH273150   4.244   5.225  12.848  0.4901 -0.2961 -0.5416
17220TIP3    H173151   4.261   5.308  12.805  0.1914 -0.6584 -1.3744
17220TIP3    H273152   4.193   5.248  12.926 -0.3842  0.2127 -1.2564
17221TIP3   OH273153   5.061   4.039   1.298  0.2503 -0.6024  0.4871
17221TIP3    H173154   4.994   4.056   1.232 -0.9776  0.0028  1.8355
17221TIP3    H273155   5.066   4.120   1.349  1.3318 -0.9741  1.0087
17222TIP3   OH273156   3.676   5.554   2.328  0.4580  0.2206  0.0977
17222TIP3    H173157   3.702   5.632   2.279 -0.6855  0.5018 -0.0857
17222TIP3    H273158   3.644   5.588   2.412 -0.7761  0.0288 -0.2821
17223TIP3   OH273159   1.309   2.423  16.070  0.0629 -0.0565 -0.2156
17223TIP3    H173160   1.330   2.393  15.982  1.2786  0.1679 -0.0176
17223TIP3    H273161   1.329   2.349  16.127  1.3722  0.4966  0.0856
17224TIP3   OH273162   5.750   0.810  12.230  0.0360 -0.0680  0.6087
17224TIP3    H173163   5.839   0.843  12.218  0.5859 -1.2560  1.2372
17224TIP3    H273164   5.738   0.746  12.160 -1.1798  1.7011 -0.8666
17225TIP3   OH273165   1.661   4.887   3.181 -0.0172  0.0901 -0.3477
17225TIP3    H173166   1.588   4.826   3.166  0.4512 -0.1267 -1.8742
17225TIP3    H273167   1.659   4.903   3.276 -0.7122 -1.5765 -0.0427
17226TIP3   OH273168   0.737   0.198  16.208 -0.5361  0.1895  0.1029
17226TIP3    H173169   0.820   0.175  16.167  0.6864  0.6793  2.1377
17226TIP3    H273170   0.762   0.245  16.288 -2.8009  2.6877 -0.4807
17227TIP3   OH273171   4.367   5.914   1.339 -0.4755 -0.5034 -0.4210
17227TIP3    H173172   4.416   5.966   1.402  3.5889 -3.6299 -0.5779
17227TIP3    H273173   4.321   5.978   1.285  1.8883  2.7248  1.0849
17228TIP3   OH273174   3.391   4.081  12.043  0.1729  0.0428  0.1101
17228TIP3    H173175   3.303   4.115  12.024 -0.3805 -1.7847 -0.8870
17228TIP3    H273176   3.450   4.154  12.025 -0.7316 -0.0125 -4.2660
17229TIP3   OH273177   5.453   0.587  16.651 -0.3298 -0.2985 -0.1764
17229TIP3    H173178   5.424   0.616  16.565  3.2725 -2.0729 -2.2504
17229TIP3    H273179   5.416   0.499  16.660  1.6458 -1.3389 -1.4381
17230TIP3   OH273180   1.384   0.128   0.411  0.5880  0.3589  0.3363
17230TIP3    H173181   1.449   0.076   0.364 -0.1201  0.3820 -0.7153
17230TIP3    H273182   1.434   0.177   0.475  1.3840 -0.9229  0.7337
17231TIP3   OH273183   0.472   3.404  12.525 -0.0644  0.2094  0.0325
17231TIP3    H173184   0.535   3.459  12.479 -0.4147  0.7516  0.1882
17231TIP3    H273185   0.393   3.409  12.471 -0.6670  1.3298  0.9822
17232TIP3   OH273186   1.944   5.194  12.647  0.1788  0.0771  0.8333
17232TIP3    H173187   1.984   5.262  12.701  0.5338 -0.9289  1.8766
17232TIP3    H273188   2.012   5.170  12.585 -0.1246  1.0240  0.1113
17233TIP3   OH273189   6.327   3.311   3.592 -0.0778 -0.9523 -0.2402
17233TIP3    H173190   6.409   3.360   3.585  0.0489 -0.8621  1.5881
17233TIP3    H273191   6.354   3.219   3.583 -0.0479 -0.8363 -1.5412
17234TIP3   OH273192   4.898   5.659  13.390 -0.4210  0.5779 -0.1908
17234TIP3    H173193   4.914   5.571  13.423 -1.1534 -0.0225 -1.4008
17234TIP3    H273194   4.922   5.716  13.463 -0.5986 -0.6435  0.8571
17235TIP3   OH273195   1.474   5.272   3.755 -0.0185 -0.1387  0.5878
17235TIP3    H173196   1.526   5.282   3.835  1.8394 -0.9574 -0.4575
17235TIP3    H273197   1.443   5.181   3.758 -0.7460  0.1006  0.7878
17236TIP3   OH273198   0.817   4.570   4.714 -0.1019  0.3795 -0.5053
17236TIP3    H173199   0.749   4.610   4.767 -0.9119  1.2239 -2.1035
17236TIP3    H273200   0.773   4.498   4.669 -0.0784  1.1475 -1.8183
17237TIP3   OH273201   2.685   4.824   5.304  0.0265 -0.2515  0.6315
17237TIP3    H173202   2.723   4.909   5.329  0.6422  0.1197 -1.3797
17237TIP3    H273203   2.601   4.822   5.349 -0.0318  1.4688  0.6843
17238TIP3   OH273204   5.060   5.557  16.182  0.5087  0.1948 -0.2913
17238TIP3    H173205   5.030   5.504  16.257 -1.1324 -2.0727 -2.3720
17238TIP3    H273206   5.122   5.619  16.220 -0.7684 -0.3253  3.0498
17239TIP3   OH273207   6.342   1.003  13.217 -0.1507  0.0799  0.1032
17239TIP3    H173208   6.318   0.984  13.307  0.1303 -0.0382  0.1520
17239TIP3    H273209   6.321   0.923  13.169  0.9622 -0.3457  0.2976
17240TIP3   OH273210   0.822   4.812   1.562 -0.5044 -0.4466 -0.0410
17240TIP3    H173211   0.806   4.718   1.552 -0.4489 -0.5430  0.7218
17240TIP3    H273212   0.762   4.839   1.631  0.5175 -0.2235  0.7899
17241TIP3   OH273213   2.743   1.633  15.817  0.1938 -0.1246  0.4769
17241TIP3    H173214   2.757   1.725  15.793  1.3361  0.4746  3.1015
17241TIP3    H273215   2.786   1.624  15.902 -1.0554 -2.7663  0.9132
17242TIP3   OH273216   2.722   3.670   3.824 -0.3033  0.4168 -0.2286
17242TIP3    H173217   2.739   3.597   3.883 -0.4702 -0.1572 -0.8780
17242TIP3    H273218   2.768   3.744   3.864 -1.1141  0.2503  1.0663
17243TIP3   OH273219   4.351   3.120  12.643 -0.2725 -0.2110  0.0179
17243TIP3    H173220   4.434   3.166  12.628  0.2080 -1.3178 -0.8458
17243TIP3    H273221   4.291   3.188  12.675  0.7950  0.7253  0.0775
17244TIP3   OH273222   3.303   3.290  14.855 -0.6240 -0.6274  0.2199
17244TIP3    H173223   3.398   3.302  14.844 -0.7354  0.1392  0.0173
17244TIP3    H273224   3.295   3.209  14.905  0.0822 -1.7995 -1.4585
17245TIP3   OH273225   6.150   1.213  12.067 -0.6909  0.4441  0.5222
17245TIP3    H173226   6.147   1.164  11.985 -1.0835  0.2451  0.6520
17245TIP3    H273227   6.234   1.189  12.106  0.2508  1.7688 -0.5663
17246TIP3   OH273228   0.892   0.365  10.626 -0.0907 -0.1028  1.1440
17246TIP3    H173229   0.846   0.449  10.621  0.2731  0.0436 -2.4747
17246TIP3    H273230   0.984   0.387  10.616 -0.1653 -0.9288 -2.7932
17247TIP3   OH273231   3.003   0.573  16.826 -0.2975 -0.4015  0.4514
17247TIP3    H173232   3.037   0.499  16.777 -0.1278 -1.1381  1.6485
17247TIP3    H273233   3.080   0.625  16.848 -0.4574  0.3910 -0.7509
17248TIP3   OH273234   6.311   0.442   4.095 -0.0953 -0.4434  0.6468
17248TIP3    H173235   6.238   0.389   4.128 -0.7037 -0.6943 -1.0132
17248TIP3    H273236   6.281   0.533   4.106 -0.9421 -0.5504 -0.5531
17249TIP3   OH273237   1.558   2.491   6.470  0.2737 -0.3836 -0.4288
17249TIP3    H173238   1.518   2.411   6.435 -0.2903 -0.6077  0.7065
17249TIP3    H273239   1.621   2.459   6.535  1.0236  0.0464 -0.9291
17250TIP3   OH273240   4.588   2.638   0.629 -0.5266  0.0528  0.0581
17250TIP3    H173241   4.675   2.662   0.663 -0.9153  1.1831  0.2974
17250TIP3    H273242   4.527   2.666   0.697 -1.1095 -0.4538 -0.2462
17251TIP3   OH273243   2.621   4.379   1.340 -0.0059  0.1500 -0.0762
17251TIP3    H173244   2.652   4.288   1.336 -1.1404 -0.1952 -1.2205
17251TIP3    H273245   2.623   4.400   1.434 -0.4753 -1.3088  0.2781
17252TIP3   OH273246   5.010   1.096   5.917  0.4665 -0.1148  0.1216
17252TIP3    H173247   5.055   1.022   5.959  2.0782  1.8818  2.2256
17252TIP3    H273248   4.941   1.119   5.979  0.0780  0.2294 -0.4375
17253TIP3   OH273249   3.655   2.699  13.743  0.0520 -0.2789  0.2481
17253TIP3    H173250   3.735   2.647  13.745  0.7215  0.7226 -0.0194
17253TIP3    H273251   3.642   2.720  13.651  0.5819  1.2022  0.4856
17254TIP3   OH273252   4.502   6.498  16.741 -0.1531 -0.1510 -0.0933
17254TIP3    H173253   4.552   6.416  16.742 -1.2469 -0.9575 -2.4961
17254TIP3    H273254   4.549   6.554  16.679  0.3234  0.9127  1.1763
17255TIP3   OH273255   1.229   0.519  15.794  0.4313  0.0659 -0.1346
17255TIP3    H173256   1.226   0.577  15.718  0.5734 -0.2244 -0.3641
17255TIP3    H273257   1.186   0.438  15.764 -0.4124  0.2964  0.3959
17256TIP3   OH273258   1.882   3.218  16.816  0.1078 -0.5467  0.3443
17256TIP3    H173259   1.867   3.128  16.846  0.7902 -0.1475  2.0197
17256TIP3    H273260   1.946   3.253  16.878  1.6328  0.3764 -1.6521
17257TIP3   OH273261   5.790   2.016   2.165 -0.6719  0.3806  0.4275
17257TIP3    H173262   5.713   2.002   2.111  0.0925 -0.5933 -0.4532
17257TIP3    H273263   5.816   2.107   2.147 -1.4673  0.6354  0.5533
17258TIP3   OH273264   3.925   4.574  11.411  0.4908 -0.4156  0.4395
17258TIP3    H173265   3.960   4.640  11.471  0.0734  0.0417  0.1863
17258TIP3    H273266   3.994   4.562  11.345  0.2293  0.4065  0.0005
17259TIP3   OH273267   0.053   3.431  14.873 -0.0959  0.3124  0.1459
17259TIP3    H173268   0.115   3.495  14.839 -0.3319 -0.8871 -2.9076
17259TIP3    H273269   0.101   3.348  14.872 -0.6673 -0.0591  1.2976
17260TIP3   OH273270   0.774   3.521  13.754  0.1921 -0.5242  0.2800
17260TIP3    H173271   0.747   3.613  13.746  0.1015 -0.6217 -0.6892
17260TIP3    H273272   0.694   3.475  13.778  0.9104  0.0826  4.5628
17261TIP3   OH273273   5.253   5.004   0.375 -0.3634 -0.3611  0.1606
17261TIP3    H173274   5.255   5.078   0.436  0.9023  0.6068 -0.9701
17261TIP3    H273275   5.168   5.011   0.331 -0.3140  0.3612  0.1657
17262TIP3   OH273276   6.795   1.007  11.928  0.5319  0.1429  0.1118
17262TIP3    H173277   6.800   0.925  11.878  1.3352  0.7761 -0.8768
17262TIP3    H273278   6.854   1.067  11.882  0.2118  1.1816  1.0189
17263TIP3   OH273279   0.427   1.899  11.934 -0.2236 -0.1306  0.2685
17263TIP3    H173280   0.386   1.827  11.886  2.6386  0.0423 -2.8033
17263TIP3    H273281   0.453   1.861  12.018 -1.7020 -1.6726  0.0822
17264TIP3   OH273282   4.564   5.052   6.119 -0.4934 -0.3232  0.0592
17264TIP3    H173283   4.536   5.064   6.028 -0.2764  1.0367  0.1465
17264TIP3    H273284   4.660   5.047   6.115 -0.5282 -4.3184 -0.1670
17265TIP3   OH273285   3.991   6.011   0.031  0.2115 -0.2264  0.1065
17265TIP3    H173286   3.909   6.023  -0.017  0.2358  0.4030  0.2162
17265TIP3    H273287   4.032   5.936  -0.011  0.1014  0.1442 -0.6875
17266TIP3   OH273288   3.342   1.032  15.330  0.3520 -1.0427 -0.2105
17266TIP3    H173289   3.299   0.946  15.324 -1.5398 -0.1367 -0.4935
17266TIP3    H273290   3.335   1.069  15.242  0.8699 -0.4628 -0.0155
17267TIP3   OH273291   0.784   2.810  12.989 -0.1276  0.7672 -0.5343
17267TIP3    H173292   0.710   2.768  12.944  1.1291 -0.3528 -1.6112
17267TIP3    H273293   0.854   2.745  12.987  0.8277  1.7083  0.7116
17268TIP3   OH273294   4.754   4.568   3.182 -0.8487  0.0884  0.6937
17268TIP3    H173295   4.721   4.509   3.114 -2.8655  1.1628  0.6623
17268TIP3    H273296   4.847   4.578   3.162 -1.2697 -0.0370 -1.6261
17269TIP3   OH273297   1.339   6.846   3.892  0.1740 -0.1537 -0.0361
17269TIP3    H173298   1.270   6.779   3.898 -0.2930  0.3185 -0.0580
17269TIP3    H273299   1.394   6.830   3.969  0.2872 -0.7990 -0.2442
17270TIP3   OH273300   3.667   5.540  14.741  0.0166 -0.4222  0.2915
17270TIP3    H173301   3.637   5.556  14.652  0.0903  0.9094  0.4718
17270TIP3    H273302   3.703   5.452  14.740 -1.0146 -0.8432 -0.7063
17271TIP3   OH273303   4.675   1.021  12.836  0.0501  0.0826  0.6206
17271TIP3    H173304   4.735   1.083  12.793 -2.5481  0.8338 -2.2587
17271TIP3    H273305   4.588   1.048  12.807 -1.5425 -2.3163  2.8090
17272TIP3   OH273306   2.092   4.276   3.867  0.0683  0.1486 -0.3888
17272TIP3    H173307   2.060   4.192   3.835  0.1868 -0.6438  1.4712
17272TIP3    H273308   2.154   4.305   3.800  0.5728 -1.5912 -0.7238
17273TIP3   OH273309   2.052   5.182   3.143 -0.2465  0.2284 -0.2823
17273TIP3    H173310   2.007   5.209   3.063 -1.2690  0.2134  0.2776
17273TIP3    H273311   2.084   5.263   3.182  1.0437  0.1585 -1.1564
17274TIP3   OH273312   2.879   2.174  13.503 -0.3550 -0.6014  0.1919
17274TIP3    H173313   2.889   2.217  13.418 -0.1116  0.1318  0.5837
17274TIP3    H273314   2.898   2.081  13.485  0.5020 -0.3277 -0.3976
17275TIP3   OH273315   2.351   0.689  14.894  0.2007  0.2536 -0.2432
17275TIP3    H173316   2.301   0.770  14.882  1.8024  1.2496 -0.4576
17275TIP3    H273317   2.355   0.651  14.806 -2.3511 -1.2187  0.1954
17276TIP3   OH273318   5.396   5.638  12.435  0.8455  0.1915  0.3078
17276TIP3    H173319   5.337   5.667  12.504  0.0948  0.4331 -0.4077
17276TIP3    H273320   5.443   5.563  12.472  0.4771  0.3375  1.0754
17277TIP3   OH273321   2.389   5.501  14.142  0.6001 -0.3342  0.0781
17277TIP3    H173322   2.360   5.515  14.052 -0.0515  0.0968  0.3510
17277TIP3    H273323   2.459   5.566  14.155  1.0667 -0.7606 -0.2866
17278TIP3   OH273324   6.452   5.610   0.447 -0.5088  0.2865  0.0994
17278TIP3    H173325   6.479   5.624   0.538  2.2573  0.2129 -0.6363
17278TIP3    H273326   6.456   5.515   0.436 -3.6723 -0.0162  0.6138
17279TIP3   OH273327   1.617   6.361   3.531 -0.1102  0.3907  0.4064
17279TIP3    H173328   1.601   6.409   3.450 -0.6757 -0.0395  0.2593
17279TIP3    H273329   1.673   6.419   3.583  1.3336  0.1524 -0.8058
17280TIP3   OH273330   3.167   2.371  15.542 -0.2390 -0.0332  0.4768
17280TIP3    H173331   3.234   2.302  15.545  0.3709  0.5344  0.0741
17280TIP3    H273332   3.175   2.408  15.454 -1.1582 -0.0260  0.3845
17281TIP3   OH273333   5.230   2.616  16.378  0.2456 -0.3120  0.1221
17281TIP3    H173334   5.180   2.545  16.417  1.0358 -0.2668  1.2572
17281TIP3    H273335   5.314   2.576  16.356  0.2005 -0.0599 -0.5502
17282TIP3   OH273336   3.435   5.719  10.472  0.1852  0.4521  0.7458
17282TIP3    H173337   3.469   5.777  10.541  2.5913  0.4213 -0.3374
17282TIP3    H273338   3.394   5.778  10.409 -0.1283  0.6812  1.1606
17283TIP3   OH273339   1.868   6.827  11.804 -0.9764 -0.8317  0.0727
17283TIP3    H173340   1.823   6.904  11.767 -0.0899 -0.6038 -0.5469
17283TIP3    H273341   1.950   6.861  11.840 -0.0755 -1.6291 -1.1497
17284TIP3   OH273342   4.207   5.574  14.099 -0.1701 -0.4518 -0.0021
17284TIP3    H173343   4.134   5.563  14.160 -0.1495  0.1879  0.1448
17284TIP3    H273344   4.285   5.556  14.152 -0.1957 -0.7338 -0.0570
17285TIP3   OH273345   3.810   1.456  15.617  0.0274 -0.5159  0.7643
17285TIP3    H173346   3.869   1.512  15.566 -1.1521 -0.6789 -0.8665
17285TIP3    H273347   3.834   1.367  15.591  0.9146 -0.7256  2.2360
17286TIP3   OH273348   2.164   3.520   5.118  0.6033 -0.2494  0.4881
17286TIP3    H173349   2.238   3.519   5.057 -0.4835  2.4939 -1.0484
17286TIP3    H273350   2.200   3.557   5.198  0.6541  2.6107 -0.7617
17287TIP3   OH273351   4.585   2.044   1.183 -0.4025  0.0856  0.0633
17287TIP3    H173352   4.549   2.129   1.207 -0.2851  0.1490  0.0194
17287TIP3    H273353   4.637   2.062   1.104  0.6710  0.2137  0.7842
17288TIP3   OH273354   3.853   3.244   0.368 -0.2360  0.3002  0.8564
17288TIP3    H173355   3.907   3.204   0.436  2.0508  1.4864 -0.1511
17288TIP3    H273356   3.915   3.295   0.314 -1.9589 -0.2679 -1.8919
17289TIP3   OH273357   2.726   5.796   0.497 -0.1853  0.0176 -0.1743
17289TIP3    H173358   2.681   5.872   0.460  0.0896 -0.5813 -1.8114
17289TIP3    H273359   2.655   5.736   0.521 -0.4048 -1.1962 -3.3308
17290TIP3   OH273360   3.496   4.083  13.273 -0.0665 -0.3510 -0.2601
17290TIP3    H173361   3.440   4.017  13.234 -1.7132  0.9647 -0.2297
17290TIP3    H273362   3.529   4.134  13.199  0.7524 -0.8422 -0.2456
17291TIP3   OH273363   3.986   0.974  14.431  0.7900 -0.6244 -0.1384
17291TIP3    H173364   3.954   0.964  14.521  1.2827 -1.4509 -0.0489
17291TIP3    H273365   3.955   0.896  14.386 -0.9438  0.5808 -1.1635
17292TIP3   OH273366   4.954   1.238  13.376 -0.4036  0.2236  0.0265
17292TIP3    H173367   4.898   1.168  13.342  0.7603 -0.4863 -0.5061
17292TIP3    H273368   4.971   1.294  13.300 -2.8267  2.2093  0.8231
17293TIP3   OH273369   4.213   2.220   3.114  0.2996 -0.4211 -0.0856
17293TIP3    H173370   4.163   2.179   3.186  0.6065 -0.9957 -0.1888
17293TIP3    H273371   4.164   2.197   3.035  0.6568 -0.8855 -0.1756
17294TIP3   OH273372   5.821   0.866   3.132  0.8272 -0.0134  0.5320
17294TIP3    H173373   5.773   0.949   3.141  0.1592 -0.3643  0.2678
17294TIP3    H273374   5.793   0.814   3.208 -2.1633 -1.6594 -1.5075
17295TIP3   OH273375   4.099   3.506   1.637 -0.9060 -0.0577 -0.1046
17295TIP3    H173376   4.169   3.565   1.667 -0.9245 -0.2644  0.3621
17295TIP3    H273377   4.082   3.532   1.546 -1.9382  1.6341  0.5275
17296TIP3   OH273378   5.748   0.339  14.261  0.4368  0.1661  0.2965
17296TIP3    H173379   5.707   0.272  14.206  0.5184 -0.3274  0.8272
17296TIP3    H273380   5.732   0.421  14.214 -0.4179 -0.1170  0.0690
17297TIP3   OH273381   5.959   5.415   2.511 -0.1999  0.1414  0.3811
17297TIP3    H173382   5.944   5.381   2.422 -0.6678 -1.0337  0.8932
17297TIP3    H273383   5.982   5.338   2.563 -1.8489  0.4906  1.7117
17298TIP3   OH273384   3.231   5.529  11.994  0.0010 -0.8513 -0.7764
17298TIP3    H173385   3.195   5.610  12.031 -0.4484 -1.5049  0.2548
17298TIP3    H273386   3.188   5.459  12.043  1.4258 -1.6951 -0.6827
17299TIP3   OH273387   4.984   6.212   1.480 -0.0035 -0.2004 -0.4663
17299TIP3    H173388   5.067   6.241   1.518  0.2627 -0.2208 -1.0246
17299TIP3    H273389   5.006   6.131   1.434 -0.3348 -0.2111 -0.6074
17300TIP3   OH273390   2.073   1.366  13.783 -0.8713  0.3455  0.0811
17300TIP3    H173391   2.075   1.355  13.688  0.1748 -1.3087  0.2550
17300TIP3    H273392   2.160   1.399  13.805  0.0494 -2.3481  0.7391
17301TIP3   OH273393   1.089   4.664   0.306  0.0306 -0.3011 -0.0390
17301TIP3    H173394   1.167   4.611   0.288  0.4309  0.7670 -1.5416
17301TIP3    H273395   1.015   4.607   0.282  0.4411 -0.3333 -1.2565
17302TIP3   OH273396   0.235   3.699   2.135  0.0943 -0.2153  0.5381
17302TIP3    H173397   0.320   3.740   2.153 -0.8271  2.3427 -0.5520
17302TIP3    H273398   0.190   3.699   2.219  0.6293 -0.2519  0.8266
17303TIP3   OH273399   2.635   3.485  13.522 -0.4617  0.5497  0.0251
17303TIP3    H173400   2.561   3.471  13.463  0.5495 -1.9305 -0.7559
17303TIP3    H273401   2.713   3.477  13.467  0.4661 -0.1525  1.3712
17304TIP3   OH273402   1.834   4.921   6.066  0.5031  0.0771 -0.0097
17304TIP3    H173403   1.764   4.958   6.122 -0.4089 -1.1654 -0.2887
17304TIP3    H273404   1.818   4.959   5.980  0.4348  0.1296  0.0260
17305TIP3   OH273405   6.092   5.259  14.671  0.4302  0.1545 -0.2095
17305TIP3    H173406   6.002   5.290  14.655  1.3134  3.3653  0.3625
17305TIP3    H273407   6.080   5.171  14.706 -2.4675  0.2114 -0.7537
17306TIP3   OH273408   4.180   3.231   4.460  0.1378  0.2289  0.5108
17306TIP3    H173409   4.146   3.283   4.388 -0.5065  0.0511  0.6846
17306TIP3    H273410   4.168   3.286   4.538 -0.2992 -0.0712  0.6567
17307TIP3   OH273411   4.129   3.731  16.852  0.3926 -0.6996  0.6588
17307TIP3    H173412   4.040   3.743  16.818  0.5863  1.0506  0.6714
17307TIP3    H273413   4.135   3.637  16.871 -1.2512 -0.9463  0.1314
17308TIP3   OH273414   4.178   1.182  13.615 -0.4322 -0.3235 -0.1478
17308TIP3    H173415   4.208   1.100  13.656 -1.6636  0.0299  1.5687
17308TIP3    H273416   4.240   1.248  13.647  1.1066 -0.6510 -2.2418
17309TIP3   OH273417   0.495   1.543  15.099  0.1661 -0.0595 -0.3623
17309TIP3    H173418   0.501   1.592  15.181  2.5896 -2.8338  1.3363
17309TIP3    H273419   0.420   1.484  15.112 -0.0249  0.1495 -0.5239
17310TIP3   OH273420   2.479   3.858   5.079 -0.0599 -0.1973  0.2039
17310TIP3    H173421   2.514   3.944   5.057 -0.5743  0.0278  0.2514
17310TIP3    H273422   2.511   3.839   5.167 -0.8865  0.4577  0.6598
17311TIP3   OH273423   1.798   4.240  15.222 -0.5434  0.2122 -0.4273
17311TIP3    H173424   1.772   4.206  15.307 -0.6977 -0.9497 -0.9214
17311TIP3    H273425   1.863   4.308  15.242 -0.8349  0.1979  0.6165
17312TIP3   OH273426   2.554   3.108  13.298 -0.7146 -0.4827  0.0654
17312TIP3    H173427   2.584   3.082  13.211  0.0913  0.1205  0.1485
17312TIP3    H273428   2.561   3.203  13.298 -1.3911 -0.4269  0.5556
17313TIP3   OH273429   1.250   6.762  16.880  0.1110 -0.7923 -0.0767
17313TIP3    H173430   1.185   6.777  16.948  0.5483  2.2418 -0.1745
17313TIP3    H273431   1.205   6.783  16.798  0.4657 -1.3411 -0.4175
17314TIP3   OH273432   4.184   3.520   1.043  0.2800  0.2496  0.0878
17314TIP3    H173433   4.238   3.557   0.974 -1.1497  1.9149 -0.2010
17314TIP3    H273434   4.218   3.559   1.124 -0.1873  0.9428 -0.0456
17315TIP3   OH273435   3.880   6.422   2.299 -0.3121 -0.5105 -0.2382
17315TIP3    H173436   3.890   6.462   2.213  0.9762 -2.6804 -1.1621
17315TIP3    H273437   3.788   6.435   2.321 -1.1069 -1.3980 -2.7202
17316TIP3   OH273438   3.549   1.387  11.597 -0.1838  0.6361 -0.0007
17316TIP3    H173439   3.506   1.360  11.678  0.4062 -0.4609 -0.0310
17316TIP3    H273440   3.548   1.483  11.599 -2.0110  0.6473  0.3195
17317TIP3   OH273441   0.593   0.278   3.572 -0.3285 -0.5123 -0.3421
17317TIP3    H173442   0.534   0.329   3.628  1.5875  1.7042 -0.1652
17317TIP3    H273443   0.596   0.327   3.489  0.4285 -1.1460 -0.7081
17318TIP3   OH273444   5.340   5.597  17.101  0.1143 -0.6766 -0.0202
17318TIP3    H173445   5.338   5.624  17.009 -1.2597 -1.5919 -0.2836
17318TIP3    H273446   5.347   5.680  17.150  1.9306 -0.2399 -0.9414
17319TIP3   OH273447   2.815   4.488  16.007  0.0666  0.3721  0.1203
17319TIP3    H173448   2.828   4.492  16.101  2.8164 -0.1828 -0.1370
17319TIP3    H273449   2.790   4.397  15.989  4.0989 -0.9141  0.0314
17320TIP3   OH273450   1.329   2.294   5.397 -0.0156  0.4820 -0.0625
17320TIP3    H173451   1.333   2.198   5.402  0.1540  0.4386 -0.9113
17320TIP3    H273452   1.409   2.318   5.351  0.9101  1.1859  1.7886
17321TIP3   OH273453   5.967   3.598   2.919  0.7066  0.4013  0.7400
17321TIP3    H173454   5.982   3.539   2.992  1.2892 -0.4984 -0.0844
17321TIP3    H273455   6.008   3.556   2.844 -2.2599 -0.1539 -0.7574
17322TIP3   OH273456   6.169   1.695   6.372 -0.0536 -0.0287  0.8908
17322TIP3    H173457   6.209   1.747   6.442  1.3434  0.1490 -0.0066
17322TIP3    H273458   6.186   1.744   6.292  0.6104 -1.4516  0.1166
17323TIP3   OH273459   2.949   2.719  14.578 -0.4074  0.1439  0.4671
17323TIP3    H173460   2.969   2.807  14.609 -1.4470  0.6157 -0.1426
17323TIP3    H273461   3.021   2.665  14.610 -0.8613  0.7952  2.7230
17324TIP3   OH273462   2.653   3.320  11.325  0.3758 -0.5592 -0.3522
17324TIP3    H173463   2.675   3.248  11.385 -0.8617 -0.3536  0.3899
17324TIP3    H273464   2.663   3.399  11.378  1.0330 -0.2303 -0.9586
17325TIP3   OH273465   3.540   5.358  14.284  0.3886 -0.0171 -0.5880
17325TIP3    H173466   3.621   5.380  14.238  1.0864  0.3726  0.7866
17325TIP3    H273467   3.567   5.302  14.356 -0.8938 -2.0332 -1.5788
17326TIP3   OH273468   1.955   4.076   0.998  0.1950 -0.0295  0.5289
17326TIP3    H173469   1.879   4.069   1.056  1.2327 -1.4657  1.7826
17326TIP3    H273470   1.917   4.090   0.911 -1.4977 -0.6554  1.1244
17327TIP3   OH273471   2.246   6.422  16.495  0.4780 -0.4409  0.3481
17327TIP3    H173472   2.155   6.441  16.519 -0.9652 -3.5414 -1.9218
17327TIP3    H273473   2.245   6.330  16.470  4.2679 -0.5367  0.0095
17328TIP3   OH273474   6.831   5.791   4.100  1.1315 -0.3543 -0.5814
17328TIP3    H173475   6.867   5.820   4.016 -2.2616 -0.0620 -2.0764
17328TIP3    H273476   6.752   5.743   4.077  0.5866 -1.1103  2.4598
17329TIP3   OH273477   2.041   4.607   3.520  0.0860 -0.0033 -0.0190
17329TIP3    H173478   1.964   4.651   3.482  0.2784 -0.0300 -0.4429
17329TIP3    H273479   2.044   4.522   3.476  0.1562 -0.1390  0.2504
17330TIP3   OH273480   6.161   2.231  10.958  0.7598  0.2971  0.1872
17330TIP3    H173481   6.099   2.203  10.891  1.9351 -1.7230 -0.1384
17330TIP3    H273482   6.247   2.217  10.919  1.5168  3.5943  0.3994
17331TIP3   OH273483   5.907   3.194   5.256  0.0638  0.1934  0.2779
17331TIP3    H173484   5.936   3.104   5.247  0.5710  0.3520  0.2658
17331TIP3    H273485   5.924   3.216   5.348 -1.3669 -0.1613  0.6450
17332TIP3   OH273486   3.054   3.867   5.024  0.0508 -0.1889  0.2209
17332TIP3    H173487   3.015   3.842   5.107 -1.6653 -0.2654 -0.5689
17332TIP3    H273488   2.980   3.883   4.966  1.1318  2.1824 -0.6507
17333TIP3   OH273489   5.934   4.086  16.251  0.1266 -0.3327  0.1928
17333TIP3    H173490   6.029   4.089  16.260 -0.0228  1.8286  1.7617
17333TIP3    H273491   5.902   4.056  16.336 -0.6199 -0.0562  0.0202
17334TIP3   OH273492   4.594   2.755   2.180  0.4121  0.0983  0.0588
17334TIP3    H173493   4.551   2.812   2.115  0.7822 -2.0742 -2.2637
17334TIP3    H273494   4.525   2.735   2.243 -0.4003  1.1288 -0.4622
17335TIP3   OH273495   5.530   4.257  15.581  1.5998  0.1931 -0.7356
17335TIP3    H173496   5.571   4.171  15.581  0.3101 -0.4320 -0.9027
17335TIP3    H273497   5.516   4.278  15.673  0.7461 -0.3457 -0.7414
17336TIP3   OH273498   3.828   6.373   4.582  0.2299 -0.4742  0.2211
17336TIP3    H173499   3.850   6.363   4.490 -1.4916 -0.0621 -0.2734
17336TIP3    H273500   3.784   6.292   4.606 -0.8500  0.0885  0.1940
17337TIP3   OH273501   6.707   0.083  17.050  0.2188  0.5046 -0.5455
17337TIP3    H173502   6.685  -0.003  17.013 -0.5959  0.5213 -0.1310
17337TIP3    H273503   6.622   0.119  17.077  0.8529 -0.1425  2.7721
17338TIP3   OH273504   3.408   4.677   2.759 -0.1910  0.3119  0.0027
17338TIP3    H173505   3.345   4.621   2.713 -0.3116  1.5231 -1.3748
17338TIP3    H273506   3.375   4.766   2.744 -0.4513  0.7677  2.7977
17339TIP3   OH273507   5.161   4.184  14.957  0.2830  0.1761  0.2388
17339TIP3    H173508   5.091   4.211  15.017 -0.6560  0.5030 -0.9710
17339TIP3    H273509   5.166   4.089  14.967 -0.2455  0.1677  0.4290
17340TIP3   OH273510   5.382   6.020  13.368  0.1158  0.0583  0.3468
17340TIP3    H173511   5.416   6.002  13.455  0.7394  0.7334  0.2481
17340TIP3    H273512   5.287   6.015  13.378  0.1900 -1.8954  0.6183
17341TIP3   OH273513   6.764   6.654  14.522  0.0263 -0.3570  0.7549
17341TIP3    H173514   6.803   6.585  14.574  0.0026 -0.4346  0.6703
17341TIP3    H273515   6.740   6.722  14.585  0.0410 -0.4299  0.8382
17342TIP3   OH273516   5.337   0.526   4.447  0.0529  0.1831 -0.1223
17342TIP3    H173517   5.296   0.439   4.440  0.1350  0.1582 -0.3039
17342TIP3    H273518   5.299   0.576   4.375  0.8230 -0.0373 -0.6817
17343TIP3   OH273519   4.038   5.533  14.329 -0.0590 -1.1466 -0.3956
17343TIP3    H173520   4.009   5.608  14.381  2.7706  0.5265 -1.0394
17343TIP3    H273521   4.077   5.473  14.392 -0.5030 -1.1449 -0.1152
17344TIP3   OH273522   1.650   2.612   0.044  0.4343 -0.1566 -0.9199
17344TIP3    H173523   1.596   2.537   0.071  0.0166 -0.1006 -1.5918
17344TIP3    H273524   1.656   2.605  -0.051 -0.2081  1.0544 -1.0677
17345TIP3   OH273525   2.847   1.074   3.081 -0.3893  0.4360  0.4641
17345TIP3    H173526   2.905   0.999   3.068 -0.8736 -0.1075  1.3309
17345TIP3    H273527   2.815   1.063   3.171  0.3101  2.2242  0.9719
17346TIP3   OH273528   0.214   5.806   3.902  0.2961 -0.3098 -0.1109
17346TIP3    H173529   0.278   5.739   3.878 -0.7196 -1.1191 -0.5876
17346TIP3    H273530   0.250   5.846   3.982  1.6975 -0.3249 -0.7099
17347TIP3   OH273531   2.122   5.068   2.157  0.1142  0.3332 -0.9824
17347TIP3    H173532   2.134   5.136   2.224 -0.7477  2.1923 -2.6056
17347TIP3    H273533   2.033   5.037   2.170  0.0540  0.4677 -1.0745
17348TIP3   OH273534   4.291   1.886  17.129  0.8253  0.5290 -0.7577
17348TIP3    H173535   4.271   1.943  17.055 -2.4117 -0.2454 -0.6235
17348TIP3    H273536   4.265   1.936  17.206  1.7556  0.3398 -0.2941
17349TIP3   OH273537   0.638   2.152  12.203 -0.3756  0.1450 -0.3873
17349TIP3    H173538   0.682   2.091  12.145  0.7829  1.5430 -1.0320
17349TIP3    H273539   0.708   2.192  12.255 -1.3715 -1.0371  2.0041
17350TIP3   OH273540   0.095   6.247  14.078 -0.1669  0.0975 -0.1592
17350TIP3    H173541   0.026   6.311  14.093  0.4480  1.0659 -1.3260
17350TIP3    H273542   0.176   6.293  14.101  0.1457 -0.9030  0.8384
17351TIP3   OH273543   6.334   2.782   6.248  0.2691 -0.8957 -0.3253
17351TIP3    H173544   6.333   2.842   6.173  0.2950 -0.4420  0.0322
17351TIP3    H273545   6.426   2.755   6.254  0.5026 -0.0237  0.2478
17352TIP3   OH273546   4.541   6.114  13.335 -0.1610 -1.0242 -0.2335
17352TIP3    H173547   4.606   6.165  13.383  0.1314 -0.9738 -0.6767
17352TIP3    H273548   4.584   6.092  13.253 -1.6772  1.4787 -1.8220
17353TIP3   OH273549   2.208   3.168   5.528  0.0992  0.4486 -0.0759
17353TIP3    H173550   2.208   3.093   5.588  1.0465  0.0230 -0.5949
17353TIP3    H273551   2.115   3.187   5.514 -0.1596 -0.7617 -0.0942
17354TIP3   OH273552   5.339   0.954   1.015  0.0726 -0.0614 -0.0635
17354TIP3    H173553   5.362   0.901   1.091  2.2058  0.9910  0.1323
17354TIP3    H273554   5.402   1.026   1.017 -1.3675  1.3265 -1.4831
17355TIP3   OH273555   2.472   4.185   5.087 -0.3533  0.4798  0.4951
17355TIP3    H173556   2.438   4.191   4.997 -0.0132 -0.7582  0.2671
17355TIP3    H273557   2.499   4.275   5.108  0.1057  0.6905 -0.8610
17356TIP3   OH273558   1.122   4.566   2.709 -0.2339 -0.0539  0.3832
17356TIP3    H173559   1.113   4.513   2.789 -1.1322 -0.1671  0.2218
17356TIP3    H273560   1.080   4.649   2.731 -0.4354 -0.0659  0.0507
17357TIP3   OH273561   5.954   4.074   5.972 -0.5116  0.1198  0.4977
17357TIP3    H173562   6.036   4.047   6.013  0.4088 -1.1543 -1.9359
17357TIP3    H273563   5.914   4.133   6.035  1.6921 -0.1629  2.3048
17358TIP3   OH273564   2.809   3.785  11.984 -0.3430  0.8427 -0.4652
17358TIP3    H173565   2.892   3.831  11.991 -0.2928  1.1599 -2.4481
17358TIP3    H273566   2.746   3.852  11.958 -0.7814  0.2400 -0.9912
17359TIP3   OH273567   4.912   1.033   0.222 -0.3659  0.1098 -0.1358
17359TIP3    H173568   4.915   1.122   0.187  3.3789  0.2497  0.1729
17359TIP3    H273569   4.929   0.977   0.147  0.7630 -0.0687  0.2367
17360TIP3   OH273570   2.821   1.445   4.386 -0.2038 -0.1052  0.4739
17360TIP3    H173571   2.848   1.417   4.473  1.0969  1.2311  0.5414
17360TIP3    H273572   2.877   1.397   4.326 -2.1106 -2.1832  0.2152
17361TIP3   OH273573   5.994   0.736   3.571  0.5015  0.2683  1.2210
17361TIP3    H173574   5.901   0.757   3.567  0.1038 -1.2387  1.8795
17361TIP3    H273575   6.017   0.743   3.663  1.6638  2.9219  0.8217
17362TIP3   OH273576   6.078   3.316  15.581 -0.2368  0.5650  0.2245
17362TIP3    H173577   6.110   3.225  15.584 -0.6653  0.3932 -0.2047
17362TIP3    H273578   5.983   3.307  15.592 -0.1580  1.0645  1.5027
17363TIP3   OH273579   3.753   0.501   5.872 -0.9007  0.0937 -0.0863
17363TIP3    H173580   3.757   0.495   5.968  0.5634 -2.1949 -0.2321
17363TIP3    H273581   3.672   0.455   5.849 -1.3636  0.8263  0.0291
17364TIP3   OH273582   6.273   0.756  13.125 -0.3950 -0.5948 -0.0531
17364TIP3    H173583   6.203   0.713  13.076 -2.7304  1.4593  1.2839
17364TIP3    H273584   6.282   0.704  13.205 -2.8116  0.8890  1.2980
17365TIP3   OH273585   5.406   0.922  11.579  1.1814 -0.1668 -0.0698
17365TIP3    H173586   5.338   0.977  11.616  0.5107 -2.0795  1.7384
17365TIP3    H273587   5.477   0.924  11.643 -0.2108 -3.9686  1.9297
17366TIP3   OH273588   3.891   0.958  13.510  0.1061  0.6554 -0.6852
17366TIP3    H173589   3.955   0.895  13.477 -0.0044  0.4341 -0.4850
17366TIP3    H273590   3.933   0.997  13.587 -0.5144 -0.4620  0.2549
17367TIP3   OH273591   3.205   2.528  13.974  1.1047 -0.2705  0.0670
17367TIP3    H173592   3.137   2.467  14.002  2.0308 -1.1678  0.4021
17367TIP3    H273593   3.173   2.561  13.890  0.5226 -1.1116 -0.0576
17368TIP3   OH273594   5.541   2.119  16.707 -0.0347 -0.6831 -0.0192
17368TIP3    H173595   5.621   2.171  16.717  0.2125 -1.0045 -0.2831
17368TIP3    H273596   5.570   2.039  16.663 -0.4091 -1.0478  0.3938
17369TIP3   OH273597   0.439   2.543   3.877 -0.1611 -0.3804 -0.4183
17369TIP3    H173598   0.411   2.485   3.806  0.6830 -1.1989 -0.1076
17369TIP3    H273599   0.461   2.483   3.950  0.8123  0.3047 -0.1216
17370TIP3   OH273600   5.843   0.004  13.462  0.1959 -0.1462 -0.0970
17370TIP3    H173601   5.820   0.007  13.555  1.0399 -0.2636  0.1280
17370TIP3    H273602   5.874  -0.086  13.449 -0.3218 -0.2515 -0.5906
17371TIP3   OH273603   1.951   2.368  15.175 -0.5941 -0.2797  0.2700
17371TIP3    H173604   1.880   2.413  15.220 -1.5050 -1.3328 -0.0776
17371TIP3    H273605   1.931   2.379  15.082  1.4137  2.1245 -0.0246
17372TIP3   OH273606   4.823   2.955  14.665  0.0972  0.1848  0.3019
17372TIP3    H173607   4.743   2.939  14.614  1.1451  0.1385 -1.3985
17372TIP3    H273608   4.834   3.049  14.663  0.6519  0.1076 -0.3738
17373TIP3   OH273609   3.817   1.434   5.666 -0.6548 -0.6687  0.0091
17373TIP3    H173610   3.732   1.390   5.671 -0.6966 -0.4525  1.8484
17373TIP3    H273611   3.847   1.417   5.577 -1.8087 -2.2821 -0.1251
17374TIP3   OH273612   3.765   2.735  15.675 -0.0861 -0.0123 -0.1555
17374TIP3    H173613   3.676   2.761  15.655 -0.1245 -0.0035  0.0307
17374TIP3    H273614   3.780   2.657  15.620 -0.0906  0.1844 -0.4409
17375TIP3   OH273615   6.851   0.180  14.148 -0.4682  0.0130 -0.4908
17375TIP3    H173616   6.765   0.162  14.112 -1.4547  2.2200  0.5546
17375TIP3    H273617   6.868   0.272  14.127  1.0771 -0.0186  0.3996
17376TIP3   OH273618   2.258   5.325   1.439  0.3826 -0.1249 -0.2144
17376TIP3    H173619   2.173   5.282   1.436  1.2251 -1.9468  0.6422
17376TIP3    H273620   2.263   5.362   1.527  0.3006  0.3715 -0.4162
17377TIP3   OH273621   1.345   0.949   6.238 -0.9409 -0.2982  0.1266
17377TIP3    H173622   1.366   1.014   6.305  3.4644 -2.3198  1.0895
17377TIP3    H273623   1.372   0.990   6.155  0.6619 -0.3513  0.5832
17378TIP3   OH273624   1.871   4.081   5.053  0.6909  0.1621 -0.6362
17378TIP3    H173625   1.878   4.075   5.148 -1.0649 -0.9327 -0.5225
17378TIP3    H273626   1.950   4.038   5.020  0.8548 -0.3162  0.3449
17379TIP3   OH273627   6.092   0.014   4.077  0.5206  0.3668 -0.0001
17379TIP3    H173628   6.011  -0.006   4.030 -0.3804  0.3911  1.4797
17379TIP3    H273629   6.158   0.023   4.009 -0.8605  1.0397 -1.2971
17380TIP3   OH273630   5.040   1.592  11.697  0.3434 -0.0265 -0.2191
17380TIP3    H173631   5.132   1.567  11.703  0.8660  1.7014 -0.3035
17380TIP3    H273632   5.038   1.682  11.729 -1.0815  0.4359 -1.4672
17381TIP3   OH273633   6.677   3.290   1.734 -0.3242  0.3477 -0.1803
17381TIP3    H173634   6.739   3.248   1.794 -1.6515 -3.3538 -1.1070
17381TIP3    H273635   6.691   3.244   1.651 -2.4141  1.3490 -1.1329
17382TIP3   OH273636   6.170   3.017  16.175 -0.1050  0.1744 -0.2968
17382TIP3    H173637   6.087   3.053  16.144  0.5793  1.0691 -1.1722
17382TIP3    H273638   6.208   3.086  16.229 -1.3564 -1.4290  2.8301
17383TIP3   OH273639   0.269   5.511  11.903  0.4033 -0.3932 -0.0446
17383TIP3    H173640   0.236   5.430  11.865 -0.1647 -0.3391  0.3227
17383TIP3    H273641   0.298   5.486  11.990 -0.5371 -0.0522  0.3806
17384TIP3   OH273642   2.517   6.588  12.136  0.2710 -0.7127  0.1164
17384TIP3    H173643   2.543   6.614  12.048  0.5181 -0.3261  0.3025
17384TIP3    H273644   2.507   6.493  12.131 -4.6852 -0.3868 -1.6501
17385TIP3   OH273645   1.236   5.418   3.841  0.0606 -0.2249 -0.1402
17385TIP3    H173646   1.167   5.428   3.776  1.0054  0.0709 -1.1257
17385TIP3    H273647   1.317   5.413   3.790  0.6062 -2.7534  0.8454
17386TIP3   OH273648   3.420   1.292  11.855  0.4635 -0.3359 -0.3254
17386TIP3    H173649   3.430   1.213  11.801  0.4125 -0.2947 -0.3951
17386TIP3    H273650   3.326   1.298  11.872  0.3310  0.3311 -1.2515
17387TIP3   OH273651   2.381   1.007  14.306  0.3626 -0.1838 -0.1586
17387TIP3    H173652   2.473   1.015  14.279  0.3387 -0.5701 -0.3568
17387TIP3    H273653   2.353   0.923  14.271 -0.0001 -0.1762  0.1116
17388TIP3   OH273654   2.455   1.795  16.312 -0.0989  0.1821 -0.3189
17388TIP3    H173655   2.500   1.712  16.295  0.9545  0.4812  0.8895
17388TIP3    H273656   2.400   1.778  16.388 -0.0774  0.5344 -0.2231
17389TIP3   OH273657   2.997   4.414  12.914 -0.0069 -0.1846  0.0647
17389TIP3    H173658   2.987   4.403  13.009  0.6104  1.3890  0.3381
17389TIP3    H273659   3.085   4.380  12.896 -0.4794 -1.3518 -0.1148
17390TIP3   OH273660   1.897   5.038  16.029 -0.1047  0.0960  0.1639
17390TIP3    H173661   1.982   5.068  16.060 -0.0256 -0.7227  0.7439
17390TIP3    H273662   1.835   5.103  16.063  0.3725  1.3921 -1.2688
17391TIP3   OH273663   5.270   0.983   3.761 -0.0972  0.0823  0.3656
17391TIP3    H173664   5.183   0.998   3.798 -0.2703 -2.4506  1.1857
17391TIP3    H273665   5.321   1.059   3.787 -1.3448  0.3132  2.2915
17392TIP3   OH273666   3.655   2.295  10.759 -0.1427  0.6100  0.5333
17392TIP3    H173667   3.735   2.255  10.724 -0.7662 -2.2983  2.0547
17392TIP3    H273668   3.679   2.323  10.848 -0.8993 -0.9441  1.2730
17393TIP3   OH273669   4.390   5.371  16.776  0.5758 -0.2326 -0.4382
17393TIP3    H173670   4.352   5.284  16.787 -0.4249  0.3617  1.3035
17393TIP3    H273671   4.481   5.354  16.753  0.1981 -1.7254 -0.9764
17394TIP3   OH273672   3.709   6.554  14.048 -0.2819  0.2419  1.0931
17394TIP3    H173673   3.621   6.518  14.055 -0.3867  0.2833  0.1175
17394TIP3    H273674   3.700   6.645  14.076 -0.5500  0.2479  0.9887
17395TIP3   OH273675   4.343   5.188   3.539 -0.3037 -0.3209 -0.5413
17395TIP3    H173676   4.292   5.107   3.532 -1.2064  0.0738  1.0237
17395TIP3    H273677   4.383   5.184   3.626  1.5701 -0.1496 -1.3543
17396TIP3   OH273678   4.981   1.687  15.973 -0.1064  0.1879  0.7835
17396TIP3    H173679   5.057   1.698  15.917  1.8427  0.2242  3.2461
17396TIP3    H273680   4.930   1.768  15.961  0.4915  0.3961 -0.5030
17397TIP3   OH273681   6.591   3.704   3.366  0.0399 -0.2644 -0.7810
17397TIP3    H173682   6.496   3.704   3.381  0.0533 -1.7113 -0.5446
17397TIP3    H273683   6.601   3.725   3.274 -0.4791  0.4481 -0.6845
17398TIP3   OH273684   6.080   1.342   5.719  0.0390 -0.0551  0.0314
17398TIP3    H173685   6.018   1.374   5.655  0.7422 -0.2903 -0.7839
17398TIP3    H273686   6.026   1.310   5.792 -0.7495  0.4503 -0.3265
17399TIP3   OH273687   2.831   5.216   4.712  0.4324  0.5536  0.0424
17399TIP3    H173688   2.919   5.255   4.711  0.0851  1.3648  0.3133
17399TIP3    H273689   2.806   5.216   4.805  0.5923 -0.7325  0.1084
17400TIP3   OH273690   1.172   0.802  11.930 -0.0271 -0.0023 -0.5952
17400TIP3    H173691   1.157   0.716  11.969 -0.0134 -1.2515 -3.1406
17400TIP3    H273692   1.258   0.794  11.887 -1.2491  0.2141 -3.3037
17401TIP3   OH273693   3.661   6.019   4.731  0.5029  0.2552 -0.2230
17401TIP3    H173694   3.677   6.056   4.645 -1.7205 -0.0298 -0.8215
17401TIP3    H273695   3.624   6.092   4.782  0.6311  0.1050  0.0844
17402TIP3   OH273696   6.440   3.377   0.302  0.1940 -1.2595  0.3776
17402TIP3    H173697   6.389   3.358   0.380 -1.3131 -1.2750 -0.5723
17402TIP3    H273698   6.473   3.466   0.317 -1.9261 -0.3703  0.1266
17403TIP3   OH273699   1.828   5.919   3.057  0.4433 -0.1100 -0.1064
17403TIP3    H173700   1.879   5.982   3.005 -1.4150  0.3645 -1.4528
17403TIP3    H273701   1.801   5.852   2.994  0.0882 -0.7963  0.7523
17404TIP3   OH273702   2.561   2.982   1.784 -0.4792  0.0788  0.1283
17404TIP3    H173703   2.570   3.077   1.777 -0.9199  0.4110  2.7503
17404TIP3    H273704   2.523   2.969   1.871  1.1102 -2.5909  0.5267
17405TIP3   OH273705   0.319   1.580   1.119 -1.0747  0.1144  0.6231
17405TIP3    H173706   0.305   1.594   1.025 -1.5590 -0.7077  0.5693
17405TIP3    H273707   0.257   1.511   1.143  0.6550 -1.3949  1.0360
17406TIP3   OH273708   5.065   1.791  13.079  0.3773 -0.5836  0.3046
17406TIP3    H173709   5.063   1.873  13.128  1.8706 -0.3400  0.0073
17406TIP3    H273710   5.123   1.808  13.005 -0.4218 -1.4840 -0.5864
17407TIP3   OH273711   3.032   5.000  16.261 -0.6624 -0.4415  0.1062
17407TIP3    H173712   3.114   5.043  16.233 -0.1764 -0.7178  1.0375
17407TIP3    H273713   2.965   5.066  16.246 -0.0306  0.3905  0.7918
17408TIP3   OH273714   0.586   0.530  14.899  0.0349  0.2034  0.1861
17408TIP3    H173715   0.612   0.619  14.877  1.4676 -0.1117  0.4687
17408TIP3    H273716   0.664   0.492  14.939  0.1255 -1.7717 -1.6582
17409TIP3   OH273717   6.535   4.834   0.828 -0.2810  0.0419  0.4628
17409TIP3    H173718   6.604   4.797   0.773  1.1958  1.8942  1.0048
17409TIP3    H273719   6.487   4.757   0.861  0.9942 -1.2400 -0.5652
17410TIP3   OH273720   5.996   1.844   2.172  0.1824  0.0484 -0.0489
17410TIP3    H173721   6.019   1.810   2.085  1.2409  1.2118 -0.2527
17410TIP3    H273722   5.932   1.913   2.154  0.2914  0.1898  0.1066
17411TIP3   OH273723   5.922   6.753   0.323  0.3649  0.1801 -0.0585
17411TIP3    H173724   5.973   6.674   0.304 -0.1929  0.1923 -1.8345
17411TIP3    H273725   5.981   6.808   0.373  0.7446 -1.3840  1.2937
17412TIP3   OH273726   6.176   3.697   5.406 -0.5393 -0.0935 -0.3973
17412TIP3    H173727   6.099   3.641   5.414 -0.5628 -0.0531 -0.3360
17412TIP3    H273728   6.143   3.786   5.422 -0.4828 -0.0751 -0.3807
17413TIP3   OH273729   0.271   5.931   6.027  0.4170 -0.4085 -0.1922
17413TIP3    H173730   0.235   5.982   5.954 -0.2135  0.4944  0.7201
17413TIP3    H273731   0.195   5.906   6.079  1.0016  1.6096  1.8274
17414TIP3   OH273732   2.439   4.851  11.558 -0.5575 -0.1120  0.2412
17414TIP3    H173733   2.386   4.862  11.636 -0.8987 -2.9078  0.4668
17414TIP3    H273734   2.379   4.817  11.492 -0.1495  1.6815 -1.1625
17415TIP3   OH273735   0.666   1.281  11.320  0.2461  0.4832  0.1446
17415TIP3    H173736   0.757   1.251  11.322 -0.3216 -1.4309 -0.3558
17415TIP3    H273737   0.626   1.242  11.398 -0.8807 -1.4851 -1.3074
17416TIP3   OH273738   1.659   5.657  16.230  0.1251  0.0689 -0.3003
17416TIP3    H173739   1.613   5.582  16.192  2.3538 -0.8703 -1.3001
17416TIP3    H273740   1.654   5.643  16.325  1.8609 -2.2804 -0.4770
17417TIP3   OH273741   3.425   2.889  17.109  0.2834  0.1214  0.5816
17417TIP3    H173742   3.365   2.814  17.112  1.9507 -1.2794  0.2071
17417TIP3    H273743   3.381   2.955  17.162 -1.0215 -1.2891  1.3734
17418TIP3   OH273744   1.226   5.656  13.385 -0.3951  0.0358  0.1165
17418TIP3    H173745   1.179   5.585  13.429 -3.5605 -0.4782 -3.6418
17418TIP3    H273746   1.196   5.735  13.430  0.6790 -0.6434  2.2178
17419TIP3   OH273747   1.950   4.723   4.839  0.4081 -0.1264  0.1385
17419TIP3    H173748   1.957   4.818   4.838  1.1353 -0.1277  1.8144
17419TIP3    H273749   1.912   4.703   4.925  0.9789 -1.3839  0.1136
17420TIP3   OH273750   6.595   5.794  12.359  0.1845 -0.1641  0.0324
17420TIP3    H173751   6.534   5.860  12.327 -1.2004 -0.6034  1.6431
17420TIP3    H273752   6.570   5.780  12.450  2.5344 -0.5754  0.6855
17421TIP3   OH273753   5.342   4.178  12.372  0.5181 -0.2321  0.0755
17421TIP3    H173754   5.397   4.249  12.405  0.4391  0.3139 -0.9335
17421TIP3    H273755   5.330   4.120  12.447  1.7255  0.1029  0.5425
17422TIP3   OH273756   3.932   3.886   5.982 -0.0094  0.3238  0.4276
17422TIP3    H173757   3.947   3.919   5.893 -1.9954 -1.3576 -0.5993
17422TIP3    H273758   3.979   3.948   6.038  1.2118  1.5048 -1.7537
17423TIP3   OH273759   2.935   4.026   0.282 -0.0282  0.2031 -0.7053
17423TIP3    H173760   2.851   4.065   0.308  0.1469  1.0125 -1.3034
17423TIP3    H273761   2.926   3.934   0.305 -0.6492  0.4832  0.2944
17424TIP3   OH273762   1.264   0.988  13.029  0.7672 -0.2012 -0.4056
17424TIP3    H173763   1.257   1.077  12.993  2.2023  0.3507  0.5727
17424TIP3    H273764   1.301   1.001  13.116  0.4886 -1.7445 -0.0254
17425TIP3   OH273765   2.222   3.253  13.473  0.3889  0.1514 -0.0670
17425TIP3    H173766   2.178   3.228  13.391  2.5519 -0.6001 -1.0822
17425TIP3    H273767   2.154   3.294  13.525 -1.3663 -0.4564 -1.7522
17426TIP3   OH273768   0.617   1.432   3.253 -0.3214  0.2355  0.2280
17426TIP3    H173769   0.589   1.434   3.344 -2.6467 -0.5064 -0.3980
17426TIP3    H273770   0.630   1.524   3.229  0.6427  0.4207  1.3465
17427TIP3   OH273771   3.673   5.568  15.062  0.5874 -0.6227  0.1413
17427TIP3    H173772   3.578   5.570  15.059  0.5614  2.5590 -2.4272
17427TIP3    H273773   3.701   5.571  14.970  3.2632 -3.2275  0.7147
17428TIP3   OH273774   0.812   0.271  16.939  0.3536  0.4106 -0.1311
17428TIP3    H173775   0.819   0.362  16.909 -1.0091  0.6775  0.3357
17428TIP3    H273776   0.723   0.262  16.972  0.1874 -1.3358 -0.9283
17429TIP3   OH273777   1.816   5.855   5.793  0.3741 -0.0481  0.3063
17429TIP3    H173778   1.850   5.927   5.846  1.1119  0.1648 -0.4304
17429TIP3    H273779   1.723   5.874   5.783  0.6894  1.2096 -0.4688
17430TIP3   OH273780   2.456   1.984  11.169  0.5067  0.1298 -0.3094
17430TIP3    H173781   2.480   2.009  11.080  2.2483 -1.1207 -0.2296
17430TIP3    H273782   2.512   1.909  11.190 -3.0764 -2.7822  0.1052
17431TIP3   OH273783   6.330   2.781  16.998 -0.2993 -0.4420  0.1791
17431TIP3    H173784   6.273   2.764  17.073 -0.7814  0.7343  0.0979
17431TIP3    H273785   6.270   2.783  16.923  0.0521 -0.6562 -0.1079
17432TIP3   OH273786   6.850   1.002   5.341  0.3119  0.1574 -0.1361
17432TIP3    H173787   6.871   1.061   5.414 -0.5443  0.2424  0.0546
17432TIP3    H273788   6.883   0.917   5.369 -0.5138  0.0643  0.6204
17433TIP3   OH273789   5.892   0.065   2.460  0.1693  0.7186  0.4760
17433TIP3    H173790   5.847   0.081   2.378 -0.7415 -0.3145  0.7496
17433TIP3    H273791   5.903   0.152   2.499  1.4772  1.3260 -1.1423
17434TIP3   OH273792   6.218   1.779  11.349 -0.5908 -0.0362  0.3543
17434TIP3    H173793   6.232   1.844  11.280 -2.3777  0.0372  0.0221
17434TIP3    H273794   6.305   1.765  11.387 -0.0852  2.1676  0.1051
17435TIP3   OH273795   5.831   4.154  11.055  0.9476  0.4246 -0.4808
17435TIP3    H173796   5.853   4.078  11.109 -0.6612  0.8817  0.9270
17435TIP3    H273797   5.883   4.226  11.093  1.9246  0.2123 -1.3583
17436TIP3   OH273798   2.486   6.234  15.750 -0.6690 -0.5103  0.0019
17436TIP3    H173799   2.531   6.242  15.665 -1.4413 -3.2228 -0.7654
17436TIP3    H273800   2.393   6.231  15.728 -0.9660  0.0208  1.1031
17437TIP3   OH273801   3.541   2.456  11.544 -0.2532  0.5602  0.8677
17437TIP3    H173802   3.469   2.509  11.578 -1.5890 -0.5839 -0.0897
17437TIP3    H273803   3.502   2.402  11.476  1.4823 -0.2337  0.4351
17438TIP3   OH273804   6.572   2.894   0.755 -0.6289  0.3297  0.6078
17438TIP3    H173805   6.579   2.798   0.752  0.0187  0.3481  1.4141
17438TIP3    H273806   6.648   2.925   0.706  0.0292  0.4351  1.6684
17439TIP3   OH273807   5.680   0.978   0.088 -0.0163 -0.5569  0.1559
17439TIP3    H173808   5.656   1.003  -0.001 -0.6485 -0.6757  0.2858
17439TIP3    H273809   5.679   1.059   0.138 -0.5528 -0.6187  0.2475
17440TIP3   OH273810   2.892   3.316   2.176  0.2387  0.1153  0.1579
17440TIP3    H173811   2.906   3.390   2.234  2.2240 -0.6010  0.6755
17440TIP3    H273812   2.854   3.248   2.232 -0.8805  0.4684 -0.1486
17441TIP3   OH273813   0.396   4.144  16.564  0.8095  0.2777  0.3232
17441TIP3    H173814   0.489   4.124  16.552  0.9143  1.0376 -0.1979
17441TIP3    H273815   0.389   4.237  16.542 -0.1957  0.0588 -0.3272
17442TIP3   OH273816   5.249   6.387  16.917  0.2118  0.2865 -0.1183
17442TIP3    H173817   5.232   6.296  16.896  0.2509 -0.0320  1.1808
17442TIP3    H273818   5.338   6.403  16.885  0.6806 -0.4982  0.7638
17443TIP3   OH273819   5.645   4.625   4.585 -0.3636 -0.5208  0.0824
17443TIP3    H173820   5.726   4.589   4.623 -0.4639 -1.1916 -0.3149
17443TIP3    H273821   5.615   4.557   4.525 -0.7454  0.0999 -0.4450
17444TIP3   OH273822   1.805   6.087  16.174 -0.4724  0.0661  0.5763
17444TIP3    H173823   1.798   6.010  16.118  1.7736  1.0388 -1.2004
17444TIP3    H273824   1.732   6.143  16.148 -0.6553 -0.3926  0.1024
17445TIP3   OH273825   4.396   1.617  16.888  0.0590 -0.5613  0.1081
17445TIP3    H173826   4.304   1.596  16.903 -0.6220  2.1924  0.3314
17445TIP3    H273827   4.394   1.682  16.817  1.5132  1.6105  1.9099
17446TIP3   OH273828   6.070   6.253  11.280  0.0765 -0.8362 -0.2301
17446TIP3    H173829   6.149   6.208  11.250  0.1273 -0.7491 -0.2289
17446TIP3    H273830   6.077   6.340  11.241  1.1070 -0.0502  1.5537
17447TIP3   OH273831   1.156   2.362  15.507 -0.3754  0.3208  0.1986
17447TIP3    H173832   1.138   2.451  15.477  1.8173  1.7543  2.6666
17447TIP3    H273833   1.128   2.361  15.598  0.4163 -1.2381  0.4654
17448TIP3   OH273834   6.621   1.536  12.693  0.5935 -0.8229 -0.0168
17448TIP3    H173835   6.673   1.604  12.737 -1.6540  0.5985  0.6172
17448TIP3    H273836   6.636   1.457  12.744  2.2983 -0.5247 -0.0161
17449TIP3   OH273837   2.032   0.579   3.173 -0.5680  0.1014 -0.4603
17449TIP3    H173838   1.955   0.577   3.230 -0.8094  0.4700 -0.7690
17449TIP3    H273839   2.090   0.511   3.208 -0.9279 -0.0112 -0.0795
17450TIP3   OH273840   0.220   5.741  11.708 -0.0581 -0.3211  0.0349
17450TIP3    H173841   0.243   5.824  11.748 -1.8146  0.4241 -0.3913
17450TIP3    H273842   0.263   5.675  11.762  0.0798  0.7962  1.3321
17451TIP3   OH273843   2.399   0.207  14.395  0.1750  0.3588  0.0020
17451TIP3    H173844   2.405   0.153  14.474  0.4663  2.0161  1.1666
17451TIP3    H273845   2.368   0.147  14.327 -1.4682 -0.8263  1.7020
17452TIP3   OH273846   3.662   0.396   0.252  0.3343 -0.3876  0.2376
17452TIP3    H173847   3.604   0.428   0.184 -0.2511 -1.2434  0.3136
17452TIP3    H273848   3.611   0.403   0.333  0.8769  0.2446  0.5339
17453TIP3   OH273849   1.646   1.924   1.736  0.1502  0.6738 -0.2273
17453TIP3    H173850   1.594   1.934   1.656 -1.1148  3.1031  0.8065
17453TIP3    H273851   1.585   1.888   1.800  1.0770 -0.9701 -0.1932
17454TIP3   OH273852   5.680   3.066  14.959  0.6170  0.6719 -0.0094
17454TIP3    H173853   5.677   2.983  15.007  0.0354 -0.3385 -1.7061
17454TIP3    H273854   5.737   3.048  14.884 -1.7472  0.8707 -1.9738
17455TIP3   OH273855   6.736   0.767   2.380 -0.3786 -0.0649 -0.5323
17455TIP3    H173856   6.641   0.775   2.384 -0.3548  0.4115 -0.7916
17455TIP3    H273857   6.756   0.688   2.430 -0.6638  1.3374  1.9600
17456TIP3   OH273858   2.863   0.410  15.651  0.4208  0.2557 -0.4213
17456TIP3    H173859   2.833   0.487  15.699  0.1061 -0.0585 -0.1082
17456TIP3    H273860   2.785   0.355  15.643  0.5955  0.0608 -0.8230
17457TIP3   OH273861   2.913   0.337  14.776  0.5701 -0.5492  0.2183
17457TIP3    H173862   2.860   0.298  14.845  0.1979 -1.5907 -0.6142
17457TIP3    H273863   2.849   0.365  14.710  1.0013 -1.5822 -0.6798
17458TIP3   OH273864   3.309   1.821   0.198  0.1887 -0.0406  0.4320
17458TIP3    H173865   3.363   1.754   0.240  0.6237 -0.3422 -0.5893
17458TIP3    H273866   3.240   1.771   0.154  1.0415  0.0937 -1.1092
17459TIP3   OH273867   5.980   2.917   5.289  0.3416 -0.2009 -0.2727
17459TIP3    H173868   5.959   2.834   5.332  1.1894 -0.8554 -1.0638
17459TIP3    H273869   6.058   2.949   5.335  1.2585 -0.9088 -1.2734
17460TIP3   OH273870   5.233   6.625   3.055  0.7459  0.1381  0.2830
17460TIP3    H173871   5.267   6.558   2.995 -0.6404  0.0863 -0.4868
17460TIP3    H273872   5.305   6.688   3.062  1.6263 -0.8063  0.0569
17461TIP3   OH273873   2.688   2.869   3.123  0.0338 -0.8787 -0.2321
17461TIP3    H173874   2.678   2.877   3.028 -0.1825  1.7589 -0.0593
17461TIP3    H273875   2.644   2.946   3.159  1.0659 -1.2237  1.9499
17462TIP3   OH273876   0.305   5.165   5.164  0.4963  0.1240  0.3829
17462TIP3    H173877   0.399   5.161   5.147  0.4817  1.8376 -0.2775
17462TIP3    H273878   0.297   5.181   5.258  0.8891  0.5609  0.3430
17463TIP3   OH273879   4.442   1.930   2.556 -0.6406 -0.1937  0.1152
17463TIP3    H173880   4.451   2.024   2.539  0.9259 -0.1834  0.8389
17463TIP3    H273881   4.419   1.893   2.471 -1.9473  0.8995 -0.0511
17464TIP3   OH273882   4.323   0.110  11.191 -0.3025 -0.4535  0.3824
17464TIP3    H173883   4.229   0.109  11.171  0.1404  0.0906 -2.0867
17464TIP3    H273884   4.364   0.141  11.110  1.9897 -0.2218  1.5545
17465TIP3   OH273885   6.654   6.631   2.542 -0.2595  0.1523 -0.5425
17465TIP3    H173886   6.681   6.582   2.619  0.1592  2.7961  1.1385
17465TIP3    H273887   6.705   6.595   2.470  0.9468 -0.9905  0.8395
17466TIP3   OH273888   4.200   0.997   0.894 -0.2994 -0.0062  0.5677
17466TIP3    H173889   4.276   1.050   0.872 -1.0512  0.6177 -0.6314
17466TIP3    H273890   4.126   1.056   0.883 -1.0679 -0.9908  0.3203
17467TIP3   OH273891   0.617   3.212  10.727  0.1090 -0.1135 -0.0364
17467TIP3    H173892   0.537   3.163  10.742  0.5409 -0.7371  0.2550
17467TIP3    H273893   0.648   3.237  10.814 -0.2935  0.9999 -0.1908
17468TIP3   OH273894   4.776   3.098   2.390 -0.2741  0.0220 -0.0217
17468TIP3    H173895   4.712   3.031   2.368  1.9656 -2.1658 -0.3069
17468TIP3    H273896   4.756   3.170   2.331 -2.3250 -0.6229 -0.2133
17469TIP3   OH273897   5.215   6.168   1.894  0.3278 -0.2973  0.7584
17469TIP3    H173898   5.150   6.194   1.959 -0.3906 -0.6817  0.2184
17469TIP3    H273899   5.261   6.249   1.871  1.3197 -0.3305  2.4983
17470TIP3   OH273900   3.344   2.151  15.501  0.0617  0.0566 -0.0802
17470TIP3    H173901   3.348   2.091  15.576  1.4444  1.2831  0.8902
17470TIP3    H273902   3.429   2.140  15.458 -0.6764 -0.5476 -1.4277
17471TIP3   OH273903   5.930   4.178   5.385  0.2612  0.3108  0.4690
17471TIP3    H173904   5.936   4.207   5.476  1.0408 -0.0586  0.5435
17471TIP3    H273905   5.837   4.186   5.363  0.3879  2.8314  0.4958
17472TIP3   OH273906   1.295   5.454  14.797  0.6208  0.5964 -0.1073
17472TIP3    H173907   1.312   5.499  14.879  0.5105  0.7039 -0.1432
17472TIP3    H273908   1.380   5.418  14.771  0.8326  1.2821 -0.3763
17473TIP3   OH273909   6.151   5.762   6.705  0.0715  0.0578  0.1456
17473TIP3    H173910   6.144   5.853   6.734 -0.1532  0.5945 -1.4873
17473TIP3    H273911   6.121   5.710   6.780 -0.7331  1.3711  0.7614
17474TIP3   OH273912   1.226   0.273  16.810 -0.3814 -0.0587  0.0936
17474TIP3    H173913   1.204   0.341  16.874 -1.1266  0.0487 -0.2646
17474TIP3    H273914   1.322   0.271  16.809 -0.3321  1.6006 -0.5330
17475TIP3   OH273915   0.114   2.280  11.779 -0.5135  0.2812  0.0901
17475TIP3    H173916   0.033   2.328  11.801 -0.2723  0.2047  1.1960
17475TIP3    H273917   0.127   2.221  11.853  1.5145  1.5423  0.8183
17476TIP3   OH273918   6.012   5.806   4.095  0.1339 -0.3849 -0.4030
17476TIP3    H173919   5.986   5.725   4.140  0.5772 -1.1287 -1.4439
17476TIP3    H273920   6.108   5.805   4.098  0.1835  1.6558  2.2222
17477TIP3   OH273921   5.295   1.935  14.587 -0.0515  0.0781  0.3408
17477TIP3    H173922   5.217   1.990  14.589  0.8809  1.7745 -2.9332
17477TIP3    H273923   5.366   1.993  14.615  0.3302 -0.8870  1.4464
17478TIP3   OH273924   4.363   5.435  14.321  0.2505  0.3872 -0.2005
17478TIP3    H173925   4.396   5.347  14.306  0.0078  0.2355  0.1505
17478TIP3    H273926   4.318   5.430  14.406  0.8904  1.0304  0.1864
17479TIP3   OH273927   5.278   0.072   0.938 -0.4043 -0.5782  0.4715
17479TIP3    H173928   5.310  -0.002   0.990  2.3359  0.1308 -0.0204
17479TIP3    H273929   5.240   0.032   0.860  1.0543 -1.5307  0.2014
17480TIP3   OH273930   2.880   5.110  15.904 -0.3424  0.1811 -0.3931
17480TIP3    H173931   2.967   5.147  15.918  0.3956 -1.6589  0.3224
17480TIP3    H273932   2.843   5.103  15.992 -1.1852  0.8474 -0.6817
17481TIP3   OH273933   3.458   6.251  14.957  0.1960 -0.3912 -0.2733
17481TIP3    H173934   3.545   6.241  14.919 -0.5165  0.2207 -2.1617
17481TIP3    H273935   3.398   6.221  14.889 -1.0648 -2.2315  1.5227
17482TIP3   OH273936   4.542   6.398   3.855  0.0739  0.5345 -0.0932
17482TIP3    H173937   4.628   6.356   3.860  0.1703  0.7566  0.1669
17482TIP3    H273938   4.482   6.329   3.827 -0.0183 -0.1232  1.6386
17483TIP3   OH273939   6.091   4.383  16.447 -0.0705  0.0985  0.5790
17483TIP3    H173940   6.017   4.375  16.387  0.5538 -0.7739 -0.1057
17483TIP3    H273941   6.168   4.366  16.392  0.4554 -1.8567  1.8359
17484TIP3   OH273942   5.098   0.165  15.642  0.1519 -0.5308 -0.1511
17484TIP3    H173943   5.127   0.256  15.638  2.5008 -1.1766  0.5842
17484TIP3    H273944   5.178   0.116  15.660 -1.2365 -2.6393  0.5465
17485TIP3   OH273945   2.225   5.852  15.954 -0.5449  0.4510 -0.8609
17485TIP3    H173946   2.264   5.866  15.868  0.0974  0.2429 -0.6024
17485TIP3    H273947   2.235   5.936  15.999  1.9659 -0.3179  0.1471
17486TIP3   OH273948   4.431   4.919   4.434 -0.4726  0.2072  0.3986
17486TIP3    H173949   4.403   5.011   4.440 -1.9734 -0.0903 -1.1448
17486TIP3    H273950   4.410   4.882   4.520 -0.2122  1.1987  0.9087
17487TIP3   OH273951   3.934   4.554   4.838 -0.4364  0.5227 -0.2322
17487TIP3    H173952   3.891   4.639   4.841 -2.6002 -0.5143 -0.3254
17487TIP3    H273953   3.988   4.557   4.759 -2.3512  1.0155 -1.5882
17488TIP3   OH273954   4.305   6.463  16.426  0.2923 -0.0685 -0.0464
17488TIP3    H173955   4.277   6.523  16.495 -1.7851 -0.6124 -0.3222
17488TIP3    H273956   4.293   6.376  16.464 -0.4919 -0.3627 -0.9327
17489TIP3   OH273957   4.027   0.203  14.619 -0.4916  0.5389  0.3867
17489TIP3    H173958   4.004   0.130  14.562 -0.5599 -0.0643  1.1760
17489TIP3    H273959   4.028   0.280  14.561  0.6253 -0.2345 -0.6774
17490TIP3   OH273960   2.160   5.657  16.949  0.2058 -0.2764  0.7553
17490TIP3    H173961   2.152   5.708  17.030  0.7704  1.5223 -0.2714
17490TIP3    H273962   2.201   5.717  16.887  2.0733 -2.3931 -0.1815
17491TIP3   OH273963   5.852   0.807  16.933  0.2612  0.5496 -0.1729
17491TIP3    H173964   5.906   0.794  16.855 -0.0452  0.2803 -0.3432
17491TIP3    H273965   5.762   0.801  16.901  0.0853  2.3965 -0.1463
17492TIP3   OH273966   5.895   5.584   1.858 -0.2767 -0.3194  0.0584
17492TIP3    H173967   5.977   5.572   1.810 -0.4309 -0.2404 -0.2322
17492TIP3    H273968   5.852   5.657   1.812  0.3189  0.8965  1.3357
17493TIP3   OH273969   6.551   0.149   5.242  0.0356  0.9215 -0.6991
17493TIP3    H173970   6.607   0.222   5.272  1.6105 -0.4480 -0.1436
17493TIP3    H273971   6.462   0.180   5.256  0.5782  3.4887 -2.2820
17494TIP3   OH273972   1.281   2.273   6.190  0.2059  0.0595  0.0960
17494TIP3    H173973   1.197   2.260   6.147  1.0793 -0.7037 -1.4866
17494TIP3    H273974   1.298   2.367   6.183 -0.2313  0.1224 -0.1522
17495TIP3   OH273975   3.228   1.148   0.950  0.5063 -0.4841  0.5046
17495TIP3    H173976   3.176   1.068   0.952  0.6761 -0.5868  0.8900
17495TIP3    H273977   3.201   1.195   1.029 -2.3598  1.6152 -1.4887
17496TIP3   OH273978   2.449   4.459   5.130 -0.3305  0.3636 -0.1822
17496TIP3    H173979   2.476   4.541   5.088 -1.8150  1.5983  1.1742
17496TIP3    H273980   2.355   4.455   5.116 -0.0830 -2.0428 -1.7001
17497TIP3   OH273981   0.056   1.182  16.835  0.3932  0.2648  0.5142
17497TIP3    H173982   0.040   1.112  16.772  1.3931  1.9912 -1.8181
17497TIP3    H273983   0.133   1.153  16.883  0.7250 -0.3105 -0.3346
17498TIP3   OH273984   1.649   5.431  13.704  0.1393  0.1061  0.2977
17498TIP3    H173985   1.596   5.357  13.675 -0.9120  0.9350  0.0420
17498TIP3    H273986   1.728   5.426  13.649  0.2795 -1.0432  0.5688
17499TIP3   OH273987   3.606   4.435   2.259  0.0906  0.3486  0.3899
17499TIP3    H173988   3.649   4.370   2.204 -2.9062  0.0943 -1.9007
17499TIP3    H273989   3.570   4.499   2.197  0.1877  2.4754  2.3756
17500TIP3   OH273990   4.434   2.578  12.041 -0.1636  0.0353 -0.0556
17500TIP3    H173991   4.514   2.541  12.078 -0.7486 -1.4327 -0.2185
17500TIP3    H273992   4.447   2.573  11.947 -0.0125  0.8186 -0.0878
17501TIP3   OH273993   1.303   2.398   6.861  0.5487  0.1268 -0.3472
17501TIP3    H173994   1.335   2.487   6.875 -0.4984  0.5093 -0.2834
17501TIP3    H273995   1.380   2.347   6.838  1.1071  1.1182 -0.6809
17502TIP3   OH273996   3.423   5.833   2.952  0.1608  0.4371  0.2646
17502TIP3    H173997   3.514   5.848   2.924  0.0801 -0.7460 -0.6850
17502TIP3    H273998   3.374   5.906   2.913  0.2634 -0.4641 -1.6353
17503TIP3   OH273999   4.853   0.641  16.240  0.3013 -0.2290  0.1622
17503TIP3    H174000   4.849   0.561  16.294 -0.0069 -0.2572  0.0997
17503TIP3    H274001   4.865   0.712  16.304 -0.9726 -0.1680  0.3554
17504TIP3   OH274002   1.859   1.535  13.083  0.3833  0.3180 -0.4918
17504TIP3    H174003   1.918   1.533  13.159  0.2184  0.7125 -0.3533
17504TIP3    H274004   1.890   1.463  13.028  0.1568 -0.3440  0.2104
17505TIP3   OH274005   1.041   1.846   5.644 -0.5726 -0.2766  0.6625
17505TIP3    H174006   1.106   1.817   5.709 -0.1045  0.1263  0.3784
17505TIP3    H274007   1.071   1.932   5.616 -0.0478 -0.9743 -1.0516
17506TIP3   OH274008   0.345   2.635  11.434 -0.3973  0.5511 -0.5750
17506TIP3    H174009   0.365   2.619  11.342 -0.3953  0.1427 -0.5044
17506TIP3    H274010   0.262   2.590  11.449 -0.4717  0.7401 -0.4150
17507TIP3   OH274011   4.024   3.473  14.598  0.1168 -0.5432 -0.5430
17507TIP3    H174012   4.007   3.481  14.692  0.8686 -3.0078 -0.1217
17507TIP3    H274013   4.118   3.452  14.593 -0.1261 -1.4370 -1.7469
17508TIP3   OH274014   2.129   2.341   2.502  0.0966 -0.5044 -0.2731
17508TIP3    H174015   2.096   2.394   2.574  0.8457  0.2592 -0.4656
17508TIP3    H274016   2.191   2.281   2.543 -0.8074 -1.3020 -0.0440
17509TIP3   OH274017   3.118   4.175  11.903 -0.3432 -0.0835  0.0658
17509TIP3    H174018   3.108   4.267  11.877  1.0453  0.6949  2.0647
17509TIP3    H274019   3.205   4.151  11.870 -0.1781 -0.2840  0.6520
17510TIP3   OH274020   2.682   2.635  11.438  0.6408 -0.9430  0.3821
17510TIP3    H174021   2.604   2.581  11.449  1.1946 -1.3947  2.5790
17510TIP3    H274022   2.735   2.616  11.515  1.9546  0.9515  0.0132
17511TIP3   OH274023   3.176   5.694   4.687 -0.2675  0.6347  0.3628
17511TIP3    H174024   3.165   5.744   4.769  1.3291  1.5634  0.0591
17511TIP3    H274025   3.188   5.604   4.716  0.3289  0.9542  1.1824
17512TIP3   OH274026   5.912   1.975   4.058  0.2101  0.2596  0.6085
17512TIP3    H174027   5.978   1.931   4.111 -1.4117 -0.2117  2.3120
17512TIP3    H274028   5.925   2.068   4.077  0.4672  0.1809  0.8300
17513TIP3   OH274029   6.773   6.102   3.833  0.3670  0.0347 -0.3455
17513TIP3    H174030   6.780   6.135   3.743 -0.9279  0.4416 -0.3157
17513TIP3    H274031   6.714   6.164   3.876  1.5647  0.2829  1.0144
17514TIP3   OH274032   6.258   2.657  13.763 -0.4963  0.8195 -0.6537
17514TIP3    H174033   6.171   2.694  13.772 -0.9303 -0.4122  0.5326
17514TIP3    H274034   6.275   2.614  13.848  1.3147  1.1685 -0.8023
17515TIP3   OH274035   3.520   0.643  13.567 -0.4710 -0.0456 -0.3742
17515TIP3    H174036   3.614   0.662  13.565 -0.6083  0.6971 -0.3796
17515TIP3    H274037   3.510   0.577  13.635 -0.2127  1.5821  1.3190
17516TIP3   OH274038   5.986   6.528  16.875  0.0104 -0.9516 -0.9640
17516TIP3    H174039   6.004   6.437  16.900 -0.6090 -0.7128  0.4705
17516TIP3    H274040   6.072   6.570  16.875  0.0394 -0.9143  1.1433
17517TIP3   OH274041   3.800   2.463   0.593 -0.2173  0.0421  0.2158
17517TIP3    H174042   3.822   2.372   0.611  1.4074  0.5694  1.1563
17517TIP3    H274043   3.869   2.514   0.638  0.4326  1.6450 -2.3583
17518TIP3   OH274044   1.496   6.085  14.115  0.0133  0.2700  0.0381
17518TIP3    H174045   1.507   6.070  14.021 -0.3420 -3.1557  0.4198
17518TIP3    H274046   1.548   6.164  14.133 -0.8322  1.7052 -3.1575
17519TIP3   OH274047   2.507   1.652   0.306 -0.2115  0.1085 -0.3888
17519TIP3    H174048   2.446   1.605   0.364  0.3745  0.1590  0.2880
17519TIP3    H274049   2.520   1.736   0.350  2.8732 -1.0920  1.2673
17520TIP3   OH274050   6.759   3.096  14.572 -0.8159  0.0835  0.4658
17520TIP3    H174051   6.751   3.192  14.566  0.4625  0.1335 -1.2616
17520TIP3    H274052   6.747   3.066  14.482 -0.2580 -1.3018  0.8389
17521TIP3   OH274053   6.604   0.760   4.849  0.0663 -0.5591  0.8212
17521TIP3    H174054   6.551   0.785   4.924  0.9841  0.7601  1.0530
17521TIP3    H274055   6.563   0.805   4.775 -0.2711 -1.1048  0.6633
17522TIP3   OH274056   0.951   6.763  12.486  0.2261 -0.5552  0.0878
17522TIP3    H174057   0.971   6.746  12.393  1.7976  1.6516 -0.0739
17522TIP3    H274058   0.874   6.819  12.484  0.4073 -0.3036  0.0874
17523TIP3   OH274059   6.323   1.929  16.404  0.0883 -0.6275  0.2591
17523TIP3    H174060   6.402   1.896  16.448 -0.6816 -2.6525  0.1941
17523TIP3    H274061   6.253   1.917  16.468 -0.2410  0.9916  0.2436
17524TIP3   OH274062   6.170   3.940  13.317  0.2201 -0.2080 -0.5938
17524TIP3    H174063   6.094   3.984  13.277 -0.2348 -0.3037  0.1621
17524TIP3    H274064   6.241   3.954  13.254  0.2286  2.0552 -0.1683
17525TIP3   OH274065   3.502   3.659  12.155  0.0294  0.1615 -0.6186
17525TIP3    H174066   3.565   3.731  12.145 -0.1101  0.2124 -1.1786
17525TIP3    H274067   3.546   3.596  12.212  1.0881 -0.3649 -1.9795
17526TIP3   OH274068   5.409   2.212  12.574 -0.1466 -0.6026 -0.0296
17526TIP3    H174069   5.462   2.141  12.610 -0.2804 -0.2916  0.7957
17526TIP3    H274070   5.355   2.170  12.507 -1.4924 -1.6515  1.6386
17527TIP3   OH274071   3.486   4.166  15.242  0.3646  0.0645  0.0367
17527TIP3    H174072   3.479   4.208  15.156 -0.3581 -0.6850 -0.2886
17527TIP3    H274073   3.486   4.072  15.222 -0.8514 -0.1405  0.9144
17528TIP3   OH274074   2.135   3.123  16.217  0.2454  0.0867  0.0167
17528TIP3    H174075   2.184   3.164  16.289 -0.0789 -0.2352  0.4260
17528TIP3    H274076   2.125   3.193  16.152  0.7760  0.3041  0.1659
17529TIP3   OH274077   5.962   4.156  14.398  0.5011 -0.2915 -0.4920
17529TIP3    H174078   6.037   4.133  14.452 -0.5299 -0.1275  1.1088
17529TIP3    H274079   5.903   4.081  14.406 -1.1744  1.1195  1.5660
17530TIP3   OH274080   3.271   5.576  11.219 -0.2538 -0.3131 -0.7169
17530TIP3    H174081   3.321   5.602  11.296 -1.5119 -1.3709  0.4953
17530TIP3    H274082   3.179   5.577  11.248 -0.6798 -1.6942 -1.8965
17531TIP3   OH274083   2.593   4.808   0.966  0.6624  0.5851 -0.2866
17531TIP3    H174084   2.600   4.791   0.872  0.2815 -1.3422  0.0068
17531TIP3    H274085   2.505   4.846   0.977  0.1429 -0.5193 -0.5432
17532TIP3   OH274086   4.782   5.368  10.380  0.1380  0.5072  0.0561
17532TIP3    H174087   4.789   5.276  10.407 -0.3811  0.3639 -0.2836
17532TIP3    H274088   4.807   5.418  10.457  2.5177  0.0725 -0.3368
17533TIP3   OH274089   1.012   5.940   3.695  0.3162  0.0178  0.5380
17533TIP3    H174090   0.919   5.935   3.718  0.6498  0.9108  2.3036
17533TIP3    H274091   1.045   6.013   3.748  1.6388  0.9442 -1.4609
17534TIP3   OH274092   3.597   4.015   0.792 -0.4826 -0.3549 -0.4810
17534TIP3    H174093   3.502   4.003   0.797 -0.4479 -2.0268 -2.5199
17534TIP3    H274094   3.608   4.096   0.743 -0.8738 -0.6278 -1.0251
17535TIP3   OH274095   0.337   1.062  15.702 -0.0705 -0.4968 -0.0242
17535TIP3    H174096   0.399   1.001  15.663 -1.0851 -0.4274 -1.8434
17535TIP3    H274097   0.262   1.007  15.725 -0.7201 -0.0735 -1.0618
17536TIP3   OH274098   3.294   0.177  14.237  1.1459  0.1718 -0.1086
17536TIP3    H174099   3.252   0.230  14.169  2.2584  0.9385 -0.2144
17536TIP3    H274100   3.299   0.235  14.313  0.5337 -0.4576  0.4168
17537TIP3   OH274101   1.159   2.240   2.990 -0.4765 -0.1520  0.2148
17537TIP3    H174102   1.210   2.310   2.948 -0.6870 -0.1719 -0.0728
17537TIP3    H274103   1.152   2.172   2.924  0.4794 -0.8284  0.7833
17538TIP3   OH274104   0.544   3.789  14.182 -0.6816 -0.1035 -0.0416
17538TIP3    H174105   0.469   3.740  14.215 -0.8260 -0.4063 -0.7950
17538TIP3    H274106   0.591   3.816  14.260 -1.4834 -0.0510  0.4377
17539TIP3   OH274107   4.381   1.519  11.029 -0.4907 -0.0690  0.2610
17539TIP3    H174108   4.470   1.493  11.055 -0.9639  0.2852  2.4174
17539TIP3    H274109   4.395   1.580  10.956  0.9267 -1.2081 -0.4882
17540TIP3   OH274110   6.192   0.064  11.493 -0.7570  0.2505  0.5389
17540TIP3    H174111   6.272   0.115  11.505 -0.7386 -0.2253  3.0456
17540TIP3    H274112   6.222  -0.021  11.463 -0.3329  0.2167  1.0355
17541TIP3   OH274113   5.153   4.048  11.221  0.4564 -0.9499  0.2580
17541TIP3    H174114   5.074   4.029  11.169 -1.9294 -1.5999  3.7923
17541TIP3    H274115   5.171   4.140  11.205 -2.7318 -0.0221  1.2944
17542TIP3   OH274116   2.849   1.746  12.939  0.7072  0.1369  0.1262
17542TIP3    H174117   2.825   1.666  12.893  1.6184 -0.0826  0.0082
17542TIP3    H274118   2.938   1.765  12.908  1.4054 -0.0868  1.8635
17543TIP3   OH274119   0.217   2.547   0.317  0.5957 -0.1236  0.0638
17543TIP3    H174120   0.238   2.546   0.411  1.1784 -1.4660 -0.0604
17543TIP3    H274121   0.132   2.503   0.312  1.3840 -1.7048 -0.1799
17544TIP3   OH274122   1.088   4.977  12.184 -0.5006 -0.0211  0.2020
17544TIP3    H174123   1.071   5.054  12.130 -0.3461  0.6198  1.0467
17544TIP3    H274124   1.017   4.917  12.162  0.6535 -0.6373 -2.1968
17545TIP3   OH274125   0.154   5.827  14.759 -0.3515 -0.2465  0.5224
17545TIP3    H174126   0.137   5.750  14.705  0.7589 -1.2403  1.5147
17545TIP3    H274127   0.183   5.893  14.697  0.1011 -1.0975 -0.2071
17546TIP3   OH274128   3.524   4.231   4.050  0.0412  0.3410 -0.1468
17546TIP3    H174129   3.457   4.238   3.982  0.3232  1.3081 -0.3533
17546TIP3    H274130   3.475   4.214   4.131 -0.3889  0.2729 -0.4187
17547TIP3   OH274131   4.992   1.139   4.781  0.4008 -0.3619 -0.1528
17547TIP3    H174132   4.907   1.098   4.762  0.3099 -1.2276  1.9090
17547TIP3    H274133   5.056   1.079   4.743  0.1399 -0.3098 -0.6858
17548TIP3   OH274134   2.247   5.692   0.858  0.1088 -0.0349 -0.2078
17548TIP3    H174135   2.265   5.731   0.944 -0.5412 -1.8413  0.8063
17548TIP3    H274136   2.331   5.691   0.814  0.5459  0.5055  0.5900
17549TIP3   OH274137   3.612   3.394   3.223  0.3579 -0.0556  0.3550
17549TIP3    H174138   3.646   3.471   3.177  0.1171  0.9483  1.7819
17549TIP3    H274139   3.688   3.338   3.236  0.5067 -0.1566 -0.8352
17550TIP3   OH274140   1.970   5.862  11.134 -0.0120 -0.6489  0.4242
17550TIP3    H174141   2.060   5.880  11.108 -0.7699  0.7589 -1.4144
17550TIP3    H274142   1.963   5.766  11.131  1.2191 -0.7385 -0.0904
17551TIP3   OH274143   1.749   1.937   0.163  0.3288 -0.0478 -0.3970
17551TIP3    H174144   1.739   1.994   0.240  0.2513 -1.6622  0.8412
17551TIP3    H274145   1.689   1.972   0.098  0.1050  1.1208  0.4175
17552TIP3   OH274146   1.924   3.983  15.878 -0.4095  0.5086  1.1503
17552TIP3    H174147   1.932   3.936  15.961  0.3785 -0.2748  0.6520
17552TIP3    H274148   1.930   4.076  15.902 -0.1735  0.2922  1.9602
17553TIP3   OH274149   3.053   5.914   4.563 -0.0330  0.2044  0.3849
17553TIP3    H174150   3.117   5.842   4.565 -0.8754 -0.6428 -1.0092
17553TIP3    H274151   3.100   5.987   4.523  0.3351 -0.1228  0.2125
17554TIP3   OH274152   5.227   0.231  12.374  0.4655 -0.3689  0.0298
17554TIP3    H174153   5.254   0.164  12.311  0.8181  0.9228 -1.2574
17554TIP3    H274154   5.149   0.270  12.336  0.3071 -0.0010  0.7197
17555TIP3   OH274155   2.223   0.428  16.839 -0.3408  0.0518 -0.0082
17555TIP3    H174156   2.152   0.485  16.868 -0.9710 -0.3947 -0.6366
17555TIP3    H274157   2.195   0.340  16.863  0.6765 -0.0110  1.0581
17556TIP3   OH274158   6.593   0.265   3.209  0.0754 -0.3498  0.4052
17556TIP3    H174159   6.534   0.311   3.150  1.6136 -0.1447 -1.0494
17556TIP3    H274160   6.627   0.192   3.157  0.1808 -1.1751  1.6036
17557TIP3   OH274161   4.759   1.799   5.020 -0.3530 -0.0129  0.0066
17557TIP3    H174162   4.739   1.758   4.936 -0.5829  0.3822 -0.1343
17557TIP3    H274163   4.758   1.893   5.002  1.9535  0.0609 -0.0911
17558TIP3   OH274164   6.324   2.724   5.070 -0.3520  0.5520  0.0803
17558TIP3    H174165   6.405   2.694   5.111 -0.2274  0.6569 -0.0848
17558TIP3    H274166   6.340   2.816   5.050  0.4348 -0.0030 -2.1876
17559TIP3   OH274167   3.157   2.042  13.322 -0.0454  0.3566 -0.3191
17559TIP3    H174168   3.085   2.003  13.371  0.8924 -0.4794  0.4268
17559TIP3    H274169   3.184   1.974  13.261  0.9809  0.1619  0.3304
17560TIP3   OH274170   6.477   5.029  12.556 -0.4850  0.0810 -0.5732
17560TIP3    H174171   6.498   5.008  12.464 -0.3318  0.2420 -0.5758
17560TIP3    H274172   6.512   5.117  12.568  0.6609 -0.4282  0.0101
17561TIP3   OH274173   5.374   6.228  14.406  0.2987 -0.3733 -0.4346
17561TIP3    H174174   5.454   6.191  14.443 -0.9441 -2.0941  0.7153
17561TIP3    H274175   5.306   6.166  14.431 -1.3480  0.8321 -1.7141
17562TIP3   OH274176   1.055   0.678   0.066  0.5596 -0.0099 -0.3172
17562TIP3    H174177   1.011   0.740   0.125  1.2204 -0.2554  0.4600
17562TIP3    H274178   1.129   0.728   0.031  0.4004  0.0075 -0.6318
17563TIP3   OH274179   0.660   2.991   0.472 -0.7194 -0.5356 -0.2741
17563TIP3    H174180   0.666   2.938   0.393 -0.7447 -1.4273  0.3065
17563TIP3    H274181   0.697   2.935   0.541  2.4174  1.4186 -0.1745
17564TIP3   OH274182   3.362   0.069   0.964 -0.3105 -0.2986  0.3803
17564TIP3    H174183   3.305   0.137   0.929  0.9726  1.2987  1.3072
17564TIP3    H274184   3.446   0.083   0.922 -0.0664 -1.4509  0.4469
17565TIP3   OH274185   3.867   4.536  13.219  0.0161 -0.0952 -0.6362
17565TIP3    H174186   3.941   4.480  13.243 -0.9454 -1.7887 -1.4273
17565TIP3    H274187   3.874   4.546  13.124 -0.0940  0.7761 -0.5645
17566TIP3   OH274188   1.519   1.723   3.433  0.1641 -0.2438  0.5924
17566TIP3    H174189   1.439   1.727   3.381  1.8936 -2.5744 -2.6459
17566TIP3    H274190   1.568   1.801   3.406  0.6810 -0.9926 -0.7627
17567TIP3   OH274191   5.824   1.501   1.161 -0.0266 -0.5614 -0.5433
17567TIP3    H174192   5.778   1.560   1.102 -2.6070 -1.2085  0.6866
17567TIP3    H274193   5.859   1.432   1.103  1.3102  1.0220 -1.7381
17568TIP3   OH274194   3.231   6.752  17.102  0.0404 -0.0359  0.4165
17568TIP3    H174195   3.138   6.736  17.121 -0.0192 -0.0319  0.1379
17568TIP3    H274196   3.235   6.755  17.006  0.2782  0.2591  0.4351
17569TIP3   OH274197   6.039   3.956   0.834  0.2907 -0.8067  0.3814
17569TIP3    H174198   5.959   3.936   0.882  0.3451  0.1999  0.9083
17569TIP3    H274199   6.009   4.006   0.758  0.4747  0.0920  0.8993
17570TIP3   OH274200   4.927   6.510   4.530  0.2164  0.3246 -0.1002
17570TIP3    H174201   5.012   6.490   4.570  0.0775 -0.6678 -0.2758
17570TIP3    H274202   4.868   6.444   4.565 -0.0141 -0.3085 -1.6001
17571TIP3   OH274203   0.693   0.863   5.555  0.3301  0.3590 -0.3678
17571TIP3    H174204   0.627   0.931   5.560 -0.4216 -0.4412  1.2306
17571TIP3    H274205   0.776   0.909   5.566  0.1578  1.4226 -2.7670
17572TIP3   OH274206   4.903   2.779  14.002 -0.3363 -0.5603  0.0760
17572TIP3    H174207   4.935   2.708  13.947  0.2373  0.4267 -0.9123
17572TIP3    H274208   4.972   2.846  13.997 -0.6294 -0.1328  1.3816
17573TIP3   OH274209   2.316   2.004  12.019  0.3230  0.0713  0.7264
17573TIP3    H174210   2.271   1.989  12.102 -1.8993 -1.4703 -0.6507
17573TIP3    H274211   2.348   2.094  12.026 -1.1045  0.5068  2.6656
17574TIP3   OH274212   5.576   4.309   3.844  0.0131  0.4646  0.2467
17574TIP3    H174213   5.560   4.255   3.767 -0.5802  0.6420  0.2415
17574TIP3    H274214   5.657   4.357   3.823  1.4593 -1.5672  0.9065
17575TIP3   OH274215   4.874   3.101  17.028 -0.1906 -0.7236 -0.4573
17575TIP3    H174216   4.850   3.042  17.099  0.2429  1.6290  1.7654
17575TIP3    H274217   4.969   3.102  17.028 -0.1740 -0.8747 -1.2805
17576TIP3   OH274218   6.055   1.570  10.854 -0.2591  0.0818  0.2064
17576TIP3    H174219   6.069   1.488  10.806  0.8729 -0.0084  0.6501
17576TIP3    H274220   6.049   1.637  10.786 -0.6266 -0.2899 -0.1367
17577TIP3   OH274221   0.458   6.099  12.091 -0.1702  0.0686 -0.6829
17577TIP3    H174222   0.542   6.142  12.109  0.3926 -0.6102 -1.5904
17577TIP3    H274223   0.473   6.007  12.112 -0.4788 -0.1756 -1.4957
17578TIP3   OH274224   2.294   5.254   5.388  0.1661  0.1344 -0.6763
17578TIP3    H174225   2.309   5.210   5.304  1.1041 -0.0842 -0.4095
17578TIP3    H274226   2.273   5.344   5.365 -1.1688 -0.2854 -1.2094
17579TIP3   OH274227   2.807   3.098   2.330 -0.2370 -0.4645 -0.6872
17579TIP3    H174228   2.789   3.014   2.288  0.7099 -0.9895 -0.0782
17579TIP3    H274229   2.746   3.103   2.403  0.2779 -1.0306 -0.2067
17580TIP3   OH274230   5.146   6.008  12.416 -0.1833 -0.1529  0.4115
17580TIP3    H174231   5.141   5.937  12.480 -0.6125 -0.8249 -0.3408
17580TIP3    H274232   5.188   5.967  12.339  2.1538  1.1234  0.8996
17581TIP3   OH274233   0.388   3.048  10.805  0.3579 -0.2664 -0.7088
17581TIP3    H174234   0.330   3.013  10.738  0.6099 -1.4730 -0.3146
17581TIP3    H274235   0.330   3.073  10.877  0.1736  0.1605 -1.0022
17582TIP3   OH274236   5.794   2.472  14.350 -0.5556  0.2878  0.4837
17582TIP3    H174237   5.734   2.434  14.286  1.0274 -1.0210 -0.3082
17582TIP3    H274238   5.797   2.408  14.422 -0.0895  0.3106  0.4913
17583TIP3   OH274239   3.269   1.622   2.652  0.0847 -0.7461  0.0631
17583TIP3    H174240   3.343   1.668   2.613  0.6098 -0.4427  1.3593
17583TIP3    H274241   3.220   1.587   2.578 -1.1272  3.0470 -1.1854
17584TIP3   OH274242   4.000   4.770   6.595 -0.6488 -0.6914  0.0458
17584TIP3    H174243   4.061   4.736   6.661 -0.0048 -0.4690 -0.4202
17584TIP3    H274244   3.981   4.694   6.539 -0.1317 -0.5661 -0.3049
17585TIP3   OH274245   6.751   2.237  17.048  0.0552 -0.2447  0.2810
17585TIP3    H174246   6.708   2.238  17.133 -0.7574  0.1069 -0.1321
17585TIP3    H274247   6.692   2.186  16.991  0.3290 -0.0235 -0.2104
17586TIP3   OH274248   0.064   3.773   3.170 -0.2807  0.2138 -0.1511
17586TIP3    H174249   0.106   3.789   3.255  0.9109 -0.0025 -0.6846
17586TIP3    H274250   0.099   3.689   3.141  1.0780  1.3262 -1.8786
17587TIP3   OH274251   3.141   5.206   4.245 -0.0688 -0.6213  0.3905
17587TIP3    H174252   3.187   5.270   4.190  0.4769 -1.3614 -0.0362
17587TIP3    H274253   3.084   5.259   4.301 -1.2691  0.1245 -1.4440
17588TIP3   OH274254   1.858   6.195  15.870 -0.5800 -0.0138  0.1818
17588TIP3    H174255   1.799   6.121  15.853 -2.1755  1.4668 -1.1816
17588TIP3    H274256   1.890   6.220  15.783  0.0431  0.8018  0.6364
17589TIP3   OH274257   0.261   2.777   3.613  0.1316  0.3884 -0.1487
17589TIP3    H174258   0.292   2.839   3.679 -2.5440  0.2307  1.4144
17589TIP3    H274259   0.290   2.814   3.530 -0.2263  3.0594  0.8113
17590TIP3   OH274260   1.831   0.555   1.782  0.2631  0.4785  0.1958
17590TIP3    H174261   1.822   0.502   1.702 -0.8320 -1.7460  1.6894
17590TIP3    H274262   1.745   0.595   1.794  0.4114  0.7658  0.3086
17591TIP3   OH274263   5.529   5.471   5.664 -0.1945 -0.3364  0.2914
17591TIP3    H174264   5.570   5.555   5.683  0.2513 -0.1840 -1.2193
17591TIP3    H274265   5.576   5.409   5.720 -0.2728  0.3550  1.1408
17592TIP3   OH274266   0.119   4.901  14.346 -0.5919 -0.0244 -0.0620
17592TIP3    H174267   0.060   4.950  14.403  1.9161  0.4598  2.3295
17592TIP3    H274268   0.158   4.968  14.289  0.5012  0.3455  1.0677
17593TIP3   OH274269   6.311   4.668  14.797 -0.2065 -0.8605 -0.2874
17593TIP3    H174270   6.347   4.751  14.767  0.4077 -1.6561 -1.8816
17593TIP3    H274271   6.382   4.627  14.845 -0.0485 -1.0349 -0.6640
17594TIP3   OH274272   6.054   1.627   2.358 -0.3381 -0.1645  0.2888
17594TIP3    H174273   6.128   1.592   2.308  0.2489 -0.0681  1.0732
17594TIP3    H274274   6.021   1.700   2.305 -0.2198 -0.5534 -0.3253
17595TIP3   OH274275   1.315   5.727   3.075  0.2665  0.4420 -0.7039
17595TIP3    H174276   1.406   5.751   3.091  0.1481  0.6813 -0.3746
17595TIP3    H274277   1.268   5.811   3.074 -0.0783  0.2624 -0.0289
17596TIP3   OH274278   3.665   5.463   5.184 -0.0799 -0.4041 -0.5834
17596TIP3    H174279   3.711   5.427   5.107  2.1051  2.1852 -0.6347
17596TIP3    H274280   3.734   5.480   5.247 -1.5559 -0.1380  1.0261
17597TIP3   OH274281   5.463   6.815  16.426  0.1466 -0.1330 -0.2890
17597TIP3    H174282   5.448   6.873  16.501 -0.5515  0.4949 -0.8943
17597TIP3    H274283   5.397   6.842  16.362 -2.0208 -3.3235  0.3497
17598TIP3   OH274284   6.627   1.929  15.349  0.2612 -0.2009 -0.0510
17598TIP3    H174285   6.672   1.941  15.433  0.4036  0.2344 -0.1850
17598TIP3    H274286   6.577   1.848  15.360 -1.3176  0.8741  1.1742
17599TIP3   OH274287   1.744   4.654  11.743  0.3327  0.2882  0.0792
17599TIP3    H174288   1.682   4.582  11.749 -1.7009  1.9980  1.0961
17599TIP3    H274289   1.820   4.626  11.793 -0.7330 -0.8408  1.1166
17600TIP3   OH274290   5.765   4.857  12.026 -0.1879 -0.7869 -0.7929
17600TIP3    H174291   5.800   4.771  12.046 -0.5856 -0.9159 -0.6453
17600TIP3    H274292   5.782   4.909  12.105 -0.8803 -1.0245 -0.4762
17601TIP3   OH274293   2.494   2.288   5.424  0.0046 -0.7137  0.0999
17601TIP3    H174294   2.436   2.364   5.416  1.0145  0.1912  1.1468
17601TIP3    H274295   2.436   2.217   5.451 -0.6666  0.1061  0.8676
17602TIP3   OH274296   4.388   3.378  11.174 -0.3084  0.7670 -0.0411
17602TIP3    H174297   4.383   3.283  11.162 -2.1880  0.9739 -1.2801
17602TIP3    H274298   4.333   3.396  11.250 -2.1500  1.0497 -1.3559
17603TIP3   OH274299   1.319   4.468   1.263  0.2383 -0.0840  0.1017
17603TIP3    H174300   1.287   4.467   1.173  1.0457 -0.6378 -0.1914
17603TIP3    H274301   1.242   4.488   1.316 -0.5344 -1.1349 -0.5915
17604TIP3   OH274302   2.836   6.021   2.334 -0.1735  0.1551  0.0940
17604TIP3    H174303   2.809   6.107   2.367  0.0185  0.4993 -0.6108
17604TIP3    H274304   2.764   5.993   2.277 -0.6040 -0.5335  0.9503
17605TIP3   OH274305   5.196   4.208  10.960  0.4538 -0.1382  0.3759
17605TIP3    H174306   5.269   4.267  10.945  0.2997 -0.0993 -0.2132
17605TIP3    H274307   5.176   4.171  10.874 -0.2973 -0.0579  0.5094
17606TIP3   OH274308   0.518   1.781  12.143  0.1988 -0.1338  0.1930
17606TIP3    H174309   0.455   1.798  12.213 -0.1033 -0.9279  0.1261
17606TIP3    H274310   0.506   1.689  12.122 -0.7066  0.4103 -1.8785
17607TIP3   OH274311   4.438   2.921   4.068  0.1975  0.1389 -0.4327
17607TIP3    H174312   4.380   2.853   4.103  2.8496 -2.0595  0.0027
17607TIP3    H274313   4.510   2.873   4.028  1.0740  2.7276 -2.1958
17608TIP3   OH274314   5.954   0.519  15.058 -0.0639  0.4728  0.4152
17608TIP3    H174315   5.885   0.581  15.081 -2.3501 -1.8289  0.2825
17608TIP3    H274316   5.951   0.454  15.129 -0.6471 -1.6353 -1.4367
17609TIP3   OH274317   1.979   6.589  15.025 -0.4925  0.2887  0.1092
17609TIP3    H174318   1.890   6.616  15.048 -0.4882  0.1576  0.2807
17609TIP3    H274319   2.034   6.663  15.049 -0.4748  0.1097  0.6232
17610TIP3   OH274320   6.202   5.376  16.025 -0.3213  0.0634  0.4254
17610TIP3    H174321   6.271   5.311  16.026 -0.8458 -0.5456 -0.9229
17610TIP3    H274322   6.228   5.440  16.092  1.7059  0.0435 -0.2778
17611TIP3   OH274323   6.806   4.150  14.356 -0.1080  0.1427 -0.2329
17611TIP3    H174324   6.762   4.100  14.287 -0.2781 -0.7951  0.5364
17611TIP3    H274325   6.739   4.210  14.389 -1.1431 -1.8551  1.5121
17612TIP3   OH274326   0.095   0.980   6.212  0.0155  0.2247  0.0081
17612TIP3    H174327   0.111   1.039   6.287  1.1119  0.3007 -0.2691
17612TIP3    H274328   0.160   0.911   6.222 -1.9630 -1.6168  0.9507
17613TIP3   OH274329   3.252   0.745  13.465 -0.1568 -0.0179 -0.1532
17613TIP3    H174330   3.346   0.757  13.481 -0.2440  2.7849 -1.2706
17613TIP3    H274331   3.249   0.677  13.397  0.8805 -1.6741  1.3554
17614TIP3   OH274332   6.713   2.654   3.990 -0.4658 -0.1118  0.2964
17614TIP3    H174333   6.774   2.702   3.933 -2.9566  1.9982 -0.7910
17614TIP3    H274334   6.734   2.562   3.976  1.5936  0.4738 -0.9699
17615TIP3   OH274335   2.779   1.392  15.049  0.8519  0.1881 -0.0476
17615TIP3    H174336   2.789   1.443  14.968 -0.7058  1.2312  0.3962
17615TIP3    H274337   2.857   1.414  15.100  1.7912 -0.3694 -1.1624
17616TIP3   OH274338   2.916   5.515  16.649  0.3806 -0.8861 -0.3661
17616TIP3    H174339   2.895   5.597  16.605 -0.7530 -1.2897 -0.6219
17616TIP3    H274340   2.839   5.460  16.635  0.2067 -1.2198  1.6454
17617TIP3   OH274341   1.826   6.621  11.614  0.4328  0.3106  0.2745
17617TIP3    H174342   1.848   6.698  11.561  1.1748 -0.1891 -0.1792
17617TIP3    H274343   1.815   6.654  11.703  0.2184  1.0135 -0.0133
17618TIP3   OH274344   2.802   5.219  14.861  0.3672  0.1376 -0.2096
17618TIP3    H174345   2.716   5.259  14.876  0.1352 -0.5605  0.3877
17618TIP3    H274346   2.803   5.200  14.767  0.6783  1.9502 -0.6050
17619TIP3   OH274347   3.723   6.628  14.850  0.1245 -0.6757  0.9592
17619TIP3    H174348   3.677   6.711  14.866  0.8844 -0.1118  0.3002
17619TIP3    H274349   3.813   6.646  14.874  0.1636 -1.5452  1.5000
17620TIP3   OH274350   3.092   3.595   2.684  0.0681 -0.0439 -0.1536
17620TIP3    H174351   3.090   3.690   2.680  0.5016 -0.0630 -2.8686
17620TIP3    H274352   3.001   3.569   2.698 -0.1080  0.7568  0.2098
17621TIP3   OH274353   1.402   3.600  15.385 -0.2242  0.9165 -0.2102
17621TIP3    H174354   1.391   3.536  15.314 -1.1144  2.0234 -1.1151
17621TIP3    H274355   1.322   3.591  15.438  1.5106 -1.6937  2.2541
17622TIP3   OH274356   5.155   1.613  12.799 -0.4476  0.0378 -0.2474
17622TIP3    H174357   5.075   1.595  12.848 -1.4240  1.1272 -1.3837
17622TIP3    H274358   5.186   1.527  12.771 -1.0917 -0.4104  0.3825
17623TIP3   OH274359   6.585   3.932   4.314  0.2725 -0.1838  0.2024
17623TIP3    H174360   6.679   3.928   4.329  0.6135  0.3610 -1.6026
17623TIP3    H274361   6.547   3.887   4.389  2.0298 -1.8372  0.1664
17624TIP3   OH274362   6.615   3.045   2.439  0.3001 -0.1795  0.0583
17624TIP3    H174363   6.557   3.010   2.506 -0.4012 -1.5200 -1.1803
17624TIP3    H274364   6.558   3.094   2.380  0.2317 -1.9418 -1.4661
17625TIP3   OH274365   4.642   4.898  11.112 -0.4013  0.3820  0.3521
17625TIP3    H174366   4.679   4.948  11.040  1.5927 -3.3168 -1.4744
17625TIP3    H274367   4.706   4.907  11.183 -0.9990  1.7876  0.7564
17626TIP3   OH274368   6.385   2.355  15.311  0.3721 -0.2550 -0.1208
17626TIP3    H174369   6.310   2.340  15.254  0.8371 -0.1583 -0.7717
17626TIP3    H274370   6.461   2.348  15.253  0.8482 -0.0509  0.4681
17627TIP3   OH274371   0.940   5.134  12.381  0.1797  0.2693 -0.5721
17627TIP3    H174372   0.998   5.091  12.318  0.0148  1.0015 -1.2395
17627TIP3    H274373   0.856   5.142  12.336 -1.4026 -3.2606  1.3003
17628TIP3   OH274374   6.298   5.745   6.230  0.3749 -0.1933 -0.0896
17628TIP3    H174375   6.375   5.792   6.196  0.3548 -0.1546 -0.0821
17628TIP3    H274376   6.232   5.754   6.162 -0.2761  1.4329  0.7013
17629TIP3   OH274377   5.751   5.090   1.822  0.2344  0.4341  0.0103
17629TIP3    H174378   5.726   5.029   1.891 -0.1870  0.0897 -0.4398
17629TIP3    H274379   5.671   5.138   1.802  0.2352  0.2100 -0.5531
17630TIP3   OH274380   6.122   4.373   4.416 -0.0568  0.5252 -0.0873
17630TIP3    H174381   6.061   4.308   4.451  0.1736  0.3521 -0.0039
17630TIP3    H274382   6.129   4.352   4.323 -0.6174  0.9440 -0.2249
17631TIP3   OH274383   3.406   4.551   5.843 -0.3331 -0.1501 -0.4488
17631TIP3    H174384   3.427   4.508   5.926 -1.3168 -1.7335 -0.9825
17631TIP3    H274385   3.310   4.557   5.842 -0.2828  0.7887 -1.0255
17632TIP3   OH274386   1.779   4.202  13.503 -0.0258  0.1489 -0.5980
17632TIP3    H174387   1.736   4.285  13.526 -2.9354 -0.4999 -3.1423
17632TIP3    H274388   1.737   4.137  13.559  2.6203  0.2853  1.7755
17633TIP3   OH274389   0.632   5.541  14.356  0.1341 -0.3086  0.1894
17633TIP3    H174390   0.632   5.481  14.281  1.3659 -1.5711  1.1522
17633TIP3    H274391   0.579   5.496  14.422  0.4897 -0.0089  0.6802
17634TIP3   OH274392   3.735   4.943   0.338  0.1580  0.0135  0.6269
17634TIP3    H174393   3.816   4.912   0.298 -0.0849  0.0748  0.0697
17634TIP3    H274394   3.760   5.022   0.386  1.0643 -1.7688  3.2682
17635TIP3   OH274395   0.095   1.102  15.147 -0.0577 -0.1456 -0.3374
17635TIP3    H174396   0.027   1.153  15.191 -0.3140 -1.1121  0.4259
17635TIP3    H274397   0.152   1.071  15.218  1.7525  1.3935 -1.0340
17636TIP3   OH274398   3.441   2.582   4.815  0.8132 -0.2410 -0.1474
17636TIP3    H174399   3.420   2.543   4.730  1.1030 -1.6531  0.4009
17636TIP3    H274400   3.372   2.550   4.873  0.0428  1.5273 -0.0395
17637TIP3   OH274401   2.676   5.538  15.329 -0.0333 -0.6282 -0.0178
17637TIP3    H174402   2.765   5.545  15.363 -0.3768 -0.5704  0.9003
17637TIP3    H274403   2.620   5.536  15.407 -0.7341 -2.3840 -0.5170
17638TIP3   OH274404   6.645   1.016   6.260  0.1615 -0.2730  0.2763
17638TIP3    H174405   6.679   0.948   6.202 -0.0638 -0.5817  0.5014
17638TIP3    H274406   6.709   1.087   6.255 -0.1714 -0.0327 -0.8461
17639TIP3   OH274407   2.272   2.890  13.992  0.5896  0.0815 -0.3420
17639TIP3    H174408   2.277   2.880  13.896  0.6697  0.4468 -0.3780
17639TIP3    H274409   2.198   2.950  14.005  0.3508 -0.2495 -0.1550
17640TIP3   OH274410   2.439   5.224  13.061  0.1174  0.1851  0.3092
17640TIP3    H174411   2.385   5.233  12.983 -0.5270  1.5477  0.8863
17640TIP3    H274412   2.460   5.314  13.087  0.0683 -0.2169  1.8574
17641TIP3   OH274413   5.408   6.220  11.323  0.6759 -0.1171 -0.3949
17641TIP3    H174414   5.384   6.133  11.354 -0.5479 -0.1566 -1.3693
17641TIP3    H274415   5.326   6.268  11.319  1.1983  0.7765 -0.8025
17642TIP3   OH274416   2.395   3.358   5.601 -0.3165  0.5022  0.3138
17642TIP3    H174417   2.321   3.317   5.556  0.4902  0.8873 -1.4742
17642TIP3    H274418   2.365   3.448   5.617  0.0902  0.9999 -1.4236
17643TIP3   OH274419   3.522   2.685  10.835 -0.4721 -0.3940  0.6138
17643TIP3    H174420   3.553   2.772  10.860  0.5949 -0.0341 -1.6636
17643TIP3    H274421   3.499   2.643  10.918  3.3057  0.3943  2.2587
17644TIP3   OH274422   0.480   3.260  16.143  0.6809  0.5382 -0.3967
17644TIP3    H174423   0.516   3.320  16.078  0.1743 -0.9630 -2.1285
17644TIP3    H274424   0.392   3.293  16.161  1.1540  1.4882  0.2782
17645TIP3   OH274425   5.538   2.686  17.102 -0.1835  0.3515 -0.8664
17645TIP3    H174426   5.619   2.641  17.077 -0.5250 -0.2123 -0.9919
17645TIP3    H274427   5.471   2.618  17.097 -0.0593 -0.3314  3.1195
17646TIP3   OH274428   2.016   2.560  16.057 -0.2643 -0.4736 -0.3027
17646TIP3    H174429   2.096   2.605  16.031 -0.6344  0.3472 -0.0815
17646TIP3    H274430   2.035   2.467  16.047  0.9988 -0.3284  0.5447
17647TIP3   OH274431   3.438   1.440  15.370  0.4214  0.2717  0.8601
17647TIP3    H174432   3.489   1.426  15.450  0.9050 -3.2729  0.1071
17647TIP3    H274433   3.504   1.443  15.300 -0.1348  0.6506  0.3377
17648TIP3   OH274434   0.547   3.092  13.837 -0.2452  0.2665 -0.2160
17648TIP3    H174435   0.562   3.176  13.795  1.1949  0.3195  0.3523
17648TIP3    H274436   0.627   3.042  13.820 -1.8277 -1.7640 -2.2685
17649TIP3   OH274437   5.482   3.499  14.192 -1.0369 -0.9968 -0.1405
17649TIP3    H174438   5.388   3.516  14.183 -0.7551  0.4456 -0.6930
17649TIP3    H274439   5.510   3.560  14.261 -0.2454 -0.2989 -1.0542
17650TIP3   OH274440   2.194   5.065  16.830  0.2402  0.1402  0.2526
17650TIP3    H174441   2.111   5.113  16.840 -0.1936 -0.3253 -0.9322
17650TIP3    H274442   2.195   5.004  16.904 -2.2664 -2.3745 -1.5684
17651TIP3   OH274443   6.663   3.079  10.465 -0.1516 -0.0321  0.1809
17651TIP3    H174444   6.651   3.024  10.388  0.0244 -2.1104  1.5524
17651TIP3    H274445   6.591   3.141  10.463 -0.3127 -0.2386 -1.4708
17652TIP3   OH274446   2.074   5.229   1.041  0.2996 -0.4693  0.2079
17652TIP3    H174447   2.029   5.312   1.025  1.8490  0.2362 -0.7626
17652TIP3    H274448   2.057   5.178   0.961  0.8227 -0.3722  0.0300
17653TIP3   OH274449   0.929   3.439   5.358  0.3004  0.5028  0.1794
17653TIP3    H174450   1.022   3.464   5.361  0.4277  0.3020 -1.1553
17653TIP3    H274451   0.930   3.346   5.337 -0.2001  0.6095 -0.3331
17654TIP3   OH274452   3.165   3.355   1.530  0.5902  0.1356  0.1087
17654TIP3    H174453   3.210   3.439   1.541 -2.7046  1.9063  1.7102
17654TIP3    H274454   3.165   3.339   1.436  2.2415  1.3751 -0.1355
17655TIP3   OH274455   5.581   1.635  10.963  0.1211 -0.1916  0.5029
17655TIP3    H174456   5.629   1.675  10.891  0.5795 -1.5388  0.0245
17655TIP3    H274457   5.645   1.631  11.035 -0.8983  3.0236  1.7753
17656TIP3   OH274458   5.810   0.146   3.911 -0.3280  0.0877  0.7757
17656TIP3    H174459   5.778   0.066   3.868 -0.9500  1.0798 -0.6988
17656TIP3    H274460   5.795   0.131   4.004 -0.3781 -1.5282  0.5378
17657TIP3   OH274461   1.981   0.883  11.545 -0.4748 -0.4147 -0.3039
17657TIP3    H174462   1.912   0.931  11.590 -0.6762  0.6326 -1.6529
17657TIP3    H274463   2.027   0.835  11.614 -0.6681  1.2276  1.0251
17658TIP3   OH274464   0.751   6.592   0.209 -0.2728 -0.0344 -0.1198
17658TIP3    H174465   0.810   6.667   0.209  0.8954 -0.9187  0.5636
17658TIP3    H274466   0.676   6.619   0.262 -1.4010  1.7504 -2.4517
17659TIP3   OH274467   2.740   0.186  14.240 -0.7702 -0.2054  0.0519
17659TIP3    H174468   2.660   0.199  14.188 -0.4599  1.4069 -0.0926
17659TIP3    H274469   2.811   0.198  14.176 -0.3939 -1.8751  0.1255
17660TIP3   OH274470   4.089   2.775  11.011 -0.4895  0.4415  0.0329
17660TIP3    H174471   4.001   2.739  10.997 -0.5809  0.7630 -0.2062
17660TIP3    H274472   4.139   2.745  10.935 -0.0462 -0.8131  0.7735
17661TIP3   OH274473   0.214   0.330   5.900 -0.7209  0.5786 -0.9676
17661TIP3    H174474   0.156   0.402   5.925  0.0988  1.3788 -1.3291
17661TIP3    H274475   0.289   0.372   5.858 -0.6376 -0.5498 -2.0080
17662TIP3   OH274476   4.280   5.165   5.967  0.0086 -0.2549  0.0377
17662TIP3    H174477   4.267   5.237   5.905  0.1273  0.8469  1.2565
17662TIP3    H274478   4.332   5.101   5.918  0.8524  0.9752 -0.7398
17663TIP3   OH274479   5.736   3.029  14.662 -0.0989 -0.1462 -0.1266
17663TIP3    H174480   5.781   3.112  14.682  0.3950 -0.3987 -0.1651
17663TIP3    H274481   5.645   3.054  14.648 -0.1870  0.2206  1.0580
17664TIP3   OH274482   4.916   3.641  11.942  0.0526 -0.0231 -0.3100
17664TIP3    H174483   4.996   3.589  11.954  0.9747  1.3981 -0.0556
17664TIP3    H274484   4.845   3.581  11.965  1.0003 -1.4534 -0.9489
17665TIP3   OH274485   6.271   1.509   2.248 -0.8333  0.6884  0.5046
17665TIP3    H174486   6.240   1.419   2.247  0.3549  0.2600 -0.3953
17665TIP3    H274487   6.257   1.540   2.158  0.9457  0.5851  0.1569
17666TIP3   OH274488   5.865   2.376  15.671 -0.0487 -0.2843  0.4999
17666TIP3    H174489   5.827   2.442  15.729 -2.1282 -2.1978  1.5036
17666TIP3    H274490   5.828   2.293  15.702  3.2634 -2.1081  0.0001
17667TIP3   OH274491   6.230   0.380  12.802  0.5725  0.3919 -0.2877
17667TIP3    H174492   6.283   0.322  12.856  1.8392  2.5028  0.8875
17667TIP3    H274493   6.290   0.412  12.735 -0.2133  0.0386 -1.1794
17668TIP3   OH274494   0.020   5.568  15.183 -0.2743 -0.3147  0.1782
17668TIP3    H174495   0.099   5.591  15.232  0.5902 -1.5796 -0.5810
17668TIP3    H274496   0.048   5.500  15.122 -2.1424 -1.4188  0.4856
17669TIP3   OH274497   2.164   0.240   2.290 -0.2810  0.2395  0.0780
17669TIP3    H174498   2.196   0.318   2.336 -0.1495  0.0893  0.2379
17669TIP3    H274499   2.124   0.186   2.359 -1.3114  0.6439 -0.1823
17670TIP3   OH274500   0.792   0.826  16.790  0.1116  0.1570 -0.5755
17670TIP3    H174501   0.711   0.775  16.777  1.8535 -2.5910 -1.5654
17670TIP3    H274502   0.800   0.833  16.885 -0.3789 -1.1564 -0.4128
17671TIP3   OH274503   3.239   0.654  14.235 -0.7255 -0.2527 -0.8516
17671TIP3    H174504   3.182   0.584  14.266 -1.7591  0.0382 -2.0077
17671TIP3    H274505   3.247   0.639  14.141 -1.7183  1.6591 -1.3018
17672TIP3   OH274506   0.277   3.023   4.131 -0.3496 -0.3577  0.2393
17672TIP3    H174507   0.301   2.957   4.196 -1.0963 -0.1177  0.7720
17672TIP3    H274508   0.245   2.972   4.056  0.9337 -0.6517 -0.1361
17673TIP3   OH274509   1.377   4.244  14.885  0.0701  0.3581  0.5036
17673TIP3    H174510   1.304   4.183  14.877 -0.0023  0.4513  0.4523
17673TIP3    H274511   1.401   4.265  14.795 -0.2115  0.7729  0.5252
17674TIP3   OH274512   6.580   5.708  13.626  0.4274  0.4303 -0.0176
17674TIP3    H174513   6.525   5.643  13.669 -0.1496  0.9871  0.0815
17674TIP3    H274514   6.635   5.656  13.566  0.3828 -0.2079  0.4831
17675TIP3   OH274515   1.939   2.080  15.902  0.0435  0.2016 -0.9829
17675TIP3    H174516   1.947   1.987  15.921  1.2438  0.0382 -2.1910
17675TIP3    H274517   1.918   2.084  15.809 -0.9163  1.1321 -0.7500
17676TIP3   OH274518   1.946   4.775   1.455 -0.0335  0.3547  0.3223
17676TIP3    H174519   1.883   4.710   1.424 -1.3553  1.5382  0.3961
17676TIP3    H274520   1.897   4.826   1.520  0.0522  3.0612 -1.5711
17677TIP3   OH274521   0.295   3.545   1.009 -1.0028 -0.5564  0.0362
17677TIP3    H174522   0.220   3.593   1.042 -1.5641 -0.9916 -0.5805
17677TIP3    H274523   0.275   3.453   1.027 -0.7966 -0.7067 -0.4895
17678TIP3   OH274524   6.260   3.948   4.228 -0.7418  0.4280 -0.5281
17678TIP3    H174525   6.248   3.988   4.142  3.3470 -1.0277 -1.9809
17678TIP3    H274526   6.291   3.859   4.210 -1.5008 -0.5995  2.5247
17679TIP3   OH274527   4.247   3.607   0.504  0.2171 -0.1001  0.5060
17679TIP3    H174528   4.224   3.696   0.479 -0.3428 -0.7310 -1.4495
17679TIP3    H274529   4.221   3.554   0.428 -1.4191 -2.2056  2.3871
17680TIP3   OH274530   6.152   4.348  15.606 -0.3215  0.0306 -0.3754
17680TIP3    H174531   6.131   4.274  15.663  2.3323 -1.7513 -1.5151
17680TIP3    H274532   6.241   4.373  15.632 -0.6793  1.9925 -0.9181
17681TIP3   OH274533   5.780   6.703   2.761 -0.1705 -0.2654 -0.0662
17681TIP3    H174534   5.855   6.681   2.706  0.6741  0.4616  0.7583
17681TIP3    H274535   5.740   6.778   2.718 -0.2063 -0.4293 -0.3169
17682TIP3   OH274536   2.894   0.655   5.695  0.2388  0.1645  0.1390
17682TIP3    H174537   2.823   0.719   5.703  0.1826  0.1278 -0.0667
17682TIP3    H274538   2.969   0.697   5.738  0.4929  0.8072 -0.8724
17683TIP3   OH274539   0.365   2.110   3.021  0.1097  0.1589 -0.6048
17683TIP3    H174540   0.273   2.110   2.996 -0.0820  0.9750  0.0814
17683TIP3    H274541   0.403   2.182   2.972 -0.3982  2.1919  1.8153
17684TIP3   OH274542   6.683   4.173  15.640  0.4731  0.0796 -0.3519
17684TIP3    H174543   6.684   4.224  15.721  1.9985  0.7300 -0.7367
17684TIP3    H274544   6.598   4.193  15.600 -0.0051  0.2976  0.7413
17685TIP3   OH274545   3.394   5.530  15.041  0.4971  0.3716  0.0599
17685TIP3    H174546   3.332   5.476  14.991  2.3747 -1.2049 -0.6829
17685TIP3    H274547   3.389   5.616  14.999 -1.5851  0.4714  0.4002
17686TIP3   OH274548   5.303   1.476   5.296 -0.3750  0.2333 -0.0083
17686TIP3    H174549   5.234   1.537   5.323  0.1942  0.7433  0.2970
17686TIP3    H274550   5.280   1.393   5.339  0.9756  1.2208  2.8446
17687TIP3   OH274551   5.857   3.114  11.924 -0.3547 -0.4844 -0.0820
17687TIP3    H174552   5.839   3.179  11.857 -1.9996 -1.0457 -0.2281
17687TIP3    H274553   5.772   3.094  11.962  0.6315  0.6171  2.9788
17688TIP3   OH274554   2.965   5.783   1.005  0.7840 -0.3857  0.4705
17688TIP3    H174555   2.938   5.691   1.002  0.7647 -0.4436  1.8442
17688TIP3    H274556   2.917   5.825   0.934  0.0602 -1.2465  0.4360
17689TIP3   OH274557   6.670   3.021  14.070  0.4983  0.0042  0.1423
17689TIP3    H174558   6.639   3.032  14.160 -1.7832  0.7477 -0.6669
17689TIP3    H274559   6.744   3.081  14.063 -0.2992  1.1524  1.0804
17690TIP3   OH274560   0.285   4.666   2.554  0.3290  0.1044 -0.1275
17690TIP3    H174561   0.271   4.615   2.634  1.7747  0.5320  0.4403
17690TIP3    H274562   0.216   4.733   2.556 -1.9298 -2.0291 -1.1519
17691TIP3   OH274563   5.623   1.118  10.363 -0.4191  0.4650 -0.0676
17691TIP3    H174564   5.670   1.199  10.344 -1.4087  2.0974  3.5896
17691TIP3    H274565   5.690   1.059  10.397 -0.0360  0.4557 -0.8094
17692TIP3   OH274566   2.391   1.385  16.661 -0.4134  0.3964 -0.2857
17692TIP3    H174567   2.329   1.429  16.719  0.5135  0.7438  0.4853
17692TIP3    H274568   2.344   1.374  16.578 -1.1250  1.6621 -0.0794
17693TIP3   OH274569   3.985   5.707   2.820  0.4211 -0.0619  0.6611
17693TIP3    H174570   3.916   5.764   2.855 -1.7492 -1.0508 -1.6911
17693TIP3    H274571   3.990   5.635   2.882 -1.8051 -0.7007  0.2222
17694TIP3   OH274572   5.556   6.218   6.635 -0.3637  0.2011 -0.5687
17694TIP3    H174573   5.488   6.162   6.671  0.3298  0.3182  1.0216
17694TIP3    H274574   5.547   6.210   6.540 -0.1201 -2.8372 -0.4205
17695TIP3   OH274575   0.999   6.711   0.607  0.2051 -0.7160  0.1358
17695TIP3    H174576   1.086   6.678   0.628  0.4686 -0.1266 -0.0087
17695TIP3    H274577   0.956   6.724   0.692  0.4714 -0.4576  0.2335
17696TIP3   OH274578   4.144   5.063  14.568 -0.3554 -0.5043 -0.0643
17696TIP3    H174579   4.174   5.065  14.659  0.4347  1.4324 -0.3131
17696TIP3    H274580   4.221   5.039  14.517 -0.5861 -0.7798 -0.2815
17697TIP3   OH274581   3.847   3.548   4.005 -0.3266 -0.1077 -0.1170
17697TIP3    H174582   3.811   3.583   3.923 -0.1449  0.3667  0.0027
17697TIP3    H274583   3.930   3.594   4.016 -0.3167 -0.2239  0.2953
17698TIP3   OH274584   1.766   0.519  14.985 -0.5156  0.5086 -0.3008
17698TIP3    H174585   1.791   0.599  15.030  1.8941  0.0521 -0.6789
17698TIP3    H274586   1.786   0.536  14.892  1.4849 -0.9269 -0.2249
17699TIP3   OH274587   6.710   4.792  15.967  0.0753 -0.6650 -1.1838
17699TIP3    H174588   6.633   4.757  16.012  0.0998 -0.5860 -1.0803
17699TIP3    H274589   6.697   4.768  15.876 -1.2802  1.4512 -1.6252
17700TIP3   OH274590   6.343   2.191  14.463 -0.3283 -0.5528 -0.5095
17700TIP3    H174591   6.261   2.158  14.427 -0.4590 -1.5477  0.6277
17700TIP3    H274592   6.374   2.121  14.520  1.5108 -0.3496 -1.1888
17701TIP3   OH274593   3.006   6.421  15.683 -0.0995 -0.0647 -0.1873
17701TIP3    H174594   2.989   6.433  15.590 -0.5644  0.8655 -0.0003
17701TIP3    H274595   3.006   6.510  15.719  0.6341 -0.3748  0.6058
17702TIP3   OH274596   0.130   5.966  14.509 -0.2811 -0.2167  0.1046
17702TIP3    H174597   0.087   5.882  14.494 -1.1500  0.0864  0.7797
17702TIP3    H274598   0.145   6.002  14.422 -0.6077 -0.7230 -0.1649
17703TIP3   OH274599   5.727   6.829  16.069  0.0402  0.7886 -0.8336
17703TIP3    H174600   5.817   6.814  16.041  0.2471 -0.6452  0.4475
17703TIP3    H274601   5.728   6.915  16.111  1.5850 -0.4433  1.9196
17704TIP3   OH274602   5.888   6.747   4.916 -0.1689 -0.0910  0.2643
17704TIP3    H174603   5.901   6.655   4.894 -0.0957 -0.1116  0.3882
17704TIP3    H274604   5.837   6.746   4.997 -1.7981  0.0080 -0.7273
17705TIP3   OH274605   0.928   4.971   4.592  0.3328 -0.2631 -0.2653
17705TIP3    H174606   0.849   4.935   4.553  0.2702 -0.4790  0.0614
17705TIP3    H274607   0.918   4.956   4.686  0.8908 -0.5549 -0.2486
17706TIP3   OH274608   0.369   3.388   2.701 -0.0731  0.4362 -0.4212
17706TIP3    H174609   0.293   3.337   2.729  0.6486  0.1768  1.2004
17706TIP3    H274610   0.338   3.478   2.698 -0.6335  0.2455 -0.5263
17707TIP3   OH274611   6.199   0.212   1.578 -0.4255 -0.3398 -0.2435
17707TIP3    H174612   6.163   0.295   1.609  0.8714 -0.2529  1.1294
17707TIP3    H274613   6.293   0.228   1.569 -0.3253 -1.3065 -1.2033
17708TIP3   OH274614   2.304   3.294   2.603  0.0533 -0.0107  0.4042
17708TIP3    H174615   2.350   3.367   2.645  0.5838 -1.2932  2.1907
17708TIP3    H274616   2.374   3.237   2.572 -0.3454  0.6469 -1.8484
17709TIP3   OH274617   1.079   5.189   1.121  0.0749 -0.0738  0.4427
17709TIP3    H174618   1.046   5.262   1.067 -0.0757 -0.0990  0.4984
17709TIP3    H274619   1.004   5.129   1.127 -0.4083  0.6291  1.9106
17710TIP3   OH274620   5.917   6.748   1.967 -0.5837  0.3511  0.1722
17710TIP3    H174621   5.975   6.815   2.002  1.2688 -0.6018 -0.9108
17710TIP3    H274622   5.926   6.674   2.027  2.0829 -1.0408 -1.7430
17711TIP3   OH274623   1.206   6.409  10.775 -0.0825  0.1179  0.0258
17711TIP3    H174624   1.178   6.501  10.776  0.4513  0.3018 -1.0471
17711TIP3    H274625   1.126   6.360  10.756 -0.4820  0.3035  1.1622
17712TIP3   OH274626   2.643   6.571  15.174  0.3032  0.0668  0.1769
17712TIP3    H174627   2.640   6.507  15.103 -4.3904 -0.1288  0.2072
17712TIP3    H274628   2.612   6.652  15.133 -0.2745  0.5291  1.4714
17713TIP3   OH274629   4.519   4.131  12.160  0.4805  0.2276 -0.0057
17713TIP3    H174630   4.518   4.189  12.083 -0.5264 -0.8097 -0.8117
17713TIP3    H274631   4.503   4.190  12.234  0.4531  1.1223 -0.7000
17714TIP3   OH274632   6.549   3.080   1.188  0.2895 -0.0165 -0.6317
17714TIP3    H174633   6.465   3.086   1.234  0.5876  1.7152 -0.2211
17714TIP3    H274634   6.528   3.102   1.098  0.3344  0.7434 -0.4643
17715TIP3   OH274635   0.041   4.070   4.501 -0.3007  0.0097  0.2057
17715TIP3    H174636  -0.037   4.018   4.517 -0.4467 -0.2052 -1.0890
17715TIP3    H274637   0.112   4.019   4.540 -0.6311 -0.4546  0.2063
17716TIP3   OH274638   2.369   2.634   5.750  0.4639  0.2248 -0.5859
17716TIP3    H174639   2.311   2.669   5.817 -1.6020  0.0153 -2.1562
17716TIP3    H274640   2.336   2.546   5.732  0.8125  0.3442 -1.9878
17717TIP3   OH274641   5.713   2.779   2.482  0.0692 -0.2232  0.1496
17717TIP3    H174642   5.621   2.791   2.507 -0.6764 -0.7169 -2.1339
17717TIP3    H274643   5.713   2.698   2.431  1.6068  0.2758 -0.6730
17718TIP3   OH274644   5.976   5.316   0.117  0.2749 -0.2035 -0.3637
17718TIP3    H174645   5.931   5.388   0.073 -0.3262  0.6208  1.4743
17718TIP3    H274646   6.027   5.358   0.186  2.8894 -1.2412 -1.5194
17719TIP3   OH274647   2.544   1.940   6.554 -0.7193  0.0846 -0.2251
17719TIP3    H174648   2.500   2.024   6.540 -1.0449 -0.0078  0.2399
17719TIP3    H274649   2.635   1.963   6.569 -0.8332  0.3677  0.0423
17720TIP3   OH274650   2.085   0.614  11.991  0.1228 -0.7258 -1.0799
17720TIP3    H174651   2.085   0.659  12.076  0.0399 -1.6931 -0.5541
17720TIP3    H274652   2.017   0.547  11.999  1.5922 -2.2851 -1.1095
17721TIP3   OH274653   2.348   4.853   2.152  0.0020 -0.4737  0.0015
17721TIP3    H174654   2.312   4.941   2.137  1.2856  0.5398  2.2504
17721TIP3    H274655   2.422   4.846   2.092  1.0745  0.8147  1.1096
17722TIP3   OH274656   6.325   5.604   2.334  0.1950  0.3212  0.5484
17722TIP3    H174657   6.252   5.566   2.286  0.8325  0.2007 -0.3621
17722TIP3    H274658   6.318   5.568   2.422 -1.2278  0.8548  0.6688
17723TIP3   OH274659   1.589   4.290   4.710  0.0261 -0.3884  0.2187
17723TIP3    H174660   1.609   4.198   4.696  0.0398 -0.3921  0.2656
17723TIP3    H274661   1.648   4.318   4.780  0.2712 -0.2536 -0.0390
17724TIP3   OH274662   5.697   6.176   1.237  0.6496  0.4460  0.1421
17724TIP3    H174663   5.767   6.124   1.277  0.2507 -1.0465 -1.0147
17724TIP3    H274664   5.640   6.199   1.310  0.7049 -0.9962  0.6688
17725TIP3   OH274665   4.860   1.862  16.529 -0.1390  0.1378  0.4011
17725TIP3    H174666   4.796   1.856  16.601  1.0617 -2.6616  1.3763
17725TIP3    H274667   4.807   1.851  16.450 -0.9789 -1.7761  1.1677
17726TIP3   OH274668   1.942   6.145  12.857  0.4271  0.2232 -0.4412
17726TIP3    H174669   1.948   6.202  12.781  2.3055  0.4108 -0.2234
17726TIP3    H274670   2.028   6.102  12.861 -0.0148 -0.6031  0.9265
17727TIP3   OH274671   0.545   2.369  13.987 -0.3038 -0.0845 -0.3232
17727TIP3    H174672   0.483   2.440  14.004 -1.8551 -1.3163 -0.4885
17727TIP3    H274673   0.507   2.324  13.911  0.5708 -1.1408 -0.1454
17728TIP3   OH274674   3.451   0.099   3.948  0.1563 -0.4066 -0.3386
17728TIP3    H174675   3.460   0.007   3.924  2.9869 -0.4330  0.3558
17728TIP3    H274676   3.540   0.124   3.976 -0.5393  2.5277 -0.5009
17729TIP3   OH274677   4.104   5.997   6.252  0.1997  0.1582  0.2063
17729TIP3    H174678   4.141   5.958   6.173  0.0086  0.4463 -0.0248
17729TIP3    H274679   4.078   5.922   6.306 -0.7631 -0.0510 -0.5114
17730TIP3   OH274680   4.354   3.541  12.341 -0.6406  0.2845  0.2202
17730TIP3    H174681   4.435   3.499  12.311 -1.9051 -0.6755 -2.1449
17730TIP3    H274682   4.319   3.481  12.406 -0.7896 -0.7213 -0.7515
17731TIP3   OH274683   4.334   1.820  14.250 -0.2203  0.3890 -0.3219
17731TIP3    H174684   4.423   1.812  14.216  0.4511  0.8071  1.2737
17731TIP3    H274685   4.345   1.840  14.343 -1.9574  1.6838 -0.3376
17732TIP3   OH274686   1.577   2.544  16.877  0.3171  0.0647  0.2184
17732TIP3    H174687   1.499   2.506  16.917 -0.3051 -0.2546 -1.2375
17732TIP3    H274688   1.581   2.634  16.911 -0.9175  0.2146  0.0041
17733TIP3   OH274689   5.143   6.823   2.126 -0.5371 -0.2839 -0.4975
17733TIP3    H174690   5.094   6.823   2.208  0.0892  0.5404 -0.1144
17733TIP3    H274691   5.105   6.895   2.075 -1.2882 -1.1287 -1.1684
17734TIP3   OH274692   2.483   1.486  15.635  0.1433 -0.3309  0.3156
17734TIP3    H174693   2.571   1.497  15.598  0.1854 -1.5290  0.0185
17734TIP3    H274694   2.426   1.534  15.574  0.8301  2.9878  2.0631
17735TIP3   OH274695   6.056   1.931  10.925  0.1711  0.4082 -0.1826
17735TIP3    H174696   6.035   1.989  10.851 -0.4379 -0.2119 -0.5158
17735TIP3    H274697   5.970   1.907  10.961  0.4578  0.5817  0.6394
17736TIP3   OH274698   6.032   6.625   5.377 -0.1881  0.1268 -0.0007
17736TIP3    H174699   6.018   6.719   5.379 -0.6343  0.0582  1.2529
17736TIP3    H274700   6.088   6.607   5.453 -1.0885 -0.7399  0.5001
17737TIP3   OH274701   4.034   4.694  15.035  0.2643  0.1833 -0.0118
17737TIP3    H174702   4.067   4.678  14.947  0.2408 -1.0855  0.1922
17737TIP3    H274703   4.001   4.609  15.065  1.4915  0.2578  1.7198
17738TIP3   OH274704   0.011   1.676  12.821  0.1229 -0.3874  0.1513
17738TIP3    H174705   0.013   1.613  12.893  1.1397 -1.4261 -0.7314
17738TIP3    H274706   0.068   1.637  12.754  1.5616  1.9414 -0.0644
17739TIP3   OH274707   4.347   2.441  14.271  0.1891 -0.3583  0.2813
17739TIP3    H174708   4.363   2.511  14.335 -1.5688  0.8595 -0.5287
17739TIP3    H274709   4.336   2.362  14.324  2.6498 -0.1578  1.1862
17740TIP3   OH274710   6.726   0.062   1.713 -0.2758  0.4221 -0.2775
17740TIP3    H174711   6.791   0.036   1.779  0.1916  1.2242 -0.4179
17740TIP3    H274712   6.761   0.142   1.674 -0.6847  0.1123 -1.3129
17741TIP3   OH274713   1.825   5.544  12.349  0.2294  0.5445  0.3884
17741TIP3    H174714   1.836   5.633  12.316  2.6131  0.0766 -0.2996
17741TIP3    H274715   1.915   5.512  12.362 -0.5604 -1.5515  1.2133
17742TIP3   OH274716   6.728   3.410  14.218  0.0369  0.0140  0.2384
17742TIP3    H174717   6.734   3.368  14.133  1.5671  1.7977 -0.5994
17742TIP3    H274718   6.639   3.444  14.222  0.2239  0.7225 -1.0832
17743TIP3   OH274719   4.622   1.171   6.061  0.6859 -0.5032 -0.3856
17743TIP3    H174720   4.581   1.089   6.035 -0.8523  0.1131 -0.0374
17743TIP3    H274721   4.549   1.229   6.082  1.6877  1.1651 -1.2026
17744TIP3   OH274722   0.258   0.923   2.554 -0.1462  0.6680  0.8650
17744TIP3    H174723   0.169   0.956   2.564 -0.1916  1.0430 -0.5942
17744TIP3    H274724   0.303   0.990   2.502  0.3517 -0.5317 -0.3062
17745TIP3   OH274725   2.165   1.321   0.258  0.2977 -0.4508 -0.5533
17745TIP3    H174726   2.161   1.240   0.309  0.6746 -0.0555  0.1255
17745TIP3    H274727   2.243   1.312   0.204 -0.1615 -0.9172 -1.1554
17746TIP3   OH274728   3.617   6.757   4.562  0.5561 -0.4276 -1.0439
17746TIP3    H174729   3.525   6.740   4.541  0.2788 -3.5435  1.7536
17746TIP3    H274730   3.666   6.722   4.488 -0.4919 -2.4354 -0.8504
17747TIP3   OH274731   6.202   2.023   3.969  0.2479  0.0036  0.2026
17747TIP3    H174732   6.287   2.024   3.925  0.3881  2.7227  0.3742
17747TIP3    H274733   6.139   2.046   3.900 -0.0282  0.3569  0.5677
17748TIP3   OH274734   2.128   4.573  16.174  0.1240 -0.2891  0.1754
17748TIP3    H174735   2.132   4.605  16.264  0.5866  0.8112 -0.2202
17748TIP3    H274736   2.072   4.636  16.129  0.1879 -0.6307 -0.3830
17749TIP3   OH274737   3.435   1.083  14.392 -0.5243  0.4621 -0.0256
17749TIP3    H174738   3.502   1.076  14.324 -0.5420  2.8043 -0.3421
17749TIP3    H274739   3.358   1.117  14.347 -0.1963  3.1883  1.2719
17750TIP3   OH274740   4.610   6.212   1.196  0.2802 -0.2368  0.1010
17750TIP3    H174741   4.583   6.300   1.222 -3.2719 -0.7168 -1.3966
17750TIP3    H274742   4.588   6.158   1.272 -1.0466 -0.2986 -0.3029
17751TIP3   OH274743   0.309   4.061  12.590  0.3315 -0.3572 -0.1043
17751TIP3    H174744   0.330   4.046  12.682  1.1780  0.6427 -0.1120
17751TIP3    H274745   0.324   4.155  12.577  0.5647 -0.5483 -1.3343
17752TIP3   OH274746   0.400   0.360   2.643  0.4886  0.0139 -0.4957
17752TIP3    H174747   0.448   0.360   2.726 -0.3800  1.9509  0.0710
17752TIP3    H274748   0.313   0.326   2.666  0.1990  0.6968 -0.5791
17753TIP3   OH274749   1.668   0.670  14.596 -0.4529  0.3780 -0.3691
17753TIP3    H174750   1.614   0.735  14.551 -1.1963 -0.0554 -0.1307
17753TIP3    H274751   1.692   0.711  14.679  2.1039  1.7431 -1.6608
17754TIP3   OH274752   6.181   2.722  14.169  0.0727 -0.6948 -0.0679
17754TIP3    H174753   6.249   2.703  14.105  0.1367 -0.6170 -0.0245
17754TIP3    H274754   6.192   2.816  14.188  0.4324 -0.8447  0.4867
17755TIP3   OH274755   2.919   6.187   4.111  0.1723  0.5832  0.1590
17755TIP3    H174756   2.904   6.240   4.032 -0.7877  0.6396  0.3665
17755TIP3    H274757   2.993   6.230   4.155  0.1833  1.0345 -0.2928
17756TIP3   OH274758   0.593   6.191  11.480  0.6765  0.2118  1.1067
17756TIP3    H174759   0.601   6.245  11.558 -1.5251  1.4211  0.6018
17756TIP3    H274760   0.537   6.243  11.421  0.8287 -1.4083 -0.5604
17757TIP3   OH274761   5.205   4.192  13.381  0.2957 -0.0583  0.4370
17757TIP3    H174762   5.129   4.220  13.432  0.3733  1.6229 -0.3142
17757TIP3    H274763   5.272   4.258  13.399  1.4312 -1.2356  0.6881
17758TIP3   OH274764   6.552   1.001   4.253 -0.0690 -0.1807 -0.3707
17758TIP3    H174765   6.578   1.043   4.334 -0.4292 -1.7646  0.6123
17758TIP3    H274766   6.566   1.068   4.185  1.2412  0.8189  0.8276
17759TIP3   OH274767   5.079   3.087   4.710  0.1088  0.0566  0.7616
17759TIP3    H174768   5.095   3.146   4.784  0.7646  0.5688  0.2218
17759TIP3    H274769   5.072   3.000   4.750  2.0072  0.1074  1.2841
17760TIP3   OH274770   6.053   2.211   2.807 -0.0522 -0.2615  0.1951
17760TIP3    H174771   6.094   2.137   2.763  0.8635 -1.0574  2.2677
17760TIP3    H274772   5.981   2.236   2.749  1.8876 -0.3180 -2.4021
17761TIP3   OH274773   2.233   5.982   3.679 -0.2973  0.5066 -0.1049
17761TIP3    H174774   2.247   6.056   3.738  0.0263  1.5469 -1.4263
17761TIP3    H274775   2.165   6.013   3.619  0.9115  0.3210 -1.6110
17762TIP3   OH274776   2.869   3.726  16.822  0.4163 -0.2601 -0.3903
17762TIP3    H174777   2.899   3.816  16.809 -0.1954 -0.0686 -0.5302
17762TIP3    H274778   2.834   3.700  16.737 -1.7897  0.3047  0.2626
17763TIP3   OH274779   4.763   3.412  11.220 -0.2000  0.2278  0.5176
17763TIP3    H174780   4.765   3.340  11.283 -2.3166 -0.1379  0.2311
17763TIP3    H274781   4.677   3.406  11.178 -0.0046  2.2455 -0.3128
17764TIP3   OH274782   0.754   4.145  12.455  0.6410  0.0082 -0.1656
17764TIP3    H174783   0.747   4.069  12.512 -0.9110 -0.8928 -1.5023
17764TIP3    H274784   0.748   4.220  12.514  1.5175 -0.8758  1.0892
17765TIP3   OH274785   1.317   2.028  16.171  0.7873  0.3350 -0.2186
17765TIP3    H174786   1.369   1.958  16.210  1.1804  0.5858 -0.2859
17765TIP3    H274787   1.359   2.109  16.202  0.0381  0.5445  0.2624
17766TIP3   OH274788   3.247   5.508  14.251 -0.3421  0.6684 -0.2092
17766TIP3    H174789   3.275   5.549  14.170  0.9388 -0.6325 -0.4643
17766TIP3    H274790   3.327   5.472  14.289 -1.1548 -0.1078  0.8259
17767TIP3   OH274791   1.710   4.959   4.845  0.1837  0.0616  0.3301
17767TIP3    H174792   1.665   4.923   4.768  0.6901  0.0837  0.0190
17767TIP3    H274793   1.799   4.977   4.814  0.5574 -0.4578  1.0788
17768TIP3   OH274794   4.215   0.628   3.338  0.5354  0.1537 -0.1987
17768TIP3    H174795   4.275   0.702   3.340  0.5063  0.1865 -0.4500
17768TIP3    H274796   4.148   0.650   3.402  1.0380 -0.0992  0.4266
17769TIP3   OH274797   6.289   1.856   4.814 -0.4679  0.5484 -0.2639
17769TIP3    H174798   6.194   1.863   4.820 -0.4345 -0.1786  1.5008
17769TIP3    H274799   6.312   1.786   4.874  1.4653  2.7696  1.8057
17770TIP3   OH274800   5.928   3.357   3.850 -0.3487  0.1186  0.4722
17770TIP3    H174801   5.958   3.392   3.766  1.8053 -0.4292  0.9696
17770TIP3    H274802   5.884   3.431   3.892 -0.6548  0.6543 -0.7342
17771TIP3   OH274803   1.706   2.343  13.246  1.5016 -0.5479 -0.1216
17771TIP3    H174804   1.758   2.412  13.206  1.3406 -0.5893 -0.4068
17771TIP3    H274805   1.616   2.360  13.216  1.0392  0.5476  1.7471
17772TIP3   OH274806   3.396   6.615  12.328  0.3003 -0.6870 -0.6907
17772TIP3    H174807   3.362   6.654  12.409 -0.0419 -0.8639 -0.7446
17772TIP3    H274808   3.334   6.645  12.261  1.2200  0.3919 -1.0783
17773TIP3   OH274809   4.578   4.844  16.749 -0.0914  0.3397 -0.1113
17773TIP3    H174810   4.658   4.893  16.730 -0.7773  0.8200 -1.9380
17773TIP3    H274811   4.547   4.815  16.663 -1.9639  0.2908  0.5423
17774TIP3   OH274812   3.221   0.462  12.338 -0.4732 -0.4864  0.0255
17774TIP3    H174813   3.220   0.411  12.419  1.0119  2.1314  1.8788
17774TIP3    H274814   3.128   0.480  12.319 -0.8234 -0.3702  1.7227
17775TIP3   OH274815   6.559   2.101   1.326  0.2879 -0.0631  0.0445
17775TIP3    H174816   6.565   2.101   1.231  1.7239 -0.3775  0.1078
17775TIP3    H274817   6.519   2.185   1.348 -0.4421 -0.1648 -0.8445
17776TIP3   OH274818   3.686   4.411   4.850  0.0565 -0.1680 -0.4247
17776TIP3    H174819   3.772   4.452   4.842  0.0856 -0.1175  0.1098
17776TIP3    H274820   3.705   4.319   4.865 -0.0067 -0.3597 -1.4386
17777TIP3   OH274821   4.733   5.773  14.938 -0.0318  0.3434 -0.1924
17777TIP3    H174822   4.644   5.803  14.922 -0.0053 -0.2008 -1.4584
17777TIP3    H274823   4.739   5.764  15.033 -1.3557  0.2831 -0.1055
17778TIP3   OH274824   6.600   3.327  16.299  0.1469  0.0979 -0.1008
17778TIP3    H174825   6.532   3.387  16.268  2.1365  1.9198 -1.2261
17778TIP3    H274826   6.570   3.299  16.385 -2.3279  0.2705 -0.8290
17779TIP3   OH274827   1.012   0.204  11.261  0.0521  0.0530 -0.1962
17779TIP3    H174828   1.080   0.140  11.281 -0.0839  0.8621  3.6951
17779TIP3    H274829   1.020   0.270  11.330 -3.5895  1.0671 -0.5007
17780TIP3   OH274830   4.321   4.616   2.097 -0.2322  0.3150 -0.2888
17780TIP3    H174831   4.285   4.614   2.008 -0.6106  2.8423 -0.2946
17780TIP3    H274832   4.293   4.701   2.131  2.4271  0.7073  1.1695
17781TIP3   OH274833   3.355   2.068  14.754 -0.1447 -0.2073 -0.0642
17781TIP3    H174834   3.262   2.083  14.739 -0.2731 -2.5198 -2.0916
17781TIP3    H274835   3.399   2.127  14.694 -0.3106  0.1605  0.1718
17782TIP3   OH274836   6.808   5.001  14.022  0.2522  0.1154 -0.4377
17782TIP3    H174837   6.832   4.911  14.002  1.4753  0.2861  0.1436
17782TIP3    H274838   6.865   5.054  13.966  0.9429  0.5369  0.6398
17783TIP3   OH274839   0.773   2.181   4.083  0.0949  0.5374  0.6309
17783TIP3    H174840   0.831   2.257   4.073  1.3577 -0.3636  0.9085
17783TIP3    H274841   0.752   2.179   4.177 -0.4421  0.8872  0.5243
17784TIP3   OH274842   0.192   5.420  10.779 -0.4408 -0.0033  0.2089
17784TIP3    H174843   0.102   5.445  10.761 -0.4004 -0.1972 -0.3018
17784TIP3    H274844   0.185   5.343  10.835 -0.6015 -0.2793 -0.1878
17785TIP3   OH274845   6.109   6.355  12.171 -0.2206  0.3017  0.6359
17785TIP3    H174846   6.104   6.273  12.121 -1.4446 -0.0582  1.2860
17785TIP3    H274847   6.133   6.327  12.260 -0.3427  0.6851  0.7902
17786TIP3   OH274848   4.874   4.535   0.560  0.1687 -0.3474  0.1024
17786TIP3    H174849   4.804   4.560   0.500  2.2549  1.9274 -1.5484
17786TIP3    H274850   4.880   4.607   0.622  1.6761  0.0105 -0.4162
17787TIP3   OH274851   4.538   4.158   4.364 -0.2625  0.1424 -0.3834
17787TIP3    H174852   4.551   4.065   4.344 -1.0617  0.2053 -1.3017
17787TIP3    H274853   4.454   4.179   4.323 -0.3137  1.1590  0.2193
17788TIP3   OH274854   4.472   1.089  15.741  0.0561  0.1703 -0.1148
17788TIP3    H174855   4.551   1.119  15.786  0.4964 -0.1671 -0.6475
17788TIP3    H274856   4.449   1.007  15.785  0.7837 -0.4264 -0.8277
17789TIP3   OH274857   6.147   0.454   2.310 -0.2311 -0.3533 -0.0581
17789TIP3    H174858   6.056   0.478   2.292  0.2041 -0.0219 -2.0232
17789TIP3    H274859   6.146   0.358   2.315 -0.4285 -0.5074 -2.0708
17790TIP3   OH274860   6.819   0.850   1.785 -0.2966  0.6025 -0.1434
17790TIP3    H174861   6.743   0.866   1.729 -0.8708 -3.0640 -0.6637
17790TIP3    H274862   6.895   0.866   1.729 -0.5773  3.7083  0.2081
17791TIP3   OH274863   4.492   1.600   1.346 -0.2147  0.1985  0.2484
17791TIP3    H174864   4.401   1.609   1.375 -0.5747 -0.4617 -0.6355
17791TIP3    H274865   4.534   1.682   1.373 -0.7463 -0.0059  1.7712
17792TIP3   OH274866   0.007   5.299  12.030 -0.0736 -0.5091 -0.2007
17792TIP3    H174867  -0.026   5.383  11.999 -1.3350 -1.1616 -0.6954
17792TIP3    H274868  -0.001   5.241  11.955  1.0322 -1.0221  0.0573
17793TIP3   OH274869   1.607   1.734   4.120  0.0907 -0.0403 -0.8684
17793TIP3    H174870   1.567   1.649   4.105  0.1908  0.0854 -1.9518
17793TIP3    H274871   1.536   1.797   4.107 -0.2118  0.0178  0.8638
17794TIP3   OH274872   0.878   6.057  16.227  0.4537 -0.9623  0.1978
17794TIP3    H174873   0.926   5.975  16.218  1.0201 -0.6052 -0.1259
17794TIP3    H274874   0.832   6.050  16.310 -0.6437 -2.1901 -0.4773
17795TIP3   OH274875   6.089   4.823   0.106 -0.4946 -0.0018  0.1938
17795TIP3    H174876   6.018   4.872   0.064  0.2841  0.5826 -0.4856
17795TIP3    H274877   6.048   4.781   0.181 -2.5441 -3.0483 -2.3945
17796TIP3   OH274878   6.442   3.621  15.404 -0.0508  0.0137  0.7137
17796TIP3    H174879   6.376   3.571  15.357  0.0117  0.7508 -0.1878
17796TIP3    H274880   6.402   3.640  15.489 -0.4259 -0.7687  0.7145
17797TIP3   OH274881   2.390   4.198   1.616 -0.0710 -0.3374  0.2616
17797TIP3    H174882   2.320   4.231   1.560 -0.6615  0.4103  1.3985
17797TIP3    H274883   2.463   4.257   1.601 -0.2681 -0.0645  0.3730
17798TIP3   OH274884   4.062   0.471  14.515  0.0409 -0.0466 -0.5132
17798TIP3    H174885   3.982   0.524  14.510  0.3142  0.2898 -1.6354
17798TIP3    H274886   4.133   0.533  14.494  0.5431 -0.4588 -0.0670
17799TIP3   OH274887   6.501   4.805  12.734  0.4083 -0.0784 -0.1936
17799TIP3    H174888   6.506   4.882  12.677  1.3648  1.9209  2.3759
17799TIP3    H274889   6.562   4.742  12.695 -0.1052  0.5583 -2.1479
17800TIP3   OH274890   3.768   5.346  15.146  0.2108 -0.1599 -0.0675
17800TIP3    H174891   3.747   5.430  15.106  0.3942 -0.0425  0.0822
17800TIP3    H274892   3.687   5.295  15.140  0.5496 -0.5646 -1.6366
17801TIP3   OH274893   4.644   5.186   4.660 -0.0386  0.2292  0.0778
17801TIP3    H174894   4.707   5.206   4.729  1.4346 -0.6518 -0.9506
17801TIP3    H274895   4.698   5.177   4.581 -1.7891  2.7188 -1.5488
17802TIP3   OH274896   4.979   0.815  12.384  0.1917 -0.3716  0.2096
17802TIP3    H174897   4.887   0.822  12.410 -0.0352 -1.0390 -0.3704
17802TIP3    H274898   4.979   0.839  12.291  0.4097 -1.4919 -0.0950
17803TIP3   OH274899   4.646   1.354   0.932  0.8423 -0.0078 -0.4108
17803TIP3    H174900   4.713   1.295   0.966 -0.0584 -1.5017 -1.1379
17803TIP3    H274901   4.594   1.377   1.009  0.4540 -1.1816 -0.2957
17804TIP3   OH274902   3.310   0.817  15.166  0.3686  0.4142 -0.0706
17804TIP3    H174903   3.397   0.780  15.154  0.0563 -0.0589 -0.9111
17804TIP3    H274904   3.251   0.742  15.165 -0.0941  0.7694  0.1198
17805TIP3   OH274905   2.559   5.477  15.647  0.0538  0.4826 -0.8262
17805TIP3    H174906   2.538   5.398  15.698  0.5738  0.0961 -1.2045
17805TIP3    H274907   2.477   5.527  15.647 -0.8043 -0.8391 -2.0024
17806TIP3   OH274908   5.996   1.321   3.302  0.9405 -0.6472  0.2533
17806TIP3    H174909   5.913   1.281   3.329  0.1848 -0.0020 -1.0093
17806TIP3    H274910   5.983   1.341   3.209  2.0791  0.5401  0.3274
17807TIP3   OH274911   1.116   4.020  16.892 -0.2617  0.3535 -0.2092
17807TIP3    H174912   1.046   4.055  16.837 -0.0326 -0.3835 -0.9966
17807TIP3    H274913   1.081   4.025  16.981 -1.0601  0.5835 -0.5247
17808TIP3   OH274914   2.901   1.015  12.686 -0.3047  0.2530 -0.1504
17808TIP3    H174915   2.932   0.947  12.746  1.0654 -0.7341 -1.8827
17808TIP3    H274916   2.809   0.994  12.670 -0.7225  0.5830  1.5937
17809TIP3   OH274917   6.607   3.203   1.445  0.2958  0.1759 -0.1311
17809TIP3    H174918   6.562   3.182   1.363  0.1638  0.0943 -0.0377
17809TIP3    H274919   6.566   3.284   1.475 -1.6970 -1.2494  1.3390
17810TIP3   OH274920   0.779   0.871   1.560 -0.3856 -0.1293  0.1115
17810TIP3    H174921   0.720   0.796   1.555 -1.3188  0.6838 -3.0708
17810TIP3    H274922   0.755   0.926   1.486  3.1462  1.1765 -0.2607
17811TIP3   OH274923   4.086   2.261  14.622 -0.1466 -0.1762  0.0156
17811TIP3    H174924   4.013   2.228  14.569  0.8789  0.3917 -1.8586
17811TIP3    H274925   4.088   2.355  14.603  0.8573 -0.1285  0.2941
17812TIP3   OH274926   1.587   3.824  14.117  0.6813 -0.0258  0.5028
17812TIP3    H174927   1.662   3.868  14.158  0.0731 -0.0682  1.7186
17812TIP3    H274928   1.624   3.745  14.077  1.5520  0.8429 -0.4657
17813TIP3   OH274929   6.822   2.119   2.250  0.0293 -0.1154  0.2628
17813TIP3    H174930   6.869   2.090   2.171 -0.5952  0.7320 -0.4363
17813TIP3    H274931   6.811   2.039   2.301 -0.7642 -0.9618 -1.1541
17814TIP3   OH274932   6.736   5.082  13.037  0.7617 -0.2333 -0.2641
17814TIP3    H174933   6.697   5.169  13.022  0.7979 -0.5016 -2.1788
17814TIP3    H274934   6.733   5.071  13.132  0.7115  1.8437  0.0366
17815TIP3   OH274935   0.777   0.525   2.860  0.0767 -0.3919 -0.6154
17815TIP3    H174936   0.767   0.618   2.840 -0.3794 -0.5327 -1.0387
17815TIP3    H274937   0.866   0.504   2.831 -0.3744 -0.4618 -2.0153
17816TIP3   OH274938   1.816   2.234   4.377  0.5018  0.2946  0.1198
17816TIP3    H174939   1.880   2.249   4.308  0.7831 -0.6989  0.1521
17816TIP3    H274940   1.741   2.194   4.334  0.5297  0.0121  0.3293
17817TIP3   OH274941   3.877   2.445  16.966  0.4897  0.4159  0.2931
17817TIP3    H174942   3.788   2.441  16.929  0.6442  0.0811 -0.0540
17817TIP3    H274943   3.879   2.528  17.014 -0.0833  0.3190  0.4920
17818TIP3   OH274944   3.182   0.361  12.589 -0.4082  0.0491 -0.0357
17818TIP3    H174945   3.125   0.307  12.533  0.2015 -2.1894  1.3610
17818TIP3    H274946   3.259   0.306  12.604  0.4359  1.4973  1.1486
17819TIP3   OH274947   1.231   0.297  10.595  0.1108  0.0776  0.2940
17819TIP3    H174948   1.195   0.273  10.681 -0.7725 -1.1753 -0.3991
17819TIP3    H274949   1.258   0.215  10.556  0.7426  0.6670 -0.5412
17820TIP3   OH274950   3.481   1.239   4.301  0.0598 -0.1552 -0.3685
17820TIP3    H174951   3.401   1.227   4.249 -1.2924  0.5145  1.4692
17820TIP3    H274952   3.517   1.322   4.269  0.1355 -0.5494 -1.3330
17821TIP3   OH274953   3.801   5.074  15.692  0.1594  0.1861  0.2839
17821TIP3    H174954   3.741   5.141  15.660  0.4377 -0.3299 -1.4421
17821TIP3    H274955   3.888   5.112  15.680  0.3137 -0.4195 -0.6143
17822TIP3   OH274956   5.153   6.200  15.650 -0.1283  0.4035  0.5090
17822TIP3    H174957   5.199   6.148  15.584 -1.0221  1.0777 -0.6862
17822TIP3    H274958   5.114   6.136  15.709  2.3894 -0.1894  1.6494
17823TIP3   OH274959   3.363   3.784  11.030 -0.3616  0.0156 -0.2701
17823TIP3    H174960   3.363   3.716  10.964 -1.6643  1.1537 -1.5074
17823TIP3    H274961   3.415   3.855  10.992 -0.4413  0.3748  0.2694
17824TIP3   OH274962   2.974   0.376   1.839 -0.0626 -0.1560 -0.5830
17824TIP3    H174963   3.009   0.428   1.911  0.0977  0.2824 -0.9764
17824TIP3    H274964   2.879   0.392   1.842 -0.1864 -0.9077  0.1314
17825TIP3   OH274965   5.952   2.268  15.299  0.1414  0.1252  0.5563
17825TIP3    H174966   5.988   2.357  15.300 -3.5421  1.8281  2.3225
17825TIP3    H274967   5.901   2.264  15.218  1.5033 -1.0480 -0.2952
17826TIP3   OH274968   0.883   2.530   1.463  0.3062 -0.3889 -0.2810
17826TIP3    H174969   0.945   2.535   1.536 -0.5640  0.1438  0.4389
17826TIP3    H274970   0.934   2.558   1.387  1.0868 -0.4586  0.2036
17827TIP3   OH274971   5.159   5.826  11.431 -0.0356  0.6921 -0.0070
17827TIP3    H174972   5.141   5.742  11.389  1.2524  0.1210  0.5177
17827TIP3    H274973   5.249   5.847  11.407  0.0858  1.2957  0.9015
17828TIP3   OH274974   5.593   0.827   2.471  0.3295 -0.2178  0.0750
17828TIP3    H174975   5.650   0.767   2.423  0.1517  1.6508 -2.6934
17828TIP3    H274976   5.645   0.907   2.480 -0.6789  0.4107  0.5151
17829TIP3   OH274977   1.865   5.591  14.107 -0.0153 -0.0394  0.0332
17829TIP3    H174978   1.948   5.636  14.094  0.6528 -0.6283  1.8947
17829TIP3    H274979   1.864   5.522  14.041  0.3746  0.7532 -0.8186
17830TIP3   OH274980   1.663   5.771  15.261 -0.5263 -0.2534  0.1017
17830TIP3    H174981   1.614   5.794  15.339 -0.5744  0.4194 -0.1223
17830TIP3    H274982   1.633   5.683  15.239  0.6180 -1.0908  1.7180
17831TIP3   OH274983   0.022   2.821  14.247 -0.1308  0.0076 -0.1125
17831TIP3    H174984  -0.074   2.819  14.252 -0.2823  0.9676 -1.8110
17831TIP3    H274985   0.048   2.876  14.321 -0.9377  0.1260  0.0965
17832TIP3   OH274986   2.862   5.201  15.451 -0.5459 -0.6928 -0.2959
17832TIP3    H174987   2.782   5.211  15.502  0.5057 -0.7217  1.4702
17832TIP3    H274988   2.913   5.135  15.499 -0.1430 -1.9301 -2.2849
17833TIP3   OH274989   6.312   4.162   1.672 -0.4742 -0.7946 -0.3566
17833TIP3    H174990   6.364   4.114   1.736 -1.2853 -1.4362 -0.1503
17833TIP3    H274991   6.369   4.171   1.596 -0.1449 -1.6945 -0.2248
17834TIP3   OH274992   0.925   5.791   4.672 -0.3985  0.0490  0.6959
17834TIP3    H174993   0.863   5.840   4.618 -0.1806 -1.2052 -0.7488
17834TIP3    H274994   0.900   5.699   4.661  2.8062 -0.7169 -1.4953
17835TIP3   OH274995   2.946   3.911   2.914 -0.6347  0.4279  0.1303
17835TIP3    H174996   2.897   3.966   2.853 -0.7680 -0.0875 -0.2288
17835TIP3    H274997   3.002   3.857   2.858  0.6626  1.2952  0.5401
17836TIP3   OH274998   2.222   2.722   2.660 -0.0671  0.1069 -0.9798
17836TIP3    H174999   2.224   2.693   2.751  0.2462 -0.9015 -1.2925
17836TIP3    H275000   2.240   2.816   2.664 -1.5861  0.3835  0.0992
17837TIP3   OH275001   1.115   5.519  10.927  0.2110  0.1934  0.2670
17837TIP3    H175002   1.062   5.595  10.906  1.8503  1.1459 -0.6418
17837TIP3    H275003   1.205   5.551  10.925  1.0455 -1.9999 -1.3661
17838TIP3   OH275004   5.014   0.328  12.230  0.1777 -0.8633  0.5679
17838TIP3    H175005   4.970   0.280  12.160 -1.0702  1.4217 -0.3234
17838TIP3    H275006   5.076   0.385  12.185  0.8820 -0.8616  1.5048
17839TIP3   OH275007   3.401   3.667   5.730 -0.0338 -0.0326  0.0799
17839TIP3    H175008   3.380   3.587   5.779  1.2432  0.3193  1.2978
17839TIP3    H275009   3.346   3.734   5.769 -1.3111 -0.3311 -1.1310
17840TIP3   OH275010   5.251   4.994   6.233  0.1365 -0.1731  0.5527
17840TIP3    H175011   5.275   5.085   6.247 -0.9553  0.2531 -0.1774
17840TIP3    H275012   5.224   4.962   6.319 -1.3451  0.7973  0.4947
17841TIP3   OH275013   3.239   3.426   3.979 -0.3610  0.2807 -0.3402
17841TIP3    H175014   3.213   3.335   3.963  1.2465 -1.0235  3.2728
17841TIP3    H275015   3.261   3.428   4.073 -1.0139  4.6122 -0.0863
17842TIP3   OH275016   0.788   6.718  16.911 -0.4614  0.4648 -0.1762
17842TIP3    H175017   0.806   6.634  16.952  0.8021  0.9090  0.2330
17842TIP3    H275018   0.715   6.755  16.962 -0.2914  0.0956  0.3395
17843TIP3   OH275019   2.721   1.468   5.283  0.4161 -0.3583 -0.2873
17843TIP3    H175020   2.662   1.509   5.220  0.8300  0.8372  0.0570
17843TIP3    H275021   2.672   1.469   5.365  1.6554  2.7848  0.5524
17844TIP3   OH275022   1.012   0.998  15.964  0.1636 -0.1259 -0.1845
17844TIP3    H175023   1.029   1.050  16.042 -0.3418 -0.2089 -0.0184
17844TIP3    H275024   1.033   1.057  15.891  0.1226  0.1315  0.0108
17845TIP3   OH275025   5.461   3.226  13.201  0.1469 -0.2515 -0.1028
17845TIP3    H175026   5.410   3.215  13.120 -1.1237  2.4808  0.2061
17845TIP3    H275027   5.397   3.257  13.265  1.4947 -0.6014  1.4813
17846TIP3   OH275028   6.026   3.303  12.024  0.0513  0.2932  0.0451
17846TIP3    H175029   6.016   3.249  11.946  0.9436  0.0968  0.0627
17846TIP3    H275030   6.057   3.243  12.091 -0.4469  0.5186  0.4846
17847TIP3   OH275031   3.663   0.105  16.793 -0.4687 -0.2086  0.9989
17847TIP3    H175032   3.739   0.114  16.850 -0.5055 -0.0404  1.0203
17847TIP3    H275033   3.593   0.075  16.851 -1.0301  1.8243  1.4507
17848TIP3   OH275034   1.743   3.524  16.900  0.1260 -0.2215 -0.2193
17848TIP3    H175035   1.742   3.429  16.916  0.0686 -0.4660 -1.5537
17848TIP3    H275036   1.783   3.561  16.979  1.4061 -1.4815 -0.2337
17849TIP3   OH275037   1.381   0.463  16.953 -0.2652  0.3231 -0.0435
17849TIP3    H175038   1.452   0.445  16.892 -0.7403 -3.1289  0.2498
17849TIP3    H275039   1.392   0.556  16.975  1.0933  1.2476 -3.7832
17850TIP3   OH275040   6.658   5.946   1.933  0.6186 -0.4092  0.3090
17850TIP3    H175041   6.732   5.981   1.883 -0.6468 -0.3451 -1.5917
17850TIP3    H275042   6.584   5.950   1.873 -1.2813  0.7694  2.5663
17851TIP3   OH275043   1.003   1.532   5.865  0.0830 -0.0632  0.0584
17851TIP3    H175044   0.913   1.525   5.833 -0.5949 -1.4853  2.0804
17851TIP3    H275045   1.000   1.600   5.932  0.4997 -0.1890  0.2101
17852TIP3   OH275046   1.239   2.424   1.012 -0.2681 -0.6934  0.1182
17852TIP3    H175047   1.280   2.346   1.051  1.5540 -0.7392 -1.6755
17852TIP3    H275048   1.268   2.496   1.068 -0.3400 -1.0858  0.6750
17853TIP3   OH275049   2.639   5.070   5.925 -0.1785 -0.3093 -0.9733
17853TIP3    H175050   2.708   5.004   5.939  1.9539  1.4618 -2.3794
17853TIP3    H275051   2.574   5.051   5.993  2.2899 -1.3557  1.3005
17854TIP3   OH275052   5.450   2.439  12.399  0.3645  1.1624  0.2969
17854TIP3    H175053   5.360   2.471  12.390  0.5762  1.3483 -1.3683
17854TIP3    H275054   5.443   2.370  12.466 -0.9608  1.3379  0.3825
17855TIP3   OH275055   3.426   2.169  15.201 -0.3149 -0.7157 -0.5326
17855TIP3    H175056   3.452   2.078  15.186  1.2582 -0.5009  0.6420
17855TIP3    H275057   3.506   2.220  15.187 -1.2065  0.5211 -1.3197
17856TIP3   OH275058   1.167   1.719  11.595 -0.4326 -0.1298 -0.6975
17856TIP3    H175059   1.162   1.639  11.542  0.6540  0.3922 -1.6420
17856TIP3    H275060   1.253   1.756  11.574 -0.4673  0.7179  0.5583
17857TIP3   OH275061   6.544   2.055   0.036 -0.4307  0.7055  0.0387
17857TIP3    H175062   6.579   1.970   0.062 -4.9637 -1.5961 -0.4785
17857TIP3    H275063   6.529   2.101   0.119  1.6153  0.9104  0.3433
17858TIP3   OH275064   4.837   0.730  12.812  0.4281 -0.2588  0.0078
17858TIP3    H175065   4.765   0.769  12.762  0.3897 -0.3494 -0.0078
17858TIP3    H275066   4.886   0.804  12.846 -0.0036 -0.1959  0.4984
17859TIP3   OH275067   1.823   0.502   3.016 -0.2678  0.8335 -0.2874
17859TIP3    H175068   1.906   0.517   3.061  0.8049  1.9328 -2.4796
17859TIP3    H275069   1.768   0.459   3.082  2.1163 -0.2638  1.1483
17860TIP3   OH275070   0.358   4.746  14.155  0.4764  0.6506 -0.1950
17860TIP3    H175071   0.433   4.737  14.214 -0.1852 -1.2258  0.4279
17860TIP3    H275072   0.282   4.756  14.212  0.1026  1.3355 -0.7943
17861TIP3   OH275073   4.722   5.729  13.223  0.8288  0.5849  0.4638
17861TIP3    H175074   4.790   5.691  13.278  0.7492 -0.4007 -0.1006
17861TIP3    H275075   4.642   5.683  13.250  0.9380 -0.5508 -1.0732
17862TIP3   OH275076   5.439   2.884  15.077 -0.1819  0.2262 -0.4601
17862TIP3    H175077   5.402   2.972  15.076 -0.6977  0.0120 -0.8290
17862TIP3    H275078   5.395   2.840  15.149 -1.4948 -0.3652 -1.5626
17863TIP3   OH275079   2.589   1.652  13.271 -0.0735  0.1703 -0.1220
17863TIP3    H175080   2.545   1.711  13.332 -1.2780  0.4724 -1.2165
17863TIP3    H275081   2.676   1.640  13.307 -0.6941  0.4505  1.5661
17864TIP3   OH275082   5.448   2.650  16.742 -0.4020 -0.3881  0.2993
17864TIP3    H175083   5.512   2.589  16.705 -1.0275 -0.4950 -0.6413
17864TIP3    H275084   5.501   2.720  16.779  0.2706 -0.6270 -0.1872
17865TIP3   OH275085   6.178   5.292  13.854  0.1252 -0.0588  0.0959
17865TIP3    H175086   6.128   5.308  13.934  1.0992  2.2506  0.3212
17865TIP3    H275087   6.111   5.284  13.785 -0.6386  1.5402  0.6007
17866TIP3   OH275088   2.233   1.492  14.021 -0.0953  0.1901  0.5823
17866TIP3    H175089   2.158   1.477  14.079  0.5867 -0.1152  1.3933
17866TIP3    H275090   2.307   1.453  14.066  0.7540  1.3648  0.2567
17867TIP3   OH275091   0.827   5.478   1.226 -0.0045 -0.6394  0.3436
17867TIP3    H175092   0.743   5.432   1.237  0.3384 -1.7168 -1.1801
17867TIP3    H275093   0.853   5.502   1.315 -2.2506  0.3550  0.8173
17868TIP3   OH275094   5.771   0.785  10.546 -0.2935  0.4222 -0.1639
17868TIP3    H175095   5.780   0.702  10.594  1.8707  0.3820 -0.5402
17868TIP3    H275096   5.761   0.759  10.454 -3.0724  0.5468 -0.0006
17869TIP3   OH275097   4.612   0.699   1.978 -0.4797 -0.3590  0.4470
17869TIP3    H175098   4.521   0.671   1.988 -0.1785 -0.8205  2.1950
17869TIP3    H275099   4.611   0.792   2.001 -0.2737 -0.7423  2.1271
17870TIP3   OH275100   2.926   0.771  15.825 -0.8156 -0.0193 -0.3071
17870TIP3    H175101   2.938   0.819  15.908 -1.8539 -0.4037  0.0763
17870TIP3    H275102   2.855   0.710  15.843  0.1936 -1.4184 -0.9246
17871TIP3   OH275103   1.163   4.955  14.347  0.3490  0.1014 -0.3473
17871TIP3    H175104   1.149   5.034  14.399 -0.0558 -0.4601  0.4132
17871TIP3    H275105   1.135   4.883  14.404 -0.5509 -0.4974 -1.5047
17872TIP3   OH275106   5.214   5.485   1.184 -0.2918  1.3270 -0.3211
17872TIP3    H175107   5.238   5.462   1.274 -1.0464  1.6416 -0.0303
17872TIP3    H275108   5.297   5.505   1.141  0.1906  0.0276 -0.0283
17873TIP3   OH275109   4.065   2.040   3.672  0.4372 -0.1016 -0.2623
17873TIP3    H175110   3.980   2.016   3.710 -0.2890  2.2901 -0.1731
17873TIP3    H275111   4.044   2.069   3.583  1.3457 -0.5705 -0.6381
17874TIP3   OH275112   2.914   0.764  15.398 -0.1472 -0.1286 -0.2524
17874TIP3    H175113   2.902   0.674  15.370 -1.2527 -0.7832  2.0372
17874TIP3    H275114   2.869   0.817  15.332  0.9067 -1.1604 -1.8673
17875TIP3   OH275115   0.610   4.969  13.456  0.2305  0.3337 -0.6021
17875TIP3    H175116   0.607   5.036  13.525  0.0303  1.7493 -1.9127
17875TIP3    H275117   0.701   4.969  13.428 -0.1499  1.6317 -2.0070
17876TIP3   OH275118   3.064   6.779   3.020  0.0426 -0.2893 -0.2426
17876TIP3    H175119   3.080   6.696   3.065  2.1138  0.1993  0.0520
17876TIP3    H275120   3.087   6.846   3.084  1.0422  0.4406 -1.3074
17877TIP3   OH275121   5.978   5.126   2.111 -0.0830 -0.2907 -0.2804
17877TIP3    H175122   5.917   5.097   2.179  0.8188 -1.2457  0.1452
17877TIP3    H275123   5.925   5.131   2.031 -0.4495 -2.4494 -0.2182
17878TIP3   OH275124   2.722   0.289   3.264 -0.3430  0.4414  0.0912
17878TIP3    H175125   2.749   0.198   3.255 -1.4025  0.1661 -0.5563
17878TIP3    H275126   2.769   0.322   3.340  0.7623 -0.3701 -0.2224
17879TIP3   OH275127   4.107   0.380  16.076 -0.1772 -0.5437 -0.5112
17879TIP3    H175128   4.016   0.404  16.061 -0.7727 -2.0497  0.4100
17879TIP3    H275129   4.102   0.298  16.126  1.6804 -0.9109 -0.8499
17880TIP3   OH275130   5.203   2.234   2.200 -0.2855  0.1079 -0.0223
17880TIP3    H175131   5.115   2.201   2.185  0.5847 -3.0919  0.9844
17880TIP3    H275132   5.192   2.307   2.262 -2.2015 -0.4214  0.3065
17881TIP3   OH275133   2.165   5.426  15.669  0.1290 -1.0782 -1.0065
17881TIP3    H175134   2.205   5.388  15.591  1.7894 -0.4239 -0.5218
17881TIP3    H275135   2.204   5.513  15.675 -0.9606 -0.6341 -0.1644
17882TIP3   OH275136   0.964   2.987   5.523 -0.5491  0.3706  0.3124
17882TIP3    H175137   0.891   2.975   5.584  0.5271 -2.2821  1.1878
17882TIP3    H275138   1.030   3.036   5.573 -0.0444 -0.9863  1.0125
17883TIP3   OH275139   3.039   5.157   3.838  0.1085  0.3649 -0.1672
17883TIP3    H175140   2.948   5.145   3.808  0.4728 -0.0825 -1.1257
17883TIP3    H275141   3.071   5.230   3.786  0.6935 -0.3002 -0.7550
17884TIP3   OH275142   5.710   6.213   4.486  0.2549  0.1489 -0.2837
17884TIP3    H175143   5.685   6.164   4.408  0.9855 -1.6514  0.5479
17884TIP3    H275144   5.709   6.305   4.459 -0.3960 -0.3639 -2.1345
17885TIP3   OH275145   3.548   1.821   4.428  0.2101  0.2376  0.2534
17885TIP3    H175146   3.527   1.912   4.447  0.2884  0.2886  0.0912
17885TIP3    H275147   3.465   1.774   4.440  0.1550  0.3385  0.2688
17886TIP3   OH275148   1.597   6.039   5.289 -0.0530 -0.0213 -0.5587
17886TIP3    H175149   1.631   6.126   5.273  0.6845 -0.1097  0.4640
17886TIP3    H275150   1.660   5.998   5.348 -1.2295 -0.6721  0.2900
17887TIP3   OH275151   5.810   2.175  14.433  0.3643  0.0213 -0.0803
17887TIP3    H175152   5.793   2.121  14.511 -2.4767  0.4407 -0.2906
17887TIP3    H275153   5.861   2.118  14.376 -0.6094 -1.6545  0.6316
17888TIP3   OH275154   0.625   2.481   3.648  0.0354  0.2876  0.3933
17888TIP3    H175155   0.622   2.392   3.683 -0.0188 -0.8504 -2.2907
17888TIP3    H275156   0.670   2.472   3.564 -1.6140  2.4800 -0.8032
17889TIP3   OH275157   6.297   3.222  12.382  0.6700  0.0734 -0.3618
17889TIP3    H175158   6.288   3.127  12.379  2.6441 -0.1147 -1.6021
17889TIP3    H275159   6.320   3.248  12.293  1.7707  1.5259  0.2893
17890TIP3   OH275160   0.092   2.813   0.367  0.6637 -0.3337  0.1520
17890TIP3    H175161   0.047   2.820   0.283 -1.5318  0.0262  1.2889
17890TIP3    H275162   0.045   2.743   0.413  0.2773  1.0483  1.9523
17891TIP3   OH275163   0.875   1.666  10.980  0.1100 -0.7464  0.4952
17891TIP3    H175164   0.901   1.602  10.913 -2.1552 -1.3981  0.1587
17891TIP3    H275165   0.942   1.659  11.047  2.8526  0.3679 -1.8829
17892TIP3   OH275166   5.025   1.729  12.319  0.2014  0.4582  0.2108
17892TIP3    H175167   4.943   1.778  12.322  0.7459  1.3628  0.6407
17892TIP3    H275168   4.998   1.638  12.306 -0.8546  0.7746  0.1044
17893TIP3   OH275169   4.522   3.708  16.386 -0.3158 -0.8695 -0.3191
17893TIP3    H175170   4.542   3.623  16.347 -0.8927 -1.4772  0.6690
17893TIP3    H275171   4.429   3.703  16.408  0.2757 -1.1296  2.4784
17894TIP3   OH275172   2.739   3.460  16.125 -0.2922 -0.3477  0.5854
17894TIP3    H175173   2.721   3.414  16.207 -0.1958 -1.3327  0.0664
17894TIP3    H275174   2.834   3.452  16.113 -0.3344 -0.3849  0.2704
17895TIP3   OH275175   4.139   6.451  15.583  0.1767 -0.2403  0.4174
17895TIP3    H175176   4.125   6.538  15.544  0.4444 -0.7720 -0.9289
17895TIP3    H275177   4.051   6.421  15.607 -0.2571 -0.5853 -1.3886
17896TIP3   OH275178   0.325   3.768  11.888  0.2639  0.2597  0.1047
17896TIP3    H175179   0.420   3.770  11.894  0.4998 -2.4570 -1.0338
17896TIP3    H275180   0.307   3.708  11.816 -2.2947 -1.1547  1.7508
17897TIP3   OH275181   4.965   1.900   0.520 -0.0081 -0.0805  0.1888
17897TIP3    H175182   4.980   1.807   0.539 -0.8314 -0.0651  0.9730
17897TIP3    H275183   5.032   1.922   0.455  0.0812 -1.2723 -0.1500
17898TIP3   OH275184   0.940   1.248   2.298  0.0079  0.2742 -0.1160
17898TIP3    H175185   0.880   1.179   2.269  0.1924  0.1549 -0.2224
17898TIP3    H275186   0.887   1.327   2.302 -0.0044  0.3171 -0.8899
17899TIP3   OH275187   5.002   2.583   6.564  0.3881 -0.0258  0.6948
17899TIP3    H175188   5.043   2.591   6.650 -1.7522  1.1985  1.6778
17899TIP3    H275189   5.018   2.492   6.539 -0.6117 -1.0128  3.3263
17900TIP3   OH275190   0.376   1.111  14.549  0.0996  0.4939 -0.1029
17900TIP3    H175191   0.286   1.135  14.531  0.2731  0.7732 -0.6152
17900TIP3    H275192   0.427   1.152  14.479  0.7363  1.1391  0.7101
17901TIP3   OH275193   2.921   5.386   3.978 -0.4769 -0.2958 -0.0927
17901TIP3    H175194   2.940   5.297   3.946 -0.3927  0.3729 -1.9906
17901TIP3    H275195   2.854   5.419   3.919 -1.0697  0.6606  1.0682
17902TIP3   OH275196   3.516   4.697   0.534  0.5504 -0.1387  0.4558
17902TIP3    H175197   3.522   4.760   0.462  0.6778  0.7353  1.2073
17902TIP3    H275198   3.555   4.617   0.499 -1.5036 -0.4937 -1.2316
17903TIP3   OH275199   3.493   0.009  11.946  0.0678 -0.0463  0.4673
17903TIP3    H175200   3.527   0.064  11.875 -3.1485  0.6468 -0.7333
17903TIP3    H275201   3.413   0.054  11.975 -0.5744 -2.1120  2.1477
17904TIP3   OH275202   6.528   1.032   0.937  0.8879 -1.0167 -0.3585
17904TIP3    H175203   6.580   1.108   0.910 -0.9671  0.1586 -0.8175
17904TIP3    H275204   6.491   1.057   1.022 -1.4469 -0.4633 -1.4728
17905TIP3   OH275205   2.678   1.223  14.750  0.4149  0.0453 -0.0348
17905TIP3    H175206   2.772   1.221  14.764  1.0396  2.6047 -2.7473
17905TIP3    H275207   2.663   1.161  14.678 -0.1972 -1.1445  1.0769
17906TIP3   OH275208   0.031   3.989  16.756 -0.2896  0.3845 -0.6611
17906TIP3    H175209   0.008   3.995  16.848 -0.8343 -0.4568 -0.7281
17906TIP3    H275210   0.126   3.978  16.755 -0.3715 -0.4420 -0.1564
17907TIP3   OH275211   1.867   2.776  11.242 -0.3090 -0.4048  0.1957
17907TIP3    H175212   1.882   2.789  11.335 -1.8653 -0.5294  0.4931
17907TIP3    H275213   1.944   2.728  11.211 -0.2777 -1.3546  1.6494
17908TIP3   OH275214   5.790   4.963  15.894  0.5013  0.1344  0.1604
17908TIP3    H175215   5.829   4.987  15.978  0.9753 -0.7112  0.1956
17908TIP3    H275216   5.853   4.993  15.829  0.5930 -0.0552  0.1589
17909TIP3   OH275217   3.678   4.066   0.036  0.0580 -0.4482  0.1861
17909TIP3    H175218   3.587   4.061   0.005  0.2063  0.1321 -0.3531
17909TIP3    H275219   3.700   3.976   0.061 -1.5950 -0.2130  2.9962
17910TIP3   OH275220   3.458   4.610  12.884 -0.2047 -0.3191  0.1145
17910TIP3    H175221   3.371   4.646  12.864  0.1290  0.0823 -0.6573
17910TIP3    H275222   3.473   4.635  12.975 -0.0578  1.4214 -0.3400
17911TIP3   OH275223   0.422   4.729  13.216 -0.0447  0.2473  0.7912
17911TIP3    H175224   0.517   4.726  13.223 -0.0230 -2.2744  0.6624
17911TIP3    H275225   0.391   4.742  13.305  0.4475 -1.0799  1.1833
17912TIP3   OH275226   0.097   3.884   1.989  0.3685 -0.3244  0.7386
17912TIP3    H175227   0.140   3.826   2.052 -0.6437  0.8467  2.5882
17912TIP3    H275228   0.135   3.859   1.904  1.2525 -2.4480  1.6830
17913TIP3   OH275229   4.647   5.845   0.378  0.2209 -1.0026  0.4064
17913TIP3    H175230   4.611   5.827   0.291  0.3625  0.7906 -0.0689
17913TIP3    H275231   4.717   5.780   0.389  0.9146 -0.5815 -1.2829
17914TIP3   OH275232   0.283   1.443  13.119 -0.9389 -0.1639  0.4323
17914TIP3    H175233   0.283   1.375  13.187  0.6535  0.2161  0.8607
17914TIP3    H275234   0.340   1.512  13.154 -1.6560  0.9213 -0.4640
17915TIP3   OH275235   6.851   1.005   2.617  0.7164 -0.2375  0.5540
17915TIP3    H175236   6.861   1.071   2.686  1.3641 -1.1699  1.3669
17915TIP3    H275237   6.783   0.946   2.650 -1.5754  1.2497 -1.1819
17916TIP3   OH275238   6.296   3.386  14.945 -0.0853 -0.2366  0.4607
17916TIP3    H175239   6.236   3.421  14.879  1.1747 -0.9165 -1.1251
17916TIP3    H275240   6.284   3.443  15.021  0.1552  2.1681 -1.1831
17917TIP3   OH275241   3.978   5.142  16.741  0.5119  0.7207  0.7822
17917TIP3    H175242   3.972   5.057  16.785 -3.0414  2.3579  4.0949
17917TIP3    H275243   3.926   5.131  16.662  0.2795 -0.2755  1.0550
17918TIP3   OH275244   1.177   4.348   3.418  0.2260  0.0345 -0.0902
17918TIP3    H175245   1.245   4.310   3.473  0.5288 -1.0136 -1.1609
17918TIP3    H275246   1.151   4.278   3.359 -1.5571  0.5149  0.0675
17919TIP3   OH275247   6.269   3.119  14.821 -0.4105 -0.3139 -0.4801
17919TIP3    H175248   6.275   3.207  14.858 -1.5025 -0.5210  0.2425
17919TIP3    H275249   6.240   3.064  14.895 -0.0295 -1.2226 -0.9928
17920TIP3   OH275250   3.422   5.424   5.779  0.2311  0.0007  0.2025
17920TIP3    H175251   3.437   5.330   5.764 -0.4111  0.2244 -2.2030
17920TIP3    H275252   3.373   5.453   5.703  3.2735  3.0040 -0.8361
17921TIP3   OH275253   0.496   2.634   0.367 -0.3144  0.0885 -0.2500
17921TIP3    H175254   0.521   2.576   0.439 -0.0396 -0.2180 -0.5874
17921TIP3    H275255   0.430   2.692   0.404  0.0774  0.1605  0.3428
17922TIP3   OH275256   6.595   3.189  11.407  0.0992  0.1862 -0.2874
17922TIP3    H175257   6.552   3.207  11.490 -0.3860  1.6812 -0.8084
17922TIP3    H275258   6.576   3.097  11.388  1.7827 -0.7355  2.1043
17923TIP3   OH275259   5.221   1.807   2.998  0.3303  0.2196  0.6205
17923TIP3    H175260   5.309   1.801   2.961 -0.4741 -2.2512 -1.1616
17923TIP3    H275261   5.169   1.848   2.929 -0.3861 -0.7146  0.5748
17924TIP3   OH275262   5.345   0.479   2.820 -0.2879 -0.2524  0.2310
17924TIP3    H175263   5.289   0.557   2.811 -1.8920 -1.4425 -0.6957
17924TIP3    H275264   5.434   0.512   2.807 -0.9324  1.4163 -0.2281
17925TIP3   OH275265   3.517   2.961  12.423 -0.6321  0.1911 -0.0434
17925TIP3    H175266   3.593   2.902  12.423  0.3188  1.3618  0.3320
17925TIP3    H275267   3.538   3.025  12.492 -1.5892  1.0036 -0.4978
17926TIP3   OH275268   5.632   2.264   2.154 -0.7031 -0.0367  0.2590
17926TIP3    H175269   5.551   2.216   2.171 -0.9226  0.3437  0.2967
17926TIP3    H275270   5.638   2.328   2.226 -1.0434  0.8058 -0.4421
17927TIP3   OH275271   6.649   5.863   5.679 -0.3819  0.6343  0.1868
17927TIP3    H175272   6.613   5.950   5.662  1.8312  2.0544  2.0708
17927TIP3    H275273   6.586   5.822   5.737 -0.1052  2.1811  1.6587
17928TIP3   OH275274   6.533   0.144  14.857  0.0826 -0.2743  0.0157
17928TIP3    H175275   6.546   0.054  14.889  0.4878 -0.5868 -0.9837
17928TIP3    H275276   6.499   0.192  14.933  1.4636 -0.8689  1.0572
17929TIP3   OH275277   2.169   4.747   3.167  0.6197  0.2655 -0.4424
17929TIP3    H175278   2.206   4.683   3.107  1.7482 -0.1239  0.6256
17929TIP3    H275279   2.082   4.714   3.187  0.0865  0.5663 -2.0718
17930TIP3   OH275280   5.973   6.141   1.404 -0.2164  0.4951 -0.0729
17930TIP3    H175281   6.033   6.073   1.374  1.6366  2.6561 -1.5116
17930TIP3    H275282   6.016   6.180   1.479 -0.1324  1.5922 -0.6729
17931TIP3   OH275283   6.578   2.175  11.436  0.5741  0.0953  0.3411
17931TIP3    H175284   6.603   2.209  11.350 -2.1642 -0.1703 -0.6652
17931TIP3    H275285   6.607   2.084  11.436 -0.3121 -0.2023 -0.7471
17932TIP3   OH275286   2.408   1.248   1.034 -0.4553 -0.1521  0.2919
17932TIP3    H175287   2.414   1.160   0.997 -1.4240 -0.4066  0.7049
17932TIP3    H275288   2.486   1.256   1.090  1.8127  0.7554 -2.7546
17933TIP3   OH275289   5.316   1.500  11.244 -0.0321  0.3618  0.5063
17933TIP3    H175290   5.364   1.471  11.166  0.7975  3.0669 -0.0772
17933TIP3    H275291   5.245   1.554  11.210 -1.0710 -0.3022  1.5554
17934TIP3   OH275292   4.710   4.236  12.722  0.2647 -0.2901 -0.4094
17934TIP3    H175293   4.767   4.304  12.757  0.4453 -1.1965  1.1858
17934TIP3    H275294   4.768   4.175  12.677  0.1562  0.3451 -1.4430
17935TIP3   OH275295   2.096   0.119   2.539  0.1637 -0.5112  0.0514
17935TIP3    H175296   2.078   0.041   2.591  0.7200 -2.2581 -2.1932
17935TIP3    H275297   2.026   0.180   2.561 -1.9574 -2.7353 -0.1955
17936TIP3   OH275298   2.964   0.840  12.867  0.3536  0.3246 -0.0655
17936TIP3    H175299   2.911   0.761  12.860  1.9565 -0.7272 -0.9214
17936TIP3    H275300   2.975   0.853  12.961  1.6138 -1.6034  0.1124
17937TIP3   OH275301   1.555   4.920   2.847  1.0454 -0.1175  0.1594
17937TIP3    H175302   1.554   4.996   2.904  0.3683 -0.5392  0.7200
17937TIP3    H275303   1.581   4.954   2.761 -1.6324  1.2125 -0.2319
17938TIP3   OH275304   6.241   4.256  14.263 -0.2600  0.1415 -0.3904
17938TIP3    H175305   6.317   4.312  14.271 -0.9699  1.2341 -1.0197
17938TIP3    H275306   6.251   4.191  14.333  1.5477 -0.1372 -0.8551
17939TIP3   OH275307   4.502   6.456   4.793 -0.3204 -1.1135 -0.1501
17939TIP3    H175308   4.593   6.430   4.808  0.6309  1.8345 -0.3004
17939TIP3    H275309   4.504   6.504   4.710 -1.9694 -0.7625 -0.0215
17940TIP3   OH275310   2.235   2.948  16.579  0.2938  0.1255 -0.8300
17940TIP3    H175311   2.177   3.015  16.543 -2.3001 -1.3596  0.2827
17940TIP3    H275312   2.233   2.962  16.674  4.1167  1.7233 -0.8089
17941TIP3   OH275313   0.379   6.847  13.202  0.2190  0.3794  0.1653
17941TIP3    H175314   0.441   6.774  13.197  2.0851  1.9874 -1.0490
17941TIP3    H275315   0.431   6.921  13.232 -1.5846  1.3287  1.0960
17942TIP3   OH275316   4.187   6.395  13.954  0.1305  0.3441  0.4254
17942TIP3    H175317   4.131   6.331  13.998 -0.7606  0.6285 -0.2705
17942TIP3    H275318   4.271   6.351  13.944 -0.5277 -0.7869 -0.2268
17943TIP3   OH275319   5.471   6.764  16.020  0.0749  0.2622 -0.1951
17943TIP3    H175320   5.496   6.739  15.930  0.7250  2.4788 -0.6828
17943TIP3    H275321   5.555   6.776  16.065 -0.2497 -0.3389  0.5895
17944TIP3   OH275322   6.799   5.543  11.760 -0.0210 -0.0561  0.0229
17944TIP3    H175323   6.892   5.526  11.774  0.2438  1.2242 -0.0291
17944TIP3    H275324   6.776   5.607  11.828 -0.5769  0.4815 -0.6569
17945TIP3   OH275325   6.484   2.922   4.005 -0.0415  0.1392  0.1914
17945TIP3    H175326   6.552   2.898   4.068  0.2672  1.4414  0.3867
17945TIP3    H275327   6.425   2.979   4.055 -0.6477 -0.0555 -0.2889
17946TIP3   OH275328   0.496   4.141  11.989  0.1219  0.6337  0.0112
17946TIP3    H175329   0.444   4.163  12.066 -1.7079  1.1134 -1.3027
17946TIP3    H275330   0.574   4.098  12.025  0.0040  2.0550  2.1913
17947TIP3   OH275331   3.886   3.274   1.018  0.1157 -0.3314  0.5509
17947TIP3    H175332   3.850   3.261   0.931 -1.9974 -2.7272  1.6455
17947TIP3    H275333   3.976   3.242   1.012 -0.0595 -0.6267 -0.6930
17948TIP3   OH275334   2.113   3.347  16.651  0.2172 -0.2510  0.2609
17948TIP3    H175335   2.073   3.428  16.683  0.0312 -1.2716  2.9297
17948TIP3    H275336   2.041   3.298  16.612 -0.2396 -0.1819  0.9886
17949TIP3   OH275337   0.039   5.023  17.046  0.1519 -0.0325 -0.3204
17949TIP3    H175338   0.072   5.074  16.973  1.7920 -1.0543 -0.3563
17949TIP3    H275339  -0.001   4.946  17.006  0.3645 -0.2186 -0.1808
17950TIP3   OH275340   1.891   5.360   3.640 -1.1566  0.4148  0.4506
17950TIP3    H175341   1.882   5.422   3.568  0.9533  1.0026  0.6404
17950TIP3    H275342   1.902   5.416   3.718  0.4547 -0.1513  0.6682
17951TIP3   OH275343   4.112   6.714   3.910  0.2348 -0.0854 -0.3314
17951TIP3    H175344   4.172   6.748   3.976 -0.1131  2.2847 -1.1476
17951TIP3    H275345   4.025   6.731   3.944  0.0532  0.7261 -1.1489
17952TIP3   OH275346   4.804   5.933   2.979  0.3233  0.6285  0.2202
17952TIP3    H175347   4.889   5.937   3.023  0.6096 -0.4583 -0.2064
17952TIP3    H275348   4.750   5.996   3.026  1.9895  3.0774 -0.9188
17953TIP3   OH275349   1.742   3.440  15.937  0.3084 -0.2199  0.1974
17953TIP3    H175350   1.659   3.424  15.892  1.6644 -1.7153 -1.9253
17953TIP3    H275351   1.755   3.363  15.992  0.2779  0.0527  0.5940
17954TIP3   OH275352   1.480   3.067  16.018 -0.3613  0.0364  0.1520
17954TIP3    H175353   1.562   3.039  16.058 -0.9888 -0.5303  1.0594
17954TIP3    H275354   1.439   3.123  16.083  0.4611  2.4832 -1.2849
17955TIP3   OH275355   3.305   0.817   5.826  0.9326  0.2263 -0.2718
17955TIP3    H175356   3.282   0.725   5.841  1.0517  0.2354 -0.0334
17955TIP3    H275357   3.396   0.814   5.794  0.5560  0.1758 -1.3933
17956TIP3   OH275358   6.150   0.751  12.265 -0.2356 -0.1547 -0.1979
17956TIP3    H175359   6.203   0.737  12.187 -0.2661 -0.2152 -0.2080
17956TIP3    H275360   6.076   0.690  12.255 -1.0781  0.9306 -0.9006
17957TIP3   OH275361   6.617   0.221  10.308  0.6536 -0.0269  0.5858
17957TIP3    H175362   6.672   0.163  10.361  3.0897  2.0501  0.4882
17957TIP3    H275363   6.591   0.291  10.368 -2.2238 -1.0756  0.6980
17958TIP3   OH275364   1.340   5.824   3.406  0.2380  0.6241  0.1954
17958TIP3    H175365   1.435   5.819   3.394  0.3834  0.7409  1.2044
17958TIP3    H275366   1.309   5.871   3.329  0.9282  0.0760 -0.4372
17959TIP3   OH275367   2.356   1.202   2.212 -0.7271  0.3721  0.0301
17959TIP3    H175368   2.435   1.237   2.170 -1.9114  2.7900 -0.3104
17959TIP3    H275369   2.326   1.133   2.153 -0.7300  1.7150 -1.5875
17960TIP3   OH275370   6.458   5.166  13.076  0.1481  0.1975 -0.0676
17960TIP3    H175371   6.491   5.242  13.028 -0.9858  0.6103 -0.2256
17960TIP3    H275372   6.403   5.119  13.012  1.8675 -1.5134 -0.3932
17961TIP3   OH275373   4.016   1.928   5.194 -0.0826  0.4734 -0.1139
17961TIP3    H175374   3.962   1.917   5.272 -0.1203 -0.9306 -0.3097
17961TIP3    H275375   4.098   1.966   5.226 -0.2478  0.2737  0.5580
17962TIP3   OH275376   2.322   5.558  14.942 -0.2568 -0.3795 -0.3790
17962TIP3    H175377   2.409   5.586  14.972  0.3226 -0.9656 -1.4532
17962TIP3    H275378   2.297   5.623  14.876 -0.1140 -0.8481 -0.9024
17963TIP3   OH275379   0.794   0.308   1.074  0.1991  0.0847 -0.4199
17963TIP3    H175380   0.779   0.234   1.132 -0.0567  2.1832  2.4148
17963TIP3    H275381   0.717   0.309   1.017 -0.5633 -0.8961  0.5451
17964TIP3   OH275382   4.768   1.410   6.276 -0.0199 -0.0142 -0.0145
17964TIP3    H175383   4.800   1.478   6.216 -0.4965  0.8411  0.6689
17964TIP3    H275384   4.777   1.328   6.227  2.9961  0.1773  0.0339
17965TIP3   OH275385   6.277   4.812  12.189  0.3738  0.2386  0.1569
17965TIP3    H175386   6.186   4.829  12.213  0.9005  1.9596  1.0634
17965TIP3    H275387   6.273   4.730  12.139 -1.4776 -0.5136  1.4098
17966TIP3   OH275388   4.624   1.452   2.712  0.3975  0.0243 -0.5757
17966TIP3    H175389   4.713   1.416   2.715  0.1677 -0.4994  0.9169
17966TIP3    H275390   4.634   1.537   2.670  1.8444  0.5698  0.7802
17967TIP3   OH275391   0.715   4.505  16.222 -0.1441 -0.2335 -0.4812
17967TIP3    H175392   0.665   4.578  16.260 -0.6259 -1.4398  1.3238
17967TIP3    H275393   0.805   4.522  16.248  0.0949  0.8050 -1.8894
17968TIP3   OH275394   5.645   3.364   3.953  0.1552  0.6830  0.4760
17968TIP3    H175395   5.719   3.369   4.014 -0.0577  2.0709  0.6466
17968TIP3    H275396   5.591   3.293   3.987  1.0696  0.0884  0.7292
17969TIP3   OH275397   3.789   6.674   0.693  0.0104 -0.4996 -0.2319
17969TIP3    H175398   3.847   6.727   0.638 -0.7640 -1.2998 -1.9046
17969TIP3    H275399   3.847   6.630   0.754  1.0144 -0.2941 -1.0148
17970TIP3   OH275400   3.103   1.810  15.651  0.5577  0.7719 -0.6107
17970TIP3    H175401   3.087   1.904  15.638  0.5396  0.9033  0.2606
17970TIP3    H275402   3.196   1.804  15.673  0.8436  0.4413 -1.8640
17971TIP3   OH275403   5.255   0.688  13.844  0.4614  0.4062  0.2413
17971TIP3    H175404   5.307   0.612  13.820 -0.0597 -0.0850  0.6385
17971TIP3    H275405   5.245   0.681  13.939  1.5413  1.7024  0.4771
17972TIP3   OH275406   6.383   0.021  12.582 -0.2074 -0.2883  0.2464
17972TIP3    H175407   6.298   0.003  12.623 -0.4201  1.7401  0.7993
17972TIP3    H275408   6.441   0.040  12.655 -0.1591  1.6516 -0.2348
17973TIP3   OH275409   1.893   6.612  15.921  0.2417  0.2313 -0.7486
17973TIP3    H175410   1.842   6.570  15.851  1.6611 -0.4851 -1.3814
17973TIP3    H275411   1.897   6.547  15.991 -1.3818  1.0337  0.1661
17974TIP3   OH275412   2.992   0.326  16.691  0.7326  0.4044  0.3037
17974TIP3    H175413   2.969   0.241  16.729 -1.0248  0.8104  0.2601
17974TIP3    H275414   2.939   0.332  16.611 -0.9035  2.4034  1.4236
17975TIP3   OH275415   2.626   1.074  14.235  0.1167 -0.3058  0.2822
17975TIP3    H175416   2.713   1.107  14.257 -0.0030  1.1295 -1.2122
17975TIP3    H275417   2.627   1.065  14.140 -1.2464 -0.6109  0.2778
17976TIP3   OH275418   4.006   3.515  10.901  0.4198  0.2088  0.2382
17976TIP3    H175419   3.998   3.463  10.821 -2.7383 -1.4575  1.4620
17976TIP3    H275420   3.935   3.578  10.895  2.3708  2.5381  0.1931
17977TIP3   OH275421   1.261   2.097  15.556 -0.0625  0.2292  0.2630
17977TIP3    H175422   1.221   2.183  15.547 -0.2666  0.4289  2.4456
17977TIP3    H275423   1.205   2.038  15.506  0.5236  1.4275 -1.9447
17978TIP3   OH275424   6.750   6.390   4.255  0.3961 -0.1500 -0.0524
17978TIP3    H175425   6.757   6.297   4.277  0.2943 -0.8172 -2.5810
17978TIP3    H275426   6.811   6.403   4.183 -0.1819  1.5684 -0.2932
17979TIP3   OH275427   2.295   3.703   4.647 -0.1350  0.0492 -0.8685
17979TIP3    H175428   2.227   3.655   4.695  1.0022 -0.3533  0.4053
17979TIP3    H275429   2.295   3.790   4.688 -2.0743  1.1930 -3.0572
17980TIP3   OH275430   3.507   5.655   5.081  0.1134  0.8926 -0.0665
17980TIP3    H175431   3.561   5.588   5.124  2.1995  3.0070  0.8676
17980TIP3    H275432   3.561   5.686   5.009 -1.0518  1.2246 -0.8249
17981TIP3   OH275433   4.096   4.777   5.653 -0.1856  0.2823 -0.2087
17981TIP3    H175434   4.110   4.781   5.748  1.9427 -3.0790 -0.1799
17981TIP3    H275435   4.038   4.702   5.640  0.8783 -0.3668 -1.5704
17982TIP3   OH275436   0.873   4.626  16.873 -0.5170 -0.0283  0.0059
17982TIP3    H175437   0.792   4.650  16.827 -0.9452  1.7661  1.5986
17982TIP3    H275438   0.856   4.647  16.965  1.7734  0.4486  0.3807
17983TIP3   OH275439   3.693   6.823   3.470  0.2052  0.6957  0.0453
17983TIP3    H175440   3.688   6.838   3.565 -0.0434  0.5197  0.0613
17983TIP3    H275441   3.648   6.898   3.431 -1.7541 -0.3536  0.1515
17984TIP3   OH275442   0.254   5.293   0.435 -0.4646 -0.1155  0.3917
17984TIP3    H175443   0.193   5.287   0.361 -0.6558 -0.5006  0.5742
17984TIP3    H275444   0.305   5.372   0.417 -1.5275  0.6554  0.6093
17985TIP3   OH275445   6.020   1.242   3.704  0.7200  0.0149 -0.0255
17985TIP3    H175446   6.058   1.301   3.639 -0.9593 -0.7466 -1.8024
17985TIP3    H275447   5.987   1.168   3.653 -1.5770 -0.1687  1.5836
17986TIP3   OH275448   4.517   4.560  14.763 -0.1831  0.8834  0.1473
17986TIP3    H175449   4.541   4.477  14.722  1.0537  1.2918  0.0283
17986TIP3    H275450   4.454   4.599  14.701  1.6330  1.4844 -1.4109
17987TIP3   OH275451   0.470   6.518   5.709 -0.0517  0.4914  0.5764
17987TIP3    H175452   0.450   6.479   5.624  3.5905  0.6840 -0.5182
17987TIP3    H275453   0.448   6.449   5.772 -1.8492 -0.0399 -0.5401
17988TIP3   OH275454   0.192   1.592   0.406 -0.3343 -0.5624 -0.6714
17988TIP3    H175455   0.280   1.586   0.368  0.0556 -0.9455  0.2537
17988TIP3    H275456   0.168   1.500   0.423 -1.1165 -0.4932 -1.3597
17989TIP3   OH275457   4.613   0.299   3.008  0.4226  0.1243 -0.2642
17989TIP3    H175458   4.562   0.352   2.946  1.0085 -1.1159 -1.8493
17989TIP3    H275459   4.690   0.270   2.958 -0.9485 -4.1198 -0.3092
17990TIP3   OH275460   4.349   0.886   3.650 -0.2040  0.2251 -0.0163
17990TIP3    H175461   4.256   0.903   3.660 -0.4699 -1.2360  0.2159
17990TIP3    H275462   4.371   0.826   3.721  0.2465 -1.7908 -1.7556
17991TIP3   OH275463   5.887   5.208  14.394  0.2607  0.3595 -0.1795
17991TIP3    H175464   5.849   5.121  14.381  4.7652 -1.6399 -2.2396
17991TIP3    H275465   5.844   5.263  14.330 -1.3013 -0.8360 -0.2225
17992TIP3   OH275466   2.589   6.409   0.862  0.2557 -0.0500  0.0339
17992TIP3    H175467   2.659   6.431   0.925 -0.7599  0.2281  1.0997
17992TIP3    H275468   2.621   6.330   0.818  1.2934  0.1369  0.4073
17993TIP3   OH275469   0.712   2.935  11.027  0.4461 -0.7454  0.3386
17993TIP3    H175470   0.778   2.881  11.070 -0.6375 -1.1159  1.6048
17993TIP3    H275471   0.651   2.872  10.988 -0.4234 -0.4823  1.2049
17994TIP3   OH275472   5.830   3.811  16.484  0.1348  0.3069 -0.3474
17994TIP3    H175473   5.835   3.719  16.507  0.4256  0.4164  0.0421
17994TIP3    H275474   5.911   3.828  16.434 -0.6950 -0.0329 -1.8694
17995TIP3   OH275475   0.828   5.455  16.065  0.5824  0.0032 -0.0882
17995TIP3    H175476   0.805   5.483  16.154  0.3790  0.2954 -0.2291
17995TIP3    H275477   0.750   5.410  16.034  0.2759  0.7815 -0.4774
17996TIP3   OH275478   2.578   1.926   3.374 -0.7946  0.2352 -0.3168
17996TIP3    H175479   2.642   1.929   3.303 -1.0289  0.5691 -0.5139
17996TIP3    H275480   2.572   2.016   3.404  0.4027 -0.1176  1.1226
17997TIP3   OH275481   2.675   2.480  17.064 -0.7711  0.4630 -0.4085
17997TIP3    H175482   2.762   2.457  17.030 -0.5853  0.5414  0.0095
17997TIP3    H275483   2.663   2.425  17.141 -1.3689 -0.0094 -0.8286
17998TIP3   OH275484   2.858   3.427   0.054 -0.1822  0.2030  0.0804
17998TIP3    H175485   2.854   3.515   0.017  1.1384 -0.4799 -1.8779
17998TIP3    H275486   2.951   3.413   0.072 -0.6510  0.0452  2.6840
17999TIP3   OH275487   5.353   1.982   6.530 -0.3484 -0.0542 -0.0051
17999TIP3    H175488   5.259   1.995   6.513 -0.7879 -1.6227  1.0362
17999TIP3    H275489   5.374   2.049   6.596 -0.7884  0.1747 -0.0929
18000TIP3   OH275490   1.360   1.110   2.999 -1.1129  0.6059 -0.1389
18000TIP3    H175491   1.417   1.161   2.941 -1.8005  3.2336  1.2997
18000TIP3    H275492   1.416   1.089   3.074 -0.8846 -0.7015 -0.6459
18001TIP3   OH275493   5.232   5.086  13.024 -0.0633  0.0626  0.4845
18001TIP3    H175494   5.144   5.120  13.007 -1.0839 -2.8561 -0.7477
18001TIP3    H275495   5.234   5.069  13.118 -0.9139 -0.0810  0.4855
18002TIP3   OH275496   6.648   2.599   2.931  0.6156  0.4118  0.4467
18002TIP3    H175497   6.708   2.557   2.993  0.3488 -0.1182  0.3465
18002TIP3    H275498   6.703   2.624   2.858  0.4424 -1.7547 -0.5005
18003TIP3   OH275499   4.166   0.511  13.478 -1.0543  0.2838  0.0112
18003TIP3    H175500   4.199   0.463  13.402 -1.2774 -0.1238  0.1678
18003TIP3    H275501   4.200   0.464  13.554 -1.8457 -0.0543  0.1712
18004TIP3   OH275502   0.576   5.158   2.148 -0.5844 -0.0992  0.2359
18004TIP3    H175503   0.484   5.183   2.146 -0.8361 -0.9791 -1.9007
18004TIP3    H275504   0.616   5.212   2.079  0.1159 -1.0209 -0.0891
18005TIP3   OH275505   0.018   1.451   3.371 -0.0565  0.0534 -0.1030
18005TIP3    H175506   0.064   1.403   3.302  0.8536 -3.1946  2.5056
18005TIP3    H275507  -0.052   1.393   3.398  0.0701  0.8617  2.1773
18006TIP3   OH275508   3.283   5.129   4.897 -0.5160  0.1018  0.1893
18006TIP3    H175509   3.272   5.034   4.906  0.7721 -0.1728 -0.7836
18006TIP3    H275510   3.331   5.154   4.977  1.4592 -0.5421 -0.7271
18007TIP3   OH275511   0.100   2.728  11.064  0.0705 -0.4217  0.1108
18007TIP3    H175512   0.061   2.770  11.140  0.4937 -0.3509  0.2928
18007TIP3    H275513   0.063   2.640  11.062 -1.4309  0.1974 -0.7277
18008TIP3   OH275514   5.039   6.427  14.045  0.1143 -0.2999 -0.2533
18008TIP3    H175515   5.111   6.367  14.063 -0.4417 -0.9705 -0.2219
18008TIP3    H275516   5.014   6.460  14.131  0.6471  0.2537 -0.3045
18009TIP3   OH275517   2.876   1.999  12.277  0.6749  0.2687  0.0819
18009TIP3    H175518   2.859   1.926  12.218  0.6509  0.5210 -0.2314
18009TIP3    H275519   2.894   1.959  12.362  1.0786 -0.1159 -0.1814
18010TIP3   OH275520   4.433   4.299  16.366 -0.4342 -0.1553  0.8612
18010TIP3    H175521   4.432   4.208  16.337  0.3574  0.2137 -0.4623
18010TIP3    H275522   4.519   4.332  16.338  0.1243  0.4658  3.1037
18011TIP3   OH275523   4.743   2.907   1.232 -0.0062  0.1191  0.0380
18011TIP3    H175524   4.682   2.836   1.209 -0.3444  1.1410 -2.5670
18011TIP3    H275525   4.690   2.969   1.282 -0.9819  0.5933 -1.4877
18012TIP3   OH275526   4.198   1.681   5.238  0.1150 -0.0226  0.3830
18012TIP3    H175527   4.141   1.606   5.254  0.5847 -0.2840  0.8756
18012TIP3    H275528   4.190   1.734   5.318  0.7287 -0.1798  0.5581
18013TIP3   OH275529   5.688   6.463   5.854  0.1759 -0.4951 -0.7982
18013TIP3    H175530   5.638   6.530   5.807 -0.4893 -1.5587 -1.6484
18013TIP3    H275531   5.624   6.422   5.912  0.9126  0.5825  0.8499
18014TIP3   OH275532   6.158   3.808  14.279 -0.1402 -0.3400 -0.6171
18014TIP3    H175533   6.131   3.802  14.187  0.3988 -1.9857 -0.7070
18014TIP3    H275534   6.149   3.718  14.312 -0.2594  0.2149  0.9230
18015TIP3   OH275535   5.931   1.393   0.567 -0.3509 -0.1886 -0.1276
18015TIP3    H175536   5.924   1.317   0.625  0.7516  0.9926  1.6643
18015TIP3    H275537   5.941   1.468   0.627 -1.3129  1.3807 -1.8142
18016TIP3   OH275538   4.113   1.676   6.050 -0.2039  0.0079 -0.4728
18016TIP3    H175539   4.119   1.638   6.138  0.3616 -0.2646 -0.6269
18016TIP3    H275540   4.189   1.734   6.045 -1.1209  1.2734 -0.1897
18017TIP3   OH275541   6.425   0.818  13.886  0.8185  0.0759 -0.3215
18017TIP3    H175542   6.418   0.758  13.811 -0.1050  0.2776 -0.4104
18017TIP3    H275543   6.376   0.774  13.956  2.6971 -0.6986  0.5852
18018TIP3   OH275544   0.028   3.631   1.473  0.0226 -0.5600  0.5629
18018TIP3    H175545  -0.062   3.608   1.495  0.2513  0.1808  2.4858
18018TIP3    H275546   0.048   3.705   1.531  2.2458 -1.4755  1.0510
18019TIP3   OH275547   6.402   1.778  12.811  0.2977  0.3769  0.1007
18019TIP3    H175548   6.379   1.707  12.871 -0.7054  0.6991  0.1120
18019TIP3    H275549   6.322   1.791  12.759  0.5673  1.3179 -0.0818
18020TIP3   OH275550   0.743   2.905  16.358 -0.0259 -0.0277  0.4389
18020TIP3    H175551   0.739   2.811  16.377  0.6332 -0.7530 -2.5091
18020TIP3    H275552   0.713   2.913  16.268 -0.2982  2.6603  0.6802
18021TIP3   OH275553   2.982   6.270   2.543  0.5651 -0.1998 -0.2159
18021TIP3    H175554   3.031   6.200   2.586  0.8169 -1.0354 -1.7938
18021TIP3    H275555   2.893   6.263   2.579  0.8780 -0.5382  0.5144
18022TIP3   OH275556   6.311   3.462   0.042  0.2525 -0.0994  0.0794
18022TIP3    H175557   6.344   3.440   0.129 -1.6618 -0.5486  0.7406
18022TIP3    H275558   6.283   3.379   0.005  0.3795  0.1865 -0.6866
18023TIP3   OH275559   0.192   0.254   2.788 -0.0378  0.6735 -0.2098
18023TIP3    H175560   0.114   0.210   2.754 -0.5470  0.2716  1.3582
18023TIP3    H275561   0.204   0.216   2.875  1.1007  1.7307  0.1200
18024TIP3   OH275562   6.309   1.727   2.772  0.0401 -0.2101  0.2542
18024TIP3    H175563   6.327   1.758   2.860  1.6889 -0.1705 -0.0511
18024TIP3    H275564   6.278   1.804   2.724 -1.7150 -0.4273  0.9949
18025TIP3   OH275565   1.588   1.052  12.713 -0.0002 -0.1536  0.1683
18025TIP3    H175566   1.534   1.128  12.734  0.5154  0.3754 -0.4264
18025TIP3    H275567   1.621   1.068  12.625  2.0643  0.0705  0.9330
18026TIP3   OH275568   0.605   0.814  11.698 -0.1121  0.5582  0.4254
18026TIP3    H175569   0.538   0.813  11.629  1.5792  2.1361 -1.3350
18026TIP3    H275570   0.638   0.903  11.698  2.3060 -0.2699  0.9376
18027TIP3   OH275571   5.589   2.950  15.885  0.2013  0.3135 -0.6887
18027TIP3    H175572   5.645   2.878  15.914  2.2412  1.6175 -1.2247
18027TIP3    H275573   5.582   3.007  15.962 -1.1869 -0.2849 -0.3473
18028TIP3   OH275574   5.350   4.015   3.842 -0.2059 -0.2949  0.2502
18028TIP3    H175575   5.336   4.091   3.899 -2.3773 -2.2168  2.5460
18028TIP3    H275576   5.440   3.987   3.860 -0.4058 -0.0415  1.7260
18029TIP3   OH275577   2.918   5.066  12.105  0.0137  0.1617  0.8600
18029TIP3    H175578   2.828   5.060  12.138 -0.4712 -0.9781 -0.5482
18029TIP3    H275579   2.958   4.983  12.131 -0.2006 -0.5003 -0.8313
18030TIP3   OH275580   4.921   2.281   2.858 -0.1666  0.4078  0.0798
18030TIP3    H175581   4.870   2.358   2.834 -0.7767 -0.1864 -0.5871
18030TIP3    H275582   4.855   2.215   2.880  0.1978 -0.8069 -2.1185
18031TIP3   OH275583   0.106   3.261  12.334 -0.1706 -0.1936  0.2082
18031TIP3    H175584   0.052   3.296  12.264 -0.1170 -2.2658 -0.9353
18031TIP3    H275585   0.176   3.325  12.345 -1.3668  1.2129 -0.1161
18032TIP3   OH275586   5.739   2.371   3.411  0.3847 -0.1649 -0.5717
18032TIP3    H175587   5.718   2.324   3.492 -0.0415  1.9952  0.6616
18032TIP3    H275588   5.828   2.401   3.424 -0.3304  1.8701  0.0449
18033TIP3   OH275589   5.528   1.281  13.936  0.2350  0.1869 -0.0037
18033TIP3    H175590   5.567   1.332  14.007 -0.1330 -0.0846  0.4057
18033TIP3    H275591   5.511   1.195  13.976 -0.5408  0.2229 -0.2407
18034TIP3   OH275592   3.369   2.183   2.465 -0.1604  0.5390 -0.0836
18034TIP3    H175593   3.410   2.167   2.380 -1.5515  2.8524 -1.2700
18034TIP3    H275594   3.443   2.198   2.524  0.8086 -0.2283 -1.0580
18035TIP3   OH275595   4.772   5.303   4.862  0.4464 -0.3224 -0.1435
18035TIP3    H175596   4.805   5.261   4.942 -1.1239 -0.8256  0.2589
18035TIP3    H275597   4.736   5.386   4.892  0.5466 -0.1617 -0.4611
18036TIP3   OH275598   3.931   3.734   6.477  0.1347 -0.2148 -0.0147
18036TIP3    H175599   4.012   3.740   6.529  1.0470 -0.7295 -1.3164
18036TIP3    H275600   3.925   3.642   6.453  0.0875  0.1032 -1.3220
18037TIP3   OH275601   2.466   0.385  13.692 -0.6510  0.3454 -0.3699
18037TIP3    H175602   2.486   0.329  13.618 -0.4141  0.3376 -0.3029
18037TIP3    H275603   2.501   0.471  13.668 -0.9756  0.4563 -0.4556
18038TIP3   OH275604   0.842   3.422   0.549 -0.3614  0.7049  0.1297
18038TIP3    H175605   0.850   3.406   0.455  0.6854 -1.5426  0.5318
18038TIP3    H275606   0.928   3.400   0.585 -0.7602  1.4518  1.6547
18039TIP3   OH275607   5.606   4.315  14.689 -0.5643  0.2670 -0.1145
18039TIP3    H175608   5.629   4.272  14.606 -2.7074 -1.7969  0.2804
18039TIP3    H275609   5.534   4.374  14.667  0.0295  1.0747  0.0158
18040TIP3   OH275610   0.133   4.464   2.769 -0.0610  0.2504 -0.0116
18040TIP3    H175611   0.129   4.380   2.724 -0.7757  0.1421  0.2249
18040TIP3    H275612   0.086   4.448   2.851  0.3341  0.7165  0.3072
18041TIP3   OH275613   2.985   0.506  16.255  0.1203  0.3568 -0.2966
18041TIP3    H175614   2.970   0.478  16.165 -0.6254 -1.5603  0.3615
18041TIP3    H275615   3.076   0.537  16.256  0.5409 -0.7339 -1.4690
18042TIP3   OH275616   3.989   3.161  13.459 -0.2011 -0.0733 -0.3953
18042TIP3    H175617   4.059   3.124  13.513 -0.2461  0.3139 -0.0696
18042TIP3    H275618   3.908   3.137  13.503 -0.2801 -0.6068 -0.8267
18043TIP3   OH275619   5.605   0.961  11.788  0.3349  0.2019  0.1085
18043TIP3    H175620   5.651   1.020  11.847  0.3327  0.2129  0.0990
18043TIP3    H275621   5.671   0.937  11.723  0.4370 -0.0825  0.3123
18044TIP3   OH275622   4.127   2.608   5.910  0.4970  0.3100 -0.7059
18044TIP3    H175623   4.108   2.659   5.989 -0.3108 -2.6255  1.1557
18044TIP3    H275624   4.059   2.633   5.848 -1.1198  0.0726  0.8796
18045TIP3   OH275625   2.231   3.674   1.651 -0.8470 -0.0457 -0.6244
18045TIP3    H175626   2.306   3.617   1.667 -2.2137 -1.2437  2.2836
18045TIP3    H275627   2.164   3.616   1.617 -0.8235  0.8232 -2.2365
18046TIP3   OH275628   0.254   0.091   2.354 -0.5278  0.2197 -0.1081
18046TIP3    H175629   0.221   0.076   2.265 -0.9798 -1.1712  0.2607
18046TIP3    H275630   0.178   0.077   2.410  0.0737 -0.3900  0.5834
18047TIP3   OH275631   0.095   6.380  12.605 -0.2940 -0.4049  0.5299
18047TIP3    H175632   0.179   6.414  12.574 -1.2461  0.5645 -1.1760
18047TIP3    H275633   0.030   6.438  12.565 -1.7754 -0.8501  2.1691
18048TIP3   OH275634   6.004   2.838  13.941  0.3328  0.0459  0.1424
18048TIP3    H175635   5.998   2.918  13.889  1.2825  1.0301  1.4965
18048TIP3    H275636   5.988   2.865  14.031 -0.3431 -1.4668  0.5179
18049TIP3   OH275637   5.005   0.591  15.108  0.2860 -0.4846  0.1451
18049TIP3    H175638   4.955   0.564  15.031 -1.1843 -1.4308  1.3675
18049TIP3    H275639   4.944   0.579  15.181  2.7090 -3.1341  1.9597
18050TIP3   OH275640   2.612   3.732  12.420 -0.1586  0.8094  0.0023
18050TIP3    H175641   2.646   3.642  12.420 -1.0553  0.4325 -1.6080
18050TIP3    H275642   2.523   3.723  12.388 -0.3121  2.2714 -0.0180
18051TIP3   OH275643   5.305   1.545   0.086 -0.1820  0.1778 -0.2233
18051TIP3    H175644   5.383   1.553   0.141 -0.3108 -0.7771  0.1127
18051TIP3    H275645   5.239   1.596   0.132 -0.2459 -0.4879  0.4308
18052TIP3   OH275646   2.181   4.155   6.077  0.1307 -0.6893 -0.3006
18052TIP3    H175647   2.103   4.167   6.130 -0.9509 -0.8659 -1.7934
18052TIP3    H275648   2.249   4.131   6.139 -1.5050 -2.7483  0.8035
18053TIP3   OH275649   4.513   5.113   6.411  0.1445  0.0208  0.4658
18053TIP3    H175650   4.467   5.197   6.410  2.0899  1.2184  2.5132
18053TIP3    H275651   4.516   5.086   6.319  0.7813  2.9773 -0.4849
18054TIP3   OH275652   6.210   6.593   6.001  0.4992  0.1353 -0.3469
18054TIP3    H175653   6.267   6.626   5.931  0.9894 -0.8811 -0.4438
18054TIP3    H275654   6.248   6.509   6.025 -0.7861 -0.4172 -0.1877
18055TIP3   OH275655   4.782   2.595  13.016  0.7240  0.0334  0.4075
18055TIP3    H175656   4.748   2.510  12.989  0.0156 -0.0966  1.6341
18055TIP3    H275657   4.748   2.656  12.950  1.6794 -0.6803 -0.7866
18056TIP3   OH275658   2.276   4.328   3.242  0.0551  0.2099  0.6048
18056TIP3    H175659   2.285   4.236   3.216  0.2365 -0.0202  1.4472
18056TIP3    H275660   2.233   4.325   3.328 -0.7391  0.9554  0.2556
18057TIP3   OH275661   1.415   5.814   2.450 -0.0692  0.3926 -1.1366
18057TIP3    H175662   1.414   5.721   2.425 -1.6908 -0.0989  0.5588
18057TIP3    H275663   1.337   5.851   2.409  0.8152  1.1797 -2.1993
18058TIP3   OH275664   2.181   6.184   3.984  0.0676 -0.2069 -0.3531
18058TIP3    H175665   2.122   6.258   4.000 -1.4006 -1.6268  1.2593
18058TIP3    H275666   2.123   6.112   3.962  1.2927 -1.3834  0.1394
18059TIP3   OH275667   6.217   3.230   4.808 -0.7018 -0.1245 -0.4317
18059TIP3    H175668   6.296   3.284   4.803 -1.0760  0.3215 -2.2751
18059TIP3    H275669   6.146   3.288   4.780 -1.8556 -0.2775  1.9843
18060TIP3   OH275670   0.797   1.265   0.746 -0.0796  0.0831 -0.4823
18060TIP3    H175671   0.758   1.340   0.792  2.6132  0.1670  1.9752
18060TIP3    H275672   0.735   1.245   0.675 -2.5663  2.4584  0.8291
18061TIP3   OH275673   0.911   6.536  15.818  0.3504  0.5195  0.2272
18061TIP3    H175674   0.983   6.517  15.877 -1.3999  0.3073  2.4316
18061TIP3    H275675   0.838   6.559  15.876 -1.7661 -0.6743 -1.7810
18062TIP3   OH275676   0.779   1.763   5.755  0.3117  0.0165  0.2313
18062TIP3    H175677   0.849   1.824   5.732  0.4679  0.0145  0.6907
18062TIP3    H275678   0.802   1.732   5.843 -2.2057  2.8772  2.1008
18063TIP3   OH275679   3.659   4.706   2.875  0.5502  0.5790  0.1495
18063TIP3    H175680   3.564   4.704   2.859  0.6097  0.1691 -0.1541
18063TIP3    H275681   3.684   4.797   2.857  0.1161  0.8342  0.8116
18064TIP3   OH275682   5.317   3.541  13.813  0.3900  0.9688 -0.0525
18064TIP3    H175683   5.377   3.515  13.744 -0.0696 -0.2056 -0.0336
18064TIP3    H275684   5.287   3.628  13.788 -0.7424  0.0730 -2.0389
18065TIP3   OH275685   4.301   4.654  16.143  0.5186 -0.0453  0.4785
18065TIP3    H175686   4.253   4.572  16.134 -0.0675  0.2390  0.9249
18065TIP3    H275687   4.236   4.723  16.126  0.8412  0.3368  0.7628
18066TIP3   OH275688   0.719   6.202  12.114 -0.4228 -0.9664 -0.2934
18066TIP3    H175689   0.706   6.273  12.178 -0.2949 -1.0386 -0.1882
18066TIP3    H275690   0.809   6.213  12.085 -0.7031 -0.4866 -1.0020
18067TIP3   OH275691   0.539   6.169  15.413 -0.6715  0.1710  0.1522
18067TIP3    H175692   0.585   6.086  15.427  0.7603  0.9176 -0.0076
18067TIP3    H275693   0.447   6.144  15.408 -0.1393 -1.7117 -1.9750
18068TIP3   OH275694   2.836   1.212   5.247  0.0581 -0.0778 -0.1989
18068TIP3    H175695   2.775   1.285   5.239  1.0381  1.1716  2.5007
18068TIP3    H275696   2.789   1.145   5.296 -0.4138 -0.7885 -1.5750
18069TIP3   OH275697   6.094   2.763   2.866 -0.7351  0.3541  0.0067
18069TIP3    H175698   6.020   2.745   2.807  0.1025 -0.9680 -0.6933
18069TIP3    H275699   6.145   2.830   2.821 -0.0655 -0.6955 -0.8468
18070TIP3   OH275700   0.017   4.061   5.902  0.2100 -0.5661 -0.7755
18070TIP3    H175701   0.086   4.085   5.963 -0.8333  1.1725 -0.2402
18070TIP3    H275702   0.013   4.133   5.839 -1.6678 -0.1852 -0.2928
18071TIP3   OH275703   3.034   1.099   2.529  0.3017  0.3246  0.3551
18071TIP3    H175704   3.014   1.133   2.442 -0.3705  0.1885  0.4507
18071TIP3    H275705   3.058   1.177   2.580 -1.1115  0.6616  0.5374
18072TIP3   OH275706   0.324   5.487   2.401  0.2097 -0.9839  0.2170
18072TIP3    H175707   0.388   5.456   2.337  2.1324  1.0851  0.9891
18072TIP3    H275708   0.246   5.506   2.350  0.3347 -3.1187 -0.8514
18073TIP3   OH275709   4.804   0.797  15.825  0.2618 -0.8309 -0.3971
18073TIP3    H175710   4.879   0.738  15.818  0.1214 -0.9493 -1.0237
18073TIP3    H275711   4.741   0.751  15.880 -0.2064 -1.6690 -1.5982
18074TIP3   OH275712   2.512   0.142  12.042  0.1588 -0.2235 -0.1808
18074TIP3    H175713   2.480   0.198  12.114  0.3687 -0.1878 -0.1140
18074TIP3    H275714   2.552   0.204  11.980  0.0367 -0.2609 -0.2979
18075TIP3   OH275715   6.249   1.771  12.455 -0.7997  0.6832 -0.5691
18075TIP3    H175716   6.250   1.680  12.426  1.1186 -0.4332  2.4986
18075TIP3    H275717   6.271   1.821  12.376  0.1771 -1.6988 -1.9271
18076TIP3   OH275718   3.873   4.229  11.230  0.5678 -0.7284 -0.1003
18076TIP3    H175719   3.814   4.156  11.244 -0.9726  0.3158 -0.8762
18076TIP3    H275720   3.822   4.292  11.179  1.0657  1.8030  2.2802
18077TIP3   OH275721   6.671   1.662   3.525  0.4964  0.0062 -0.4975
18077TIP3    H175722   6.655   1.666   3.619  0.8090  0.8281 -0.4766
18077TIP3    H275723   6.726   1.584   3.514  1.9184  0.8562  0.2256
18078TIP3   OH275724   3.361   6.009   6.483  0.1178  0.4704 -0.2488
18078TIP3    H175725   3.342   6.096   6.518  1.1743 -0.3263  2.5737
18078TIP3    H275726   3.454   6.012   6.461  0.5053 -0.2690  1.1460
18079TIP3   OH275727   5.775   2.613   4.799 -0.4216 -0.4083  0.3153
18079TIP3    H175728   5.832   2.651   4.865 -0.0384 -0.7938  0.2091
18079TIP3    H275729   5.812   2.526   4.782 -1.2455 -0.8152  0.5213
18080TIP3   OH275730   2.891   1.918   0.754  0.0308 -0.6568 -0.0588
18080TIP3    H175731   2.883   1.823   0.755 -0.6885 -0.6071 -0.4360
18080TIP3    H275732   2.819   1.948   0.697 -0.8771  0.2086  1.4611
18081TIP3   OH275733   4.203   0.765   5.341  0.4907  0.3050 -0.1646
18081TIP3    H175734   4.188   0.830   5.272  1.2633  0.7945  0.1170
18081TIP3    H275735   4.250   0.694   5.296 -1.1140 -0.4826 -0.6698
18082TIP3   OH275736   1.706   4.756  15.907 -0.4564  0.2970  0.2477
18082TIP3    H175737   1.751   4.751  15.823 -0.5449  0.8160  0.1613
18082TIP3    H275738   1.619   4.720  15.890 -0.0360 -0.8690  0.4576
18083TIP3   OH275739   2.315   6.160  16.992  0.3225  0.0826  0.0964
18083TIP3    H175740   2.287   6.177  16.902  0.9941  2.3518  0.2458
18083TIP3    H275741   2.406   6.133  16.984  0.5283  0.7566  0.1065
18084TIP3   OH275742   3.028   0.792   3.439  0.1599 -0.2465  0.0023
18084TIP3    H175743   2.983   0.734   3.501  0.1937 -0.2261  0.0465
18084TIP3    H275744   3.078   0.733   3.383 -0.9100 -0.3634 -0.8689
18085TIP3   OH275745   1.195   1.175   0.815 -0.0227 -0.1377 -0.2858
18085TIP3    H175746   1.207   1.085   0.785 -0.2616 -1.1224  2.3116
18085TIP3    H275747   1.148   1.218   0.744  0.9853 -1.7518 -2.0221
18086TIP3   OH275748   5.243   3.340  14.216  0.1145 -0.9759  0.0552
18086TIP3    H175749   5.309   3.282  14.179  1.2268 -0.2284  0.7777
18086TIP3    H275750   5.235   3.312  14.307  0.7591  0.0379  0.4481
18087TIP3   OH275751   5.090   4.485   2.075 -0.4958 -0.2478 -0.7124
18087TIP3    H175752   5.028   4.459   2.008 -1.0846 -2.2046  0.5276
18087TIP3    H275753   5.142   4.407   2.093 -1.2400 -0.2257  2.0143
18088TIP3   OH275754   4.097   2.676  13.587 -0.6392  0.0683 -0.1411
18088TIP3    H175755   4.006   2.700  13.606 -0.3343  1.1976 -0.0363
18088TIP3    H275756   4.143   2.691  13.669 -0.4128 -0.8483 -0.0904
18089TIP3   OH275757   3.559   3.789  10.667 -0.5705  0.3148 -0.0910
18089TIP3    H175758   3.499   3.863  10.676  0.0374  0.5956  2.9900
18089TIP3    H275759   3.510   3.714  10.701 -0.8854 -0.6128 -2.3992
18090TIP3   OH275760   2.260   2.697   0.496 -0.1948  0.3030  0.4084
18090TIP3    H175761   2.280   2.652   0.577 -2.1300 -0.3082  0.5907
18090TIP3    H275762   2.270   2.790   0.517  0.6835  0.1028  0.9257
18091TIP3   OH275763   1.481   2.792  16.611 -0.1192 -0.5320 -0.4894
18091TIP3    H175764   1.525   2.843  16.679  0.5897 -2.3841  0.4914
18091TIP3    H275765   1.548   2.777  16.545  0.7269 -2.9737  0.7995
18092TIP3   OH275766   4.349   5.965   0.302  0.4203  0.5205 -0.6782
18092TIP3    H175767   4.332   5.871   0.309  1.8848  0.1509 -1.5437
18092TIP3    H275768   4.263   6.006   0.311 -0.1130 -0.8280  0.6891
18093TIP3   OH275769   2.078   0.085  15.474 -0.0603 -0.1215  0.5687
18093TIP3    H175770   1.991   0.125  15.463  0.2294  1.0468  2.2023
18093TIP3    H275771   2.060  -0.000  15.514 -0.5113 -0.4365 -0.2735
18094TIP3   OH275772   5.560   0.289   2.185 -0.5694 -0.2314  0.0490
18094TIP3    H175773   5.646   0.247   2.189  1.0851  2.9149  1.2271
18094TIP3    H275774   5.570   0.357   2.118 -1.5297  1.2199  1.2943
18095TIP3   OH275775   0.535   2.848  11.297 -0.6100 -0.1080 -0.1212
18095TIP3    H175776   0.624   2.840  11.264 -0.2123  2.4834  0.1639
18095TIP3    H275777   0.482   2.797  11.236  0.6923  0.7613 -2.0705
18096TIP3   OH275778   1.312   5.115  12.858 -0.1326  0.2726 -0.5988
18096TIP3    H175779   1.325   5.160  12.775 -0.9305  1.3367 -0.1642
18096TIP3    H275780   1.239   5.054  12.841 -1.0487  1.2853 -0.3998
18097TIP3   OH275781   5.051   2.593  12.101  0.3791 -0.1961  0.5322
18097TIP3    H175782   5.079   2.509  12.139 -0.4714 -0.0717  1.4792
18097TIP3    H275783   5.133   2.637  12.078  1.0362  0.0951  3.1154
18098TIP3   OH275784   5.341   2.488   3.347 -0.6285  0.4837 -0.1162
18098TIP3    H175785   5.320   2.469   3.439  0.8794  0.6978  0.2909
18098TIP3    H275786   5.394   2.567   3.351  1.8632 -1.0340 -0.8928
18099TIP3   OH275787   4.270   2.687   3.638  0.4279  0.3536 -0.5238
18099TIP3    H175788   4.215   2.762   3.659 -0.3862  0.1318 -1.7654
18099TIP3    H275789   4.301   2.655   3.723  2.4838  3.2861 -0.0137
18100TIP3   OH275790   3.572   4.032  11.768 -0.2473 -0.3915  0.5365
18100TIP3    H175791   3.610   4.090  11.834  0.7172 -0.5372  0.1270
18100TIP3    H275792   3.569   3.946  11.811 -2.1188 -0.0002  1.3136
18101TIP3   OH275793   1.825   1.790  15.709  0.5268 -0.8102  0.3310
18101TIP3    H175794   1.896   1.726  15.707 -0.4768 -1.9883  1.1912
18101TIP3    H275795   1.800   1.801  15.618  0.2114 -2.2418  0.2221
18102TIP3   OH275796   3.199   3.629  11.754  0.1045 -0.1457 -0.4838
18102TIP3    H175797   3.246   3.670  11.827  1.8219 -1.1188 -0.9709
18102TIP3    H275798   3.267   3.583  11.704 -1.1645 -0.3365 -2.1459
18103TIP3   OH275799   1.386   3.449   3.167 -0.1399  0.1676  0.0153
18103TIP3    H175800   1.361   3.449   3.074  0.5257  2.5134 -0.2138
18103TIP3    H275801   1.306   3.425   3.213 -1.0758  1.0702 -1.0652
18104TIP3   OH275802   2.942   5.237  14.326 -0.0146  0.2448 -0.2524
18104TIP3    H175803   2.861   5.243  14.276  0.0913  0.6959 -0.3758
18104TIP3    H275804   2.981   5.153  14.299  0.0335  0.4714 -0.9138
18105TIP3   OH275805   6.836   0.719   5.400  0.3178  0.6507  0.8410
18105TIP3    H175806   6.795   0.668   5.331 -1.3790  1.5910  1.0889
18105TIP3    H275807   6.920   0.676   5.416  0.3616 -0.0937 -1.1729
18106TIP3   OH275808   5.375   5.782  15.371 -0.0975  0.2654 -0.0824
18106TIP3    H175809   5.340   5.822  15.292 -1.3930  1.1783  0.9083
18106TIP3    H275810   5.470   5.787  15.361 -0.2299  1.9953 -0.7780
18107TIP3   OH275811   1.519   5.609  11.048  0.1236 -0.2841 -0.3528
18107TIP3    H175812   1.433   5.635  11.081  1.4830  2.0525  1.6882
18107TIP3    H275813   1.516   5.629  10.954 -1.2041  0.7940 -0.1087
18108TIP3   OH275814   2.951   4.982  15.576 -0.1395  0.8063 -0.2188
18108TIP3    H175815   2.941   4.926  15.653  0.5804  0.0873 -0.6300
18108TIP3    H275816   3.007   4.932  15.517  0.9216  2.1544 -0.4071
18109TIP3   OH275817   5.451   3.499   1.717  0.1485 -0.4824 -0.5136
18109TIP3    H175818   5.358   3.521   1.715  0.5024  1.3555  0.7293
18109TIP3    H275819   5.480   3.528   1.804  1.6706 -1.9531 -0.4948
18110TIP3   OH275820   4.480   1.954  11.877 -0.1059 -0.2533 -0.4075
18110TIP3    H175821   4.563   1.908  11.862  0.4729  0.6576 -0.1077
18110TIP3    H275822   4.456   1.989  11.792 -0.8167 -1.5014 -0.7500
18111TIP3   OH275823   4.050   0.582  14.209 -0.1821  0.0338  0.3498
18111TIP3    H175824   4.101   0.533  14.273  0.2418  0.1769  0.1249
18111TIP3    H275825   3.976   0.525  14.188 -0.6954  0.2562  1.4586
18112TIP3   OH275826   0.375   5.269   1.224 -0.0508  0.9088 -0.6428
18112TIP3    H175827   0.283   5.246   1.212  0.2042 -0.4339 -0.2067
18112TIP3    H275828   0.390   5.343   1.164 -1.9835  2.7489  1.0036
18113TIP3   OH275829   5.813   6.500  11.568 -0.1810  0.0700 -0.6614
18113TIP3    H175830   5.881   6.566  11.558 -2.3243  2.4548 -0.7469
18113TIP3    H275831   5.760   6.531  11.641 -0.5320 -2.3320  0.1827
18114TIP3   OH275832   1.415   4.069   4.030  0.3525 -0.3069 -0.5313
18114TIP3    H175833   1.339   4.053   3.973  0.5967 -0.9873 -0.6751
18114TIP3    H275834   1.377   4.097   4.113  0.0172  3.4335 -1.7612
18115TIP3   OH275835   0.932   2.748  12.061  0.1934  0.3659 -0.2014
18115TIP3    H175836   0.879   2.668  12.063  0.4655  0.1719 -0.5476
18115TIP3    H275837   0.953   2.765  12.152  1.0054 -0.5493 -0.1976
18116TIP3   OH275838   4.656   1.373  13.074  0.2049  0.2186  0.1787
18116TIP3    H175839   4.566   1.405  13.074  0.3667  0.6794  0.0858
18116TIP3    H275840   4.676   1.358  12.982 -0.3691 -1.6065  0.3053
18117TIP3   OH275841   1.505   3.887   0.937 -0.0952  0.1100 -0.3473
18117TIP3    H175842   1.430   3.888   0.996 -0.3763 -0.8597 -0.6641
18117TIP3    H275843   1.529   3.979   0.926 -0.4988  0.3468  0.6858
18118TIP3   OH275844   2.027   3.344  17.100  0.1313 -0.6551 -0.5541
18118TIP3    H175845   2.065   3.428  17.124  2.2762 -1.5650 -0.5196
18118TIP3    H275846   1.971   3.322  17.174  0.4245  0.2466 -0.0471
18119TIP3   OH275847   3.599   6.024  14.310 -0.4396 -0.6558 -0.5754
18119TIP3    H175848   3.617   5.963  14.382 -0.7614 -0.8758 -0.6795
18119TIP3    H275849   3.509   6.006  14.285 -1.9213  2.4270  1.8940
18120TIP3   OH275850   4.254   6.425  11.693  0.1172 -0.4370  1.2060
18120TIP3    H175851   4.214   6.467  11.616 -2.2262 -2.3387  1.2721
18120TIP3    H275852   4.343   6.403  11.664 -1.0096 -2.0539 -1.4177
18121TIP3   OH275853   2.474   0.466  15.425 -0.0348  0.4223 -0.3706
18121TIP3    H175854   2.473   0.414  15.345 -0.7907  1.1290 -0.8408
18121TIP3    H275855   2.386   0.455  15.462 -0.3459  1.6655 -0.6953
18122TIP3   OH275856   1.442   0.877  12.333 -0.2630 -0.2093  0.5302
18122TIP3    H175857   1.411   0.791  12.362  0.8196 -0.9015 -0.2655
18122TIP3    H275858   1.392   0.895  12.253 -0.3587 -0.1890  0.5951
18123TIP3   OH275859   3.849   5.731   1.346  0.5424 -0.0217  0.8120
18123TIP3    H175860   3.811   5.676   1.415  1.3015 -0.0737  1.1980
18123TIP3    H275861   3.774   5.762   1.296 -0.0423  0.1676  1.7817
18124TIP3   OH275862   2.003   0.712   4.385 -0.0710  0.5127 -0.1212
18124TIP3    H175863   1.951   0.752   4.315 -1.5003 -0.6856  0.2089
18124TIP3    H275864   2.089   0.697   4.345 -0.1862  1.8513 -0.9174
18125TIP3   OH275865   4.153   1.789   3.658 -0.3354 -0.1880  0.0401
18125TIP3    H175866   4.118   1.878   3.657 -1.2921 -0.4738  2.0402
18125TIP3    H275867   4.108   1.747   3.731  1.5649 -1.7184  0.4068
18126TIP3   OH275868   6.322   6.171   1.549 -0.5340 -0.0719  0.5657
18126TIP3    H175869   6.380   6.219   1.490 -2.9390  0.0160 -1.9608
18126TIP3    H275870   6.276   6.239   1.599 -3.0438  0.4303 -2.1351
18127TIP3   OH275871   1.231   1.631  15.647 -0.0944  0.2819  0.4300
18127TIP3    H175872   1.318   1.652  15.613 -0.1497  1.3015  0.9015
18127TIP3    H275873   1.184   1.714  15.649 -0.5742  0.0070  1.6231
18128TIP3   OH275874   2.299   0.951  11.845  0.1731  0.3147 -0.8171
18128TIP3    H175875   2.248   0.879  11.808 -1.0701  0.9011 -0.3129
18128TIP3    H275876   2.245   0.983  11.917  1.5218  0.6157  0.0915
18129TIP3   OH275877   5.885   0.727   2.564 -0.5616  0.0369 -0.4036
18129TIP3    H175878   5.941   0.804   2.573  0.5770 -0.7580 -0.5015
18129TIP3    H275879   5.836   0.724   2.646  1.0066 -0.3775  0.5623
18130TIP3   OH275880   4.091   3.918  12.977  0.1816  0.1919  0.3542
18130TIP3    H175881   4.095   3.941  12.884 -0.4380 -1.0776 -0.0192
18130TIP3    H275882   4.180   3.890  12.999  0.3477  0.5744  0.1604
18131TIP3   OH275883   4.323   2.221  14.436 -0.3203 -0.3213  0.5952
18131TIP3    H175884   4.278   2.258  14.512  0.1454 -0.6253  1.0294
18131TIP3    H275885   4.411   2.201  14.469  0.2046  0.4500 -0.2787
18132TIP3   OH275886   5.187   4.415   1.256 -0.0510 -0.5268  0.1048
18132TIP3    H175887   5.255   4.481   1.271 -1.2423  0.6355  0.5736
18132TIP3    H275888   5.194   4.356   1.330  0.6071 -0.5511  0.0261
18133TIP3   OH275889   4.954   4.589   5.613  0.1179  0.6244 -0.1962
18133TIP3    H175890   5.002   4.546   5.543  0.2006  0.3323  0.0378
18133TIP3    H275891   4.981   4.543   5.693  0.4180  1.2844  0.0939
18134TIP3   OH275892   3.210   3.648   1.205 -0.0001 -0.3047 -1.1454
18134TIP3    H175893   3.282   3.711   1.194  1.6581 -1.5840  1.4063
18134TIP3    H275894   3.136   3.701   1.232  0.8314  0.7632 -0.8682
18135TIP3   OH275895   6.699   1.952   0.354 -0.3379  0.2952 -0.4149
18135TIP3    H175896   6.753   2.007   0.296 -0.6036 -0.0033 -0.9530
18135TIP3    H275897   6.762   1.904   0.407 -0.0970  1.4056  0.3512
18136TIP3   OH275898   6.380   1.315   0.600  0.3049 -0.1135 -0.1682
18136TIP3    H175899   6.452   1.378   0.606 -0.5262  0.8363 -0.0812
18136TIP3    H275900   6.357   1.314   0.507 -0.1374  0.2252 -0.0626
18137TIP3   OH275901   6.348   3.257  11.283  0.0535 -0.6094  0.2094
18137TIP3    H175902   6.430   3.238  11.329 -0.3777 -2.5583  0.2549
18137TIP3    H275903   6.375   3.299  11.201  0.8187  3.3269  2.2726
18138TIP3   OH275904   4.788   1.696   0.101  0.2819  0.4181 -0.4619
18138TIP3    H175905   4.708   1.744   0.080 -1.1410 -1.5318  0.1519
18138TIP3    H275906   4.783   1.682   0.195  1.1281 -0.1163 -0.4909
18139TIP3   OH275907   6.625   2.146   1.060  0.2994  0.7883 -0.3513
18139TIP3    H175908   6.587   2.140   0.972 -2.7130  1.1074  0.7993
18139TIP3    H275909   6.613   2.238   1.084 -1.5345  0.1856  1.3617
18140TIP3   OH275910   4.984   4.805   5.966  0.0728  0.1672 -0.7640
18140TIP3    H175911   4.955   4.824   5.877  0.0315 -0.0637 -0.8013
18140TIP3    H275912   5.048   4.874   5.986 -1.6434  1.6414 -0.0953
18141TIP3   OH275913   5.486   0.222   0.807 -0.2991 -0.3406  0.4681
18141TIP3    H175914   5.560   0.167   0.783 -0.1590 -0.0314  0.1784
18141TIP3    H275915   5.423   0.162   0.847 -1.2397 -1.1943 -2.0804
18142TIP3   OH275916   6.280   1.900  14.876  0.4245  0.6504 -0.0647
18142TIP3    H175917   6.185   1.893  14.875  0.4528 -0.3318  1.4985
18142TIP3    H275918   6.296   1.992  14.900 -0.0915  1.1766 -1.6258
18143TIP3   OH275919   3.747   6.117  16.591  0.0569 -0.3425 -0.4830
18143TIP3    H175920   3.660   6.140  16.623  1.2677  0.7207  2.3892
18143TIP3    H275921   3.782   6.057  16.656  2.4288  1.3299 -0.0717
18144TIP3   OH275922   2.712   3.763   4.530 -0.0349  0.0548  0.4666
18144TIP3    H175923   2.763   3.778   4.450 -2.2569 -2.1099 -1.5205
18144TIP3    H275924   2.646   3.831   4.531  0.5150  0.5924  0.9646
18145TIP3   OH275925   2.687   2.684  14.110  0.0935  0.3436 -0.2272
18145TIP3    H175926   2.664   2.770  14.075 -1.2669  1.2962  2.6727
18145TIP3    H275927   2.739   2.703  14.189  3.3547 -1.6640 -1.6790
18146TIP3   OH275928   0.389   6.537   6.168 -0.2273  0.0994 -0.3438
18146TIP3    H175929   0.348   6.623   6.164  0.6799  0.5653  0.0173
18146TIP3    H275930   0.480   6.555   6.194  0.0606 -0.9379 -0.5822
18147TIP3   OH275931   2.508   5.306   5.092 -0.4022  0.1132 -0.7311
18147TIP3    H175932   2.446   5.362   5.045 -2.3648 -1.1924  0.1690
18147TIP3    H275933   2.530   5.238   5.029  0.5498  0.8412 -1.2138
18148TIP3   OH275934   1.555   5.044   2.610 -0.5912 -0.3203 -0.2482
18148TIP3    H175935   1.548   5.118   2.550 -1.0756  0.1201  0.3436
18148TIP3    H275936   1.468   5.004   2.610 -0.0850 -1.5100 -1.3225
18149TIP3   OH275937   5.857   3.783  13.858 -0.1818  0.1734  0.0273
18149TIP3    H175938   5.821   3.750  13.776  2.2438 -2.9511  0.0110
18149TIP3    H275939   5.796   3.751  13.925  0.8096 -2.4983 -0.2123
18150TIP3   OH275940   6.477   5.659  12.940 -0.3831 -0.0563  0.0555
18150TIP3    H175941   6.462   5.733  12.881  1.2359 -1.1555 -1.8751
18150TIP3    H275942   6.407   5.597  12.919 -1.0028  0.3721  0.7880
18151TIP3   OH275943   6.549   6.059  11.680 -0.3966  0.0645  0.9807
18151TIP3    H175944   6.530   6.153  11.687 -0.4201  0.0788  0.7086
18151TIP3    H275945   6.644   6.055  11.670 -0.5275  0.1432 -0.5257
18152TIP3   OH275946   2.638   0.526   3.824 -0.4386 -0.5549 -0.1096
18152TIP3    H175947   2.596   0.445   3.798  0.6809 -1.1606 -0.0882
18152TIP3    H275948   2.731   0.512   3.806 -0.1014  0.3531  0.8183
18153TIP3   OH275949   4.837   2.620   3.540  0.0717  1.1340 -0.0267
18153TIP3    H175950   4.760   2.671   3.514 -0.1325  0.4265 -0.8668
18153TIP3    H275951   4.880   2.598   3.457  1.7910  2.4294  0.4736
18154TIP3   OH275952   1.449   3.035  13.906  0.3282  0.6482 -0.1034
18154TIP3    H175953   1.424   2.974  13.837  0.8128  1.0671 -0.6579
18154TIP3    H275954   1.521   2.992  13.952  1.2861  1.1774 -1.0718
18155TIP3   OH275955   3.164   0.559   5.889  0.4257  0.3137  0.0951
18155TIP3    H175956   3.219   0.480   5.894  1.1978  0.8183 -0.2219
18155TIP3    H275957   3.078   0.530   5.920  0.9082 -0.4556  0.7780
18156TIP3   OH275958   3.482   2.111  11.009  0.3850  0.3545 -0.1507
18156TIP3    H175959   3.567   2.076  10.981  0.2177 -0.3301  0.1605
18156TIP3    H275960   3.418   2.053  10.967  0.0941  0.4288  0.1882
18157TIP3   OH275961   3.018   4.972   0.504  0.0293  0.5412  0.2787
18157TIP3    H175962   3.094   4.926   0.541  0.2868 -0.1845 -1.0812
18157TIP3    H275963   2.967   5.000   0.580  1.7169  1.1712  1.2300
18158TIP3   OH275964   3.012   6.567   4.534 -0.4986  0.9878  0.2430
18158TIP3    H175965   3.040   6.637   4.593  1.1081  2.9499 -2.5609
18158TIP3    H275966   3.005   6.490   4.589 -1.0974  3.0501  3.2902
18159TIP3   OH275967   1.278   4.657  14.087 -0.3476 -0.3163  0.3211
18159TIP3    H175968   1.271   4.735  14.031  1.1313 -0.1748  0.2815
18159TIP3    H275969   1.267   4.690  14.176 -1.1718 -0.3009  0.2205
18160TIP3   OH275970   5.091   0.362  13.886  0.2667 -0.9526 -0.0281
18160TIP3    H175971   5.058   0.277  13.915 -0.7026 -0.6052 -0.0765
18160TIP3    H275972   5.046   0.379  13.803 -1.5072  0.7096  1.1705
18161TIP3   OH275973   3.791   2.482  10.194  0.1174  0.7640  0.0291
18161TIP3    H175974   3.765   2.561  10.240  0.1515  0.2936  0.8755
18161TIP3    H275975   3.872   2.506  10.149 -0.0857  1.3190 -0.0494
18162TIP3   OH275976   6.133   3.482   2.740 -0.5786  0.3182 -0.2237
18162TIP3    H175977   6.177   3.399   2.724 -1.9032 -0.4545 -0.0181
18162TIP3    H275978   6.146   3.533   2.660  0.3120 -0.0511 -0.3144
18163TIP3   OH275979   3.122   6.333  14.266  0.2975 -0.0575  0.3367
18163TIP3    H175980   3.047   6.282  14.298  0.2207  0.8286  1.6628
18163TIP3    H275981   3.185   6.330  14.338  1.7033 -1.0330 -0.8724
18164TIP3   OH275982   5.358   5.952  12.150  0.3031  0.6783  0.0400
18164TIP3    H175983   5.315   5.869  12.129 -1.4694  1.2806  1.1163
18164TIP3    H275984   5.407   5.974  12.071 -0.8780 -0.3433 -1.0148
18165TIP3   OH275985   2.373   3.908  16.379 -0.9217  0.2599  0.4239
18165TIP3    H175986   2.466   3.909  16.401 -1.2496  1.3954  1.8694
18165TIP3    H275987   2.372   3.919  16.284  0.4219 -0.3240  0.3104
18166TIP3   OH275988   2.121   0.204   3.516  0.1085 -0.4285  0.1068
18166TIP3    H175989   2.141   0.214   3.423 -2.0436  1.5931 -0.2530
18166TIP3    H275990   2.194   0.246   3.561  0.2492  0.3400 -0.7993
18167TIP3   OH275991   3.827   6.071  13.724 -0.2350 -0.5406 -0.5534
18167TIP3    H175992   3.915   6.099  13.699  0.3257 -1.4216  0.3633
18167TIP3    H275993   3.792   6.028  13.645  0.5341 -1.0434 -0.6306
18168TIP3   OH275994   0.901   6.367   4.735 -0.3780  0.5864 -0.3238
18168TIP3    H175995   0.879   6.453   4.770 -1.1842 -0.4814  2.0280
18168TIP3    H275996   0.836   6.308   4.775  0.2594 -1.1373 -1.7139
18169TIP3   OH275997   0.728   3.220  12.531  0.2972  0.2410 -0.4686
18169TIP3    H175998   0.786   3.152  12.565 -0.8590  0.1659  1.5428
18169TIP3    H275999   0.781   3.266  12.466  1.6621 -1.5088 -0.6929
18170TIP3   OH276000   1.977   2.785  10.755 -0.0250 -0.0602  0.0963
18170TIP3    H176001   2.051   2.809  10.811  0.0998 -1.3124  0.4990
18170TIP3    H276002   2.003   2.701  10.716 -1.0121 -0.2595 -0.1531
18171TIP3   OH276003   3.942   5.706  12.964 -0.0422  0.8455 -0.5116
18171TIP3    H176004   3.874   5.669  13.020 -0.5106 -1.5185 -2.5019
18171TIP3    H276005   3.914   5.797  12.950 -2.2454  0.2310 -0.4322
18172TIP3   OH276006   0.809   4.826  14.610 -0.1547 -0.1213 -0.5934
18172TIP3    H176007   0.800   4.782  14.695  1.0366 -0.6873 -0.7363
18172TIP3    H276008   0.738   4.890  14.609 -1.0135 -1.0211  0.2568
18173TIP3   OH276009   2.426   4.771   5.959 -0.2507 -0.1639 -0.3888
18173TIP3    H176010   2.402   4.851   5.913 -1.5277  0.2061  0.8265
18173TIP3    H276011   2.381   4.778   6.044  0.2441 -1.8077  0.0512
18174TIP3   OH276012   3.613   5.441   1.037 -0.1910 -0.4091 -0.5220
18174TIP3    H176013   3.578   5.459   1.124 -0.1690 -1.4605 -0.2839
18174TIP3    H276014   3.545   5.389   0.994  0.9529 -2.3572 -0.1039
18175TIP3   OH276015   0.178   0.270   1.341  0.5974 -0.0539 -0.3239
18175TIP3    H176016   0.250   0.224   1.384  0.8314 -0.2199 -0.8762
18175TIP3    H276017   0.187   0.361   1.369  0.7379 -0.1596 -0.0167
18176TIP3   OH276018   5.310   1.547   4.626 -0.0208 -0.0030 -0.0023
18176TIP3    H176019   5.295   1.640   4.614 -1.3943 -0.2305 -0.1891
18176TIP3    H276020   5.253   1.522   4.699 -0.4327 -0.8874 -0.6078
18177TIP3   OH276021   4.256   0.295  13.651 -0.5853 -0.3626  0.1035
18177TIP3    H176022   4.300   0.218  13.688 -1.6495 -2.1641 -2.1038
18177TIP3    H276023   4.170   0.262  13.625 -0.5998  1.2354 -2.0773
18178TIP3   OH276024   6.666   4.536  16.766  0.4680  0.7407  0.1252
18178TIP3    H176025   6.620   4.468  16.716  0.3124  0.3917  0.7347
18178TIP3    H276026   6.598   4.576  16.821  0.2980  2.2406 -1.1061
18179TIP3   OH276027   6.268   6.591  15.662  0.2760 -0.5486 -0.2239
18179TIP3    H176028   6.295   6.524  15.599 -1.4291 -1.1909 -0.3101
18179TIP3    H276029   6.315   6.569  15.742  2.5805  0.3473 -1.2130
18180TIP3   OH276030   2.483   2.731   2.117 -0.4684 -0.1669  0.3543
18180TIP3    H176031   2.490   2.640   2.089  2.1281  0.1481 -0.2889
18180TIP3    H276032   2.532   2.735   2.199 -1.2498  0.5119  0.8059
18181TIP3   OH276033   4.107   6.094   0.262  0.2530 -0.0278 -0.3489
18181TIP3    H176034   4.074   6.071   0.176 -0.6730 -4.8552  0.9753
18181TIP3    H276035   4.031   6.087   0.320  1.0030  2.2535  1.0506
18182TIP3   OH276036   2.406   5.417   2.559  0.1636  0.2154 -0.0441
18182TIP3    H176037   2.334   5.454   2.610 -1.8636 -2.9888 -0.3024
18182TIP3    H276038   2.399   5.322   2.572  3.0619 -0.3674 -1.8029
18183TIP3   OH276039   1.265   0.462  14.197 -0.3639  0.0320 -0.1402
18183TIP3    H176040   1.221   0.381  14.219 -1.0575  0.5077  0.2763
18183TIP3    H276041   1.329   0.475  14.267 -1.5554  0.7889  0.8723
18184TIP3   OH276042   4.085   3.678   4.180  0.5000 -0.1954 -0.8104
18184TIP3    H176043   4.098   3.719   4.095  1.1094  0.6347 -0.3269
18184TIP3    H276044   4.171   3.682   4.223 -0.2565  1.3439  0.6789
18185TIP3   OH276045   5.476   4.818  16.207  0.1629  0.1360 -0.0621
18185TIP3    H176046   5.404   4.791  16.149  0.2223 -0.8735  0.3056
18185TIP3    H276047   5.452   4.782  16.292 -0.1328  1.9637  0.6593
18186TIP3   OH276048   5.513   4.459   0.195 -0.0942 -0.2420 -0.4947
18186TIP3    H176049   5.444   4.397   0.216 -1.2171  1.0466 -0.2153
18186TIP3    H276050   5.594   4.408   0.200 -0.5198 -0.8320  3.6419
18187TIP3   OH276051   1.225   0.878  17.095  0.1051 -0.5183  0.5197
18187TIP3    H176052   1.249   0.832  17.015  0.3212  0.1553  0.1900
18187TIP3    H276053   1.307   0.884  17.144  0.4719  1.0694 -0.2408
18188TIP3   OH276054   3.985   2.783   4.656 -0.4374 -0.0214 -0.0791
18188TIP3    H176055   4.060   2.814   4.707  0.6530 -1.6057 -0.6452
18188TIP3    H276056   3.992   2.828   4.572 -0.2856  0.0432 -0.0308
18189TIP3   OH276057   6.801   6.207   2.990 -0.0638 -0.6279 -0.2011
18189TIP3    H176058   6.883   6.159   2.976 -0.0546 -0.7686  0.3099
18189TIP3    H276059   6.807   6.238   3.080  1.1046  2.6262 -1.2614
18190TIP3   OH276060   1.723   6.203  13.953  0.0684 -0.0490  0.3856
18190TIP3    H176061   1.751   6.208  13.861  0.0212 -1.9343  0.2471
18190TIP3    H276062   1.715   6.295  13.980 -1.5002  0.5855 -1.9495
18191TIP3   OH276063   2.546   5.616   2.717 -0.0665 -0.4627  0.2348
18191TIP3    H176064   2.524   5.542   2.661  0.7425 -0.5676  0.0441
18191TIP3    H276065   2.612   5.582   2.778 -0.2436 -0.0991  0.6352
18192TIP3   OH276066   2.786   4.456  15.666  0.3882 -0.5847  0.3379
18192TIP3    H176067   2.791   4.387  15.600  0.6535 -1.5934  1.3862
18192TIP3    H276068   2.869   4.451  15.713  0.5861  0.7431  0.1615
18193TIP3   OH276069   2.735   0.099   5.203  0.1100 -0.8581 -0.3872
18193TIP3    H176070   2.741   0.006   5.181  0.3799 -0.7421 -0.8327
18193TIP3    H276071   2.749   0.102   5.297  1.1023 -1.1882 -0.5080
18194TIP3   OH276072   3.962   6.491   4.904 -0.2243 -0.3245 -0.1313
18194TIP3    H176073   3.890   6.554   4.897  0.3792  0.6218  1.5044
18194TIP3    H276074   4.011   6.501   4.823 -0.4575  0.9395 -0.1383
18195TIP3   OH276075   5.125   3.352   1.947 -0.5831  0.0334 -0.1539
18195TIP3    H176076   5.184   3.342   1.872 -0.5595 -0.6461 -0.0508
18195TIP3    H276077   5.167   3.301   2.017 -0.8840  0.2142  0.1570
18196TIP3   OH276078   4.984   2.811  13.647 -0.0504 -0.0981 -0.3629
18196TIP3    H176079   4.900   2.855  13.634 -1.2681 -1.3086  2.5815
18196TIP3    H276080   5.048   2.882  13.651 -1.0916  0.9464 -1.3056
18197TIP3   OH276081   1.934   0.670  16.590 -0.0552  0.5332 -0.5599
18197TIP3    H176082   1.887   0.607  16.535  0.0382  0.8674 -1.0269
18197TIP3    H276083   1.883   0.751  16.585 -0.5517  0.3174  0.5882
18198TIP3   OH276084   1.680   4.141  11.657  0.1468 -0.0860 -0.6838
18198TIP3    H176085   1.742   4.067  11.661 -0.9961 -1.1927 -2.1660
18198TIP3    H276086   1.632   4.127  11.575 -0.8602  1.7205 -0.4465
18199TIP3   OH276087   0.673   5.533  10.709 -0.3119 -0.9030  0.0268
18199TIP3    H176088   0.734   5.460  10.723 -0.1990 -1.2966 -2.1006
18199TIP3    H276089   0.682   5.553  10.616  0.8233  2.8968  0.8031
18200TIP3   OH276090   2.993   0.885  13.447 -0.2378 -0.3125 -0.2214
18200TIP3    H176091   3.020   0.976  13.447 -1.4650  0.0724 -0.3832
18200TIP3    H276092   3.074   0.835  13.457  0.2447  0.8311  2.0266
18201TIP3   OH276093   6.472   5.416  16.742  0.1888 -0.2582  0.6839
18201TIP3    H176094   6.479   5.436  16.835  0.0301  1.8298  0.2881
18201TIP3    H276095   6.381   5.434  16.719  0.6233  0.9784 -0.2096
18202TIP3   OH276096   0.405   2.571   2.028  0.0979  0.3697 -0.3048
18202TIP3    H176097   0.390   2.555   1.935  1.2377  2.3286 -0.8908
18202TIP3    H276098   0.444   2.489   2.060  2.1646  0.4981 -2.1960
18203TIP3   OH276099   3.381   6.533  16.953 -0.4930 -0.5051 -0.2555
18203TIP3    H176100   3.292   6.510  16.924 -0.9236 -0.6111  1.0862
18203TIP3    H276101   3.369   6.606  17.014  0.2529 -1.0257  0.5445
18204TIP3   OH276102   4.940   0.921   3.455  0.1956  0.0296  0.5510
18204TIP3    H176103   4.991   0.908   3.376 -0.8118  1.0826 -0.3084
18204TIP3    H276104   4.956   0.842   3.508  0.7491 -0.7648 -0.7666
18205TIP3   OH276105   5.753   4.377  11.587  0.1768 -0.2614 -0.5798
18205TIP3    H176106   5.694   4.442  11.626  0.7612  1.4903 -2.4804
18205TIP3    H276107   5.771   4.410  11.499  0.8756 -2.7951 -1.4681
18206TIP3   OH276108   2.788   4.801   0.710 -0.4630  0.3056  0.3658
18206TIP3    H176109   2.867   4.747   0.702 -1.2957 -0.7951 -1.0417
18206TIP3    H276110   2.820   4.887   0.738  1.2929  0.0333 -0.6496
18207TIP3   OH276111   5.352   4.787   3.376  0.3926  0.0505 -0.0106
18207TIP3    H176112   5.441   4.751   3.378  1.1073  1.7542  0.0714
18207TIP3    H276113   5.305   4.730   3.316  1.6420 -0.6454 -0.3682
18208TIP3   OH276114   1.768   4.322  12.849 -0.2741  0.4218 -0.0786
18208TIP3    H176115   1.677   4.350  12.841  0.1977  1.9579 -0.3789
18208TIP3    H276116   1.768   4.261  12.923 -1.4136  1.0446  0.4549
18209TIP3   OH276117   5.980   2.611   4.239  0.2519 -0.0350 -0.1107
18209TIP3    H176118   5.955   2.548   4.307 -0.4869  1.0316  0.6394
18209TIP3    H276119   6.055   2.571   4.195 -1.0322 -2.0767 -0.5721
18210TIP3   OH276120   6.000   1.064  17.022  0.0478  0.0253  0.1135
18210TIP3    H176121   5.934   1.003  17.054  0.4117 -0.4871 -0.0774
18210TIP3    H276122   5.965   1.151  17.040 -0.6370 -0.2416  0.0843
18211TIP3   OH276123   5.721   1.329   3.430  0.2087  0.0102  0.4319
18211TIP3    H176124   5.771   1.405   3.459  1.5633 -1.0274  0.9016
18211TIP3    H276125   5.634   1.341   3.469  0.4011  1.2848  0.5051
18212TIP3   OH276126   2.091   4.684   1.226 -0.6037 -0.0519  1.0094
18212TIP3    H176127   2.034   4.714   1.297  0.2904 -1.2025  2.2582
18212TIP3    H276128   2.119   4.597   1.253  1.7289  0.4494  0.4386
18213TIP3   OH276129   6.613   3.446   2.957  0.3479  0.2356  0.2381
18213TIP3    H176130   6.627   3.522   3.013 -2.7817  0.7569  0.4387
18213TIP3    H276131   6.569   3.480   2.879  0.5291 -1.1324 -0.5039
18214TIP3   OH276132   1.703   1.808  10.956  0.1581  0.0245  0.2618
18214TIP3    H176133   1.706   1.732  10.898  0.0887 -1.1741  1.7739
18214TIP3    H276134   1.778   1.861  10.930  0.8455 -1.1041 -0.1100
18215TIP3   OH276135   6.809   1.338  14.820 -0.3301  0.0199 -0.4066
18215TIP3    H176136   6.872   1.403  14.791  0.4794 -0.5210  0.1130
18215TIP3    H276137   6.778   1.370  14.905  1.7290 -1.3255  0.9418
18216TIP3   OH276138   6.266   0.003   4.551  0.0459  0.6525 -0.5328
18216TIP3    H176139   6.204   0.074   4.567  0.1482  0.6283 -0.0032
18216TIP3    H276140   6.226  -0.048   4.480 -1.2203 -0.1504  0.7095
18217TIP3   OH276141   4.178   6.450  14.278 -0.8411  0.4265  0.2772
18217TIP3    H176142   4.200   6.357  14.278 -1.0650  0.3450  1.7721
18217TIP3    H276143   4.176   6.474  14.370 -2.1034  1.5932 -0.0142
18218TIP3   OH276144   4.428   3.272  16.341  0.1671 -0.5591  0.1015
18218TIP3    H176145   4.337   3.296  16.323  0.6342  0.8647 -0.4682
18218TIP3    H276146   4.432   3.266  16.437 -0.6121 -1.0358  0.1143
18219TIP3   OH276147   1.396   0.082  10.462 -0.3057  0.3709 -0.1764
18219TIP3    H176148   1.476   0.047  10.423  0.3598  2.2968 -0.6615
18219TIP3    H276149   1.420   0.097  10.554 -1.7687 -3.8479  1.1297
18220TIP3   OH276150   1.265   5.908  12.159 -0.2748 -0.0069 -0.8027
18220TIP3    H176151   1.232   5.884  12.245  0.5406 -0.1090 -0.5099
18220TIP3    H276152   1.360   5.893  12.164 -0.1750  0.2795 -1.6141
18221TIP3   OH276153   3.334   0.693   1.898  0.0499  0.7357  0.0077
18221TIP3    H176154   3.343   0.685   1.803  1.8399 -0.1542  0.2201
18221TIP3    H276155   3.413   0.653   1.933 -1.7732 -1.4155  1.9984
18222TIP3   OH276156   4.196   2.192  16.569  0.1344  0.4549 -0.0836
18222TIP3    H176157   4.156   2.131  16.632 -0.3298  1.2720  0.4219
18222TIP3    H276158   4.152   2.275  16.584  1.1489  1.0706 -0.3833
18223TIP3   OH276159   5.255   6.212   5.284  0.1099 -0.0580  0.6260
18223TIP3    H176160   5.271   6.119   5.266  1.9851  0.3790 -0.1943
18223TIP3    H276161   5.235   6.250   5.198  0.3016  0.4619  0.8069
18224TIP3   OH276162   0.849   0.015  14.522  0.0121 -1.2296  0.3294
18224TIP3    H176163   0.778   0.046  14.578  0.2648  0.6925 -0.3087
18224TIP3    H276164   0.817   0.031  14.433  0.9201 -1.0566  0.0221
18225TIP3   OH276165   0.065   0.651   0.520  0.4508  0.1282  0.2765
18225TIP3    H176166   0.122   0.670   0.446 -0.4071  0.4796 -0.3115
18225TIP3    H276167  -0.021   0.681   0.493 -0.1976 -1.1476  0.8081
18226TIP3   OH276168   2.499   5.287  15.851 -0.2606  0.1502  0.2197
18226TIP3    H176169   2.520   5.283  15.945 -0.1828  0.2434  0.2066
18226TIP3    H276170   2.404   5.293  15.848 -0.4232 -1.6739  0.2472
18227TIP3   OH276171   4.781   1.130  13.177  0.3380  0.1200  0.0294
18227TIP3    H176172   4.707   1.071  13.160 -1.1568  1.0316  2.8271
18227TIP3    H276173   4.744   1.218  13.169  1.9734  0.7289 -1.7143
18228TIP3   OH276174   3.434   2.868  12.081  0.1590 -0.4649 -0.4135
18228TIP3    H176175   3.430   2.909  11.995 -2.5368 -2.0035 -1.1444
18228TIP3    H276176   3.510   2.908  12.123  0.7726  1.3280 -2.9735
18229TIP3   OH276177   2.037   5.522   1.033  0.6063  0.5945 -0.3099
18229TIP3    H176178   2.120   5.563   1.010  0.2743  0.9954 -0.8223
18229TIP3    H276179   1.983   5.593   1.067  0.6580  0.2328  0.5628
18230TIP3   OH276180   2.683   1.783   0.120 -0.2825 -0.1079  0.1155
18230TIP3    H176181   2.669   1.753   0.030 -1.7238  1.4155 -0.2154
18230TIP3    H276182   2.622   1.731   0.172 -0.0706 -0.3726  0.1057
18231TIP3   OH276183   5.758   2.545  11.924  0.3645  0.0266 -0.6347
18231TIP3    H176184   5.698   2.608  11.884  0.9167  0.1327 -1.3147
18231TIP3    H276185   5.845   2.579  11.905  0.6563 -0.0343  0.4946
18232TIP3   OH276186   3.691   0.955   1.924  0.2643  0.1141  0.5752
18232TIP3    H176187   3.704   1.046   1.950  0.4016  0.2443  0.0701
18232TIP3    H276188   3.688   0.906   2.006 -0.5125  0.6644  0.8945
18233TIP3   OH276189   3.114   2.067  15.383  0.4877  0.1234 -0.3320
18233TIP3    H176190   3.210   2.073  15.385  0.4103  2.3130 -0.2333
18233TIP3    H276191   3.085   2.153  15.413 -1.5043  0.0495 -1.8543
18234TIP3   OH276192   2.518   4.689  13.488  0.4921 -0.0961 -0.1234
18234TIP3    H176193   2.578   4.735  13.429  1.6980 -0.8428  0.4733
18234TIP3    H276194   2.525   4.738  13.571 -0.9058  0.7244 -0.4665
18235TIP3   OH276195   0.391   0.331  14.605 -1.3008  0.0904  0.2476
18235TIP3    H176196   0.396   0.418  14.644  0.3480  1.9707 -3.6774
18235TIP3    H276197   0.298   0.315  14.593 -1.6322  1.2051  1.1276
18236TIP3   OH276198   1.609   0.352  12.431 -0.1259 -0.0399 -0.6697
18236TIP3    H176199   1.575   0.407  12.361  0.4892  0.6531 -0.4302
18236TIP3    H276200   1.542   0.356  12.499  1.2349  2.9638  0.6594
18237TIP3   OH276201   4.938   3.966  17.015  0.5955 -0.0354 -0.6037
18237TIP3    H176202   4.966   4.055  17.039 -1.4771  0.5184 -0.0599
18237TIP3    H276203   4.949   3.916  17.095 -0.3568  0.2992 -0.2476
18238TIP3   OH276204   0.753   5.461  10.400  0.6080  0.7073 -0.0287
18238TIP3    H176205   0.787   5.381  10.359  1.5667  0.5346  1.0512
18238TIP3    H276206   0.659   5.461  10.379  0.6695 -0.4915 -0.3813
18239TIP3   OH276207   5.723   1.939  14.905  0.2884 -0.2651  0.8724
18239TIP3    H176208   5.728   1.938  15.001  0.6121  1.6793  0.9273
18239TIP3    H276209   5.630   1.929  14.885  0.2335 -0.8150  1.3740
18240TIP3   OH276210   1.618   2.394  10.679  0.0422 -0.0952  0.2722
18240TIP3    H176211   1.543   2.351  10.719 -0.3497 -0.2089 -0.5705
18240TIP3    H276212   1.646   2.459  10.744 -1.2151  0.4275  0.3241
18241TIP3   OH276213   1.737   0.126   0.288 -0.5098 -0.2380  0.2364
18241TIP3    H176214   1.716   0.076   0.209  1.6622 -1.4072  0.3053
18241TIP3    H276215   1.832   0.138   0.284 -0.6849  1.9498  1.4004
18242TIP3   OH276216   0.314   0.892   0.486 -0.3068  0.3205 -0.2095
18242TIP3    H176217   0.306   0.814   0.431  0.5653  0.7709 -1.0088
18242TIP3    H276218   0.393   0.935   0.454 -0.2180  1.0080  0.8958
18243TIP3   OH276219   6.072   4.210   0.208 -0.2825  0.7480  0.6884
18243TIP3    H176220   6.051   4.136   0.265 -2.3885  1.1214  0.4809
18243TIP3    H276221   5.995   4.219   0.152  0.9245  1.6220 -0.9119
18244TIP3   OH276222   1.548   0.747  11.420  0.2345  0.3203  0.0820
18244TIP3    H176223   1.492   0.671  11.408 -1.5126  1.2558  1.8163
18244TIP3    H276224   1.546   0.764  11.514  2.6067  1.0538  0.0782
18245TIP3   OH276225   4.222   4.915  11.021 -0.2974 -0.1764  0.3138
18245TIP3    H176226   4.179   4.857  10.958 -0.6221  0.3577  0.0435
18245TIP3    H276227   4.278   4.972  10.967 -1.6582  1.2434  0.3518
18246TIP3   OH276228   0.932   5.129  14.670 -0.1458  0.0914  0.1113
18246TIP3    H176229   0.858   5.141  14.730  1.2961  0.6312  1.8442
18246TIP3    H276230   0.951   5.036  14.673 -0.6287 -0.0256 -0.2220
18247TIP3   OH276231   1.162   4.423   3.095 -0.1799  0.0209 -0.0546
18247TIP3    H176232   1.229   4.355   3.091 -1.2218 -0.9907 -0.5424
18247TIP3    H276233   1.108   4.409   3.017 -0.7062  1.0926  0.0976
18248TIP3   OH276234   0.959   1.910  12.404  0.4035 -0.5554  0.1248
18248TIP3    H176235   0.999   1.871  12.327 -0.3377  0.2730 -0.7063
18248TIP3    H276236   0.992   2.000  12.406 -0.5527 -0.1817  0.0275
18249TIP3   OH276237   3.161   4.690   2.466 -0.1730 -0.5570 -0.2879
18249TIP3    H176238   3.147   4.754   2.536  0.8290 -1.0037  0.3436
18249TIP3    H276239   3.108   4.723   2.393 -1.8229 -0.4706  0.8971
18250TIP3   OH276240   2.509   0.163  16.545  0.1070  1.0255 -0.4340
18250TIP3    H176241   2.507   0.214  16.464  2.7996 -0.1032 -1.3243
18250TIP3    H276242   2.556   0.220  16.607 -1.3238  1.5924  0.1881
18251TIP3   OH276243   4.487   3.237  10.317 -0.1474  0.1404 -0.4134
18251TIP3    H176244   4.477   3.152  10.359  2.1374  0.3240  0.6228
18251TIP3    H276245   4.404   3.281  10.332  0.0244 -0.3922  2.6125
18252TIP3   OH276246   3.798   2.669  10.826  0.4281 -0.2104  0.4292
18252TIP3    H176247   3.831   2.745  10.873 -1.9718  2.1341 -1.3453
18252TIP3    H276248   3.704   2.668  10.844  0.0515 -1.4753 -1.2761
18253TIP3   OH276249   3.881   3.438  14.845 -0.0878  0.7429  0.3977
18253TIP3    H176250   3.815   3.507  14.846 -0.7900  0.1019 -0.3569
18253TIP3    H276251   3.832   3.359  14.821  1.1505  0.4647 -1.3362
18254TIP3   OH276252   0.251   6.086  14.270 -0.3393  0.2881  0.2557
18254TIP3    H176253   0.322   6.053  14.215  1.3785  1.1680  1.8327
18254TIP3    H276254   0.190   6.126  14.208  0.5192 -0.5079 -1.1567
18255TIP3   OH276255   0.509   4.755   2.405 -0.1434 -0.2143  0.3098
18255TIP3    H176256   0.552   4.707   2.334  3.1276 -0.4279  2.2544
18255TIP3    H276257   0.433   4.702   2.427 -0.5482 -0.7718 -2.1527
18256TIP3   OH276258   4.093   0.721  10.477 -0.7423 -1.0063  0.0061
18256TIP3    H176259   4.043   0.705  10.396  0.6944  0.4815 -1.2587
18256TIP3    H276260   4.046   0.794  10.519  0.4912  0.7009 -1.4117
18257TIP3   OH276261   3.515   2.541  10.597 -0.4875  0.0855 -0.5165
18257TIP3    H176262   3.464   2.604  10.546 -1.3297 -0.0482  0.1381
18257TIP3    H276263   3.507   2.572  10.687  0.7867  0.1874 -0.4160
18258TIP3   OH276264   0.429   3.596   4.540 -0.2481 -0.0775  0.0307
18258TIP3    H176265   0.496   3.612   4.473  0.7982 -0.5543  0.9342
18258TIP3    H276266   0.367   3.538   4.497  0.6812 -0.8005 -0.3860
18259TIP3   OH276267   6.121   1.258   2.607  0.6054  0.1599 -0.0252
18259TIP3    H176268   6.045   1.282   2.660  0.0908  0.2614 -0.8000
18259TIP3    H276269   6.189   1.320   2.635  1.1814 -1.3995  2.3663
18260TIP3   OH276270   3.184   0.261   0.638 -0.0064  0.3132 -0.6255
18260TIP3    H176271   3.159   0.262   0.731 -0.9585 -0.5996 -0.8558
18260TIP3    H276272   3.103   0.239   0.592  0.3396  1.2974 -1.7260
18261TIP3   OH276273   4.292   0.956  11.002 -0.3159 -0.1710  0.0469
18261TIP3    H176274   4.201   0.986  10.997 -0.5382 -0.7385  0.5017
18261TIP3    H276275   4.307   0.911  10.919 -0.3350  0.2262 -0.1754
18262TIP3   OH276276   5.927   3.033  12.759  0.4754 -0.1949 -0.2709
18262TIP3    H176277   5.973   2.952  12.737 -0.4010 -0.5603 -0.8216
18262TIP3    H276278   5.844   3.004  12.798  1.1539  0.4409  1.7880
18263TIP3   OH276279   4.631   0.781   5.377 -0.2320  0.1901 -0.1960
18263TIP3    H176280   4.600   0.696   5.345  1.2833 -0.6493  0.4495
18263TIP3    H276281   4.714   0.795   5.331 -0.2505  1.1187  0.0332
18264TIP3   OH276282   4.723   1.512   5.779 -0.4602  0.1744  0.6095
18264TIP3    H176283   4.779   1.434   5.777  0.8796  1.1007  0.4352
18264TIP3    H276284   4.734   1.546   5.868 -1.3789 -0.0695  0.8181
18265TIP3   OH276285   2.308   4.491   1.076  0.6113  0.1092 -0.3714
18265TIP3    H176286   2.290   4.520   0.986 -0.1333 -0.2957 -0.3609
18265TIP3    H276287   2.271   4.403   1.080 -2.1622  1.2265  1.2266
18266TIP3   OH276288   4.623   4.295   6.505  0.0788 -0.1147 -0.7463
18266TIP3    H176289   4.674   4.216   6.522  1.7245  0.6973 -1.6899
18266TIP3    H276290   4.687   4.360   6.475 -1.1115  1.7837  0.5433
18267TIP3   OH276291   5.095   2.452  16.084  0.1219  0.2639 -0.0466
18267TIP3    H176292   5.142   2.404  16.153  1.1578  0.2138 -0.7733
18267TIP3    H276293   5.161   2.472  16.019 -1.2821 -2.0789 -2.3739
18268TIP3   OH276294   4.740   4.934   3.993  0.3021  0.2984 -0.5659
18268TIP3    H176295   4.659   4.882   3.990  0.7830 -0.4357 -1.1839
18268TIP3    H276296   4.788   4.908   3.915  0.8430  1.2289 -0.5544
18269TIP3   OH276297   3.324   4.931   2.696 -0.1414 -0.2313  0.2997
18269TIP3    H176298   3.306   4.996   2.765  0.5948 -0.0489  0.3295
18269TIP3    H276299   3.254   4.943   2.633  2.1076  3.4873 -1.8142
18270TIP3   OH276300   4.664   1.165   3.786  0.3097  0.3958 -0.3137
18270TIP3    H176301   4.603   1.103   3.826 -0.2256 -0.3812 -2.2458
18270TIP3    H276302   4.751   1.134   3.812 -0.0273  1.0043  1.7325
18271TIP3   OH276303   4.943   1.956  11.171 -0.1254  0.1972 -0.3025
18271TIP3    H176304   4.936   1.889  11.239  0.6826  0.2948 -0.1165
18271TIP3    H276305   4.853   1.967  11.139 -0.7062  0.8911  1.4575
18272TIP3   OH276306   1.304   6.064  15.620  0.6687 -0.1945 -0.0116
18272TIP3    H176307   1.379   6.029  15.669  1.3823  1.8432  0.4479
18272TIP3    H276308   1.256   6.117  15.684  0.1841  0.4560 -0.8829
18273TIP3   OH276309   2.294   1.896   1.982  0.7011  0.2487  0.6742
18273TIP3    H176310   2.239   1.873   2.057  1.3473 -0.0201  1.0765
18273TIP3    H276311   2.383   1.887   2.015  1.0722 -1.9338 -0.6780
18274TIP3   OH276312   3.543   0.996  13.423 -0.2424 -0.1323 -0.5008
18274TIP3    H176313   3.539   0.985  13.518 -2.7771  1.4330 -0.3607
18274TIP3    H276314   3.637   0.994  13.404  0.3013 -1.8033  1.8261
18275TIP3   OH276315   6.374   4.252  16.945 -0.4705 -0.2318  0.3332
18275TIP3    H176316   6.357   4.223  17.034 -2.0206 -0.3516  0.0249
18275TIP3    H276317   6.470   4.257  16.939 -0.2675 -1.8098  1.4939
18276TIP3   OH276318   5.776   2.244  11.807  0.6214  0.1852 -0.1778
18276TIP3    H176319   5.755   2.336  11.825  0.3088  0.2691 -0.9254
18276TIP3    H276320   5.817   2.213  11.887 -1.0099  0.4427  0.8062
18277TIP3   OH276321   0.507   1.782   4.363  0.0928 -0.0101  0.4834
18277TIP3    H176322   0.558   1.761   4.441  1.0449  2.1012  0.5117
18277TIP3    H276323   0.562   1.753   4.290 -0.8756 -2.1462  0.5363
18278TIP3   OH276324   5.887   5.957   3.156 -0.2786 -0.5564 -0.1485
18278TIP3    H176325   5.898   5.916   3.070  0.7088 -0.8542  0.1145
18278TIP3    H276326   5.907   5.887   3.219 -2.2255 -0.7167  0.3715
18279TIP3   OH276327   2.417   6.100  13.272  0.2594 -0.5464 -0.0043
18279TIP3    H176328   2.428   6.194  13.287  0.4339 -0.4939 -0.4469
18279TIP3    H276329   2.506   6.065  13.270  0.1601 -0.9603  1.6038
18280TIP3   OH276330   5.679   2.346   2.916 -0.1034  0.2624  0.5753
18280TIP3    H176331   5.605   2.297   2.879 -1.0351  1.0233  1.3665
18280TIP3    H276332   5.656   2.356   3.009  0.1163  2.1102  0.4490
18281TIP3   OH276333   1.232   4.372   6.270 -0.7246 -0.4625 -0.1720
18281TIP3    H176334   1.310   4.349   6.320 -2.1625  0.1728  2.5784
18281TIP3    H276335   1.210   4.461   6.298 -0.0891  1.1553 -4.1617
18282TIP3   OH276336   2.230   3.432   0.679 -0.3296  0.0465 -0.3534
18282TIP3    H176337   2.265   3.487   0.749 -0.7239 -2.9183  2.3883
18282TIP3    H276338   2.295   3.437   0.609  1.3810  1.1213  1.2383
18283TIP3   OH276339   3.164   4.246   5.484  0.2675 -0.2370  0.3424
18283TIP3    H176340   3.140   4.234   5.392 -0.2541 -1.4096  0.6171
18283TIP3    H276341   3.235   4.309   5.481  0.6176 -0.6502 -0.9166
18284TIP3   OH276342   3.529   6.209  17.088  0.0288 -0.3872 -0.3291
18284TIP3    H176343   3.483   6.250  17.161  0.7272 -0.6988  0.3039
18284TIP3    H276344   3.465   6.148  17.050 -0.7838  0.7724 -0.8516
18285TIP3   OH276345   6.030   3.928   5.464  0.2233 -0.6579 -0.0385
18285TIP3    H176346   5.955   3.906   5.519 -2.7844  1.2304 -2.9683
18285TIP3    H276347   6.016   4.020   5.441  1.8848 -1.0141 -2.9272
18286TIP3   OH276348   6.429   5.994  14.788 -0.2031  0.6365  1.1459
18286TIP3    H176349   6.355   6.055  14.788 -0.7427  0.2098 -2.1243
18286TIP3    H276350   6.389   5.907  14.791  0.2184  0.4178  0.6863
18287TIP3   OH276351   2.874   2.173   5.723 -0.3000 -0.0644  0.2520
18287TIP3    H176352   2.901   2.088   5.688 -2.5000 -0.8352  0.2786
18287TIP3    H276353   2.838   2.220   5.647 -0.4037  0.2822  0.5111
18288TIP3   OH276354   2.086   1.908  16.686  0.1424 -0.3014  0.0081
18288TIP3    H176355   2.033   1.874  16.758  1.3043 -0.6537  0.7129
18288TIP3    H276356   2.022   1.942  16.624 -0.8881  0.0630  1.2285
18289TIP3   OH276357   2.403   6.176  11.097  0.1414 -0.0699  0.3143
18289TIP3    H176358   2.486   6.210  11.062  0.3689  0.3034  1.1832
18289TIP3    H276359   2.351   6.155  11.020  0.5959  0.8039 -0.2507
18290TIP3   OH276360   4.104   5.525  16.280  0.6756 -0.3254 -0.2796
18290TIP3    H176361   4.024   5.574  16.260  1.3266  0.4695 -1.0959
18290TIP3    H276362   4.154   5.584  16.337  1.6626  0.2061 -1.6239
18291TIP3   OH276363   2.092   1.219   3.631  0.4649  0.6872  0.4491
18291TIP3    H176364   2.046   1.210   3.548 -0.2074 -2.0055  1.0240
18291TIP3    H276365   2.181   1.245   3.606  0.2764 -0.0503 -1.1239
18292TIP3   OH276366   5.253   3.271  16.442 -0.1570 -0.1609  0.1882
18292TIP3    H176367   5.221   3.360  16.426  0.1029 -0.3720 -1.7130
18292TIP3    H276368   5.329   3.284  16.499 -2.1064  0.5129  2.8707
18293TIP3   OH276369   5.372   1.029   0.036 -0.2352 -0.1170 -0.0590
18293TIP3    H176370   5.386   0.948  -0.013  1.1395  0.5804 -0.8716
18293TIP3    H276371   5.335   1.001   0.120  0.5921 -1.6118 -0.1729
18294TIP3   OH276372   3.337   3.137  10.965  1.0786 -0.2153  0.1193
18294TIP3    H176373   3.303   3.200  10.900 -1.1886  0.5304  1.8899
18294TIP3    H276374   3.347   3.056  10.916  0.3719  0.5620 -1.3852
18295TIP3   OH276375   2.029   3.580   0.541  0.4319 -0.0922 -0.0813
18295TIP3    H176376   2.106   3.535   0.574 -0.3276 -0.4157  1.3013
18295TIP3    H276377   1.967   3.579   0.613 -0.2373  1.7047 -0.5613
18296TIP3   OH276378   4.372   3.388  13.640 -0.4012 -0.2977 -0.3533
18296TIP3    H176379   4.373   3.483  13.654  3.2640 -0.0877 -1.1573
18296TIP3    H276380   4.444   3.355  13.693  0.2828 -2.1969 -2.3287
18297TIP3   OH276381   4.898   5.104  13.553  1.3798 -0.2335  0.0502
18297TIP3    H176382   4.972   5.147  13.596  0.9012 -0.4262  1.1024
18297TIP3    H276383   4.839   5.079  13.625  0.1957  0.0908 -0.7678
18298TIP3   OH276384   0.660   6.328   5.258 -0.4011 -0.0014 -0.2920
18298TIP3    H176385   0.596   6.260   5.235 -0.0131 -0.3450 -0.3646
18298TIP3    H276386   0.744   6.292   5.229  0.1049 -0.3839  1.5339
18299TIP3   OH276387   1.004   3.645  16.935  0.4780 -0.0009  0.1673
18299TIP3    H176388   1.035   3.676  16.850 -0.6308 -1.4897 -0.8232
18299TIP3    H276389   0.936   3.708  16.960 -1.4187 -1.2061 -1.5968
18300TIP3   OH276390   2.295   1.030  12.470  0.2823  0.3275 -0.5114
18300TIP3    H176391   2.317   0.989  12.386  2.6355  0.4435 -0.0067
18300TIP3    H276392   2.351   1.107  12.475  0.3279  0.2198  1.2307
18301TIP3   OH276393   6.576   5.300   2.670 -0.1997  0.1487 -0.0806
18301TIP3    H176394   6.652   5.272   2.721 -0.6071 -0.2977  0.2976
18301TIP3    H276395   6.543   5.377   2.716 -0.2789  0.0336  0.0580
18302TIP3   OH276396   2.182   0.129   0.841 -0.5620  0.0109 -0.0851
18302TIP3    H176397   2.254   0.081   0.799 -1.3364 -0.6145 -0.7615
18302TIP3    H276398   2.140   0.177   0.769  0.3443  1.9519  0.6243
18303TIP3   OH276399   0.866   1.777  16.980 -0.2743  0.7874  0.1130
18303TIP3    H176400   0.928   1.772  16.907 -0.9209  2.9176 -0.6593
18303TIP3    H276401   0.784   1.744  16.945  0.5710 -3.3455  1.5283
18304TIP3   OH276402   5.855   4.062   2.377  0.5112  0.3841  0.1499
18304TIP3    H176403   5.905   4.102   2.305  2.5981  1.4802  2.0705
18304TIP3    H276404   5.871   3.968   2.368  0.3776  0.4614 -1.0511
18305TIP3   OH276405   2.909   1.925  16.851  0.4181  0.1244 -0.4903
18305TIP3    H176406   2.830   1.925  16.797  0.6174 -1.1920 -0.8266
18305TIP3    H276407   2.966   1.860  16.809  1.8026  1.2621 -0.4264
18306TIP3   OH276408   2.392   1.702  12.309 -0.3363 -0.5139  0.4207
18306TIP3    H176409   2.356   1.777  12.356  0.3453  0.3634 -0.4072
18306TIP3    H276410   2.315   1.659  12.271 -0.8612 -1.0599  2.0203
18307TIP3   OH276411   6.047   5.583   1.553 -0.3497  1.0913  0.2326
18307TIP3    H176412   6.103   5.626   1.489 -1.5790  2.0529 -0.2430
18307TIP3    H276413   5.966   5.635   1.553 -0.7456  0.5345  1.8555
18308TIP3   OH276414   4.722   4.193  13.751 -0.2698  0.2625 -0.7863
18308TIP3    H176415   4.749   4.226  13.837  0.3084  0.8297 -1.1855
18308TIP3    H276416   4.803   4.182  13.702 -0.1795 -3.4003 -0.1453
18309TIP3   OH276417   0.704   2.957  10.601 -0.8330 -0.1792  0.2351
18309TIP3    H176418   0.678   3.025  10.663  2.2306  1.3790 -0.0134
18309TIP3    H276419   0.799   2.952  10.609 -0.5960 -1.9015 -2.3886
18310TIP3   OH276420   0.891   1.296  10.937  0.2583  0.2813 -0.0811
18310TIP3    H176421   0.798   1.291  10.959  0.3664  0.9537  0.5390
18310TIP3    H276422   0.901   1.381  10.896  0.7938  0.6407  0.7793
18311TIP3   OH276423   4.756   2.913  15.295 -0.0722  0.2161  0.2673
18311TIP3    H176424   4.813   2.864  15.235  0.4532  0.8491  0.2343
18311TIP3    H276425   4.814   2.941  15.365 -0.4412  0.4935  0.4638
18312TIP3   OH276426   2.773   5.535  11.584 -0.3754 -0.0878 -0.2601
18312TIP3    H176427   2.863   5.565  11.574 -0.0831 -0.8787 -0.1194
18312TIP3    H276428   2.727   5.569  11.507 -0.0053  0.4881 -0.2302
18313TIP3   OH276429   1.118   5.778   5.438 -0.1029  0.7239 -0.0256
18313TIP3    H176430   1.141   5.843   5.371  0.3920 -0.6789 -1.2599
18313TIP3    H276431   1.189   5.782   5.501 -0.1157  1.4147 -0.0419
18314TIP3   OH276432   1.970   2.876  14.153 -0.1013 -0.2495  0.1137
18314TIP3    H176433   1.965   2.866  14.058  3.4226  0.6657 -0.2991
18314TIP3    H276434   1.988   2.787  14.185 -1.9272 -0.6716  0.0417
18315TIP3   OH276435   3.936   6.334  15.749  0.6394 -0.6075  0.5281
18315TIP3    H176436   3.860   6.283  15.778 -0.0519  0.1186  0.0430
18315TIP3    H276437   4.003   6.269  15.730 -0.4326 -1.4049 -0.7065
18316TIP3   OH276438   3.444   4.556   3.465 -0.4741 -0.2730 -0.1453
18316TIP3    H176439   3.396   4.639   3.459 -2.1621 -0.9490  2.3077
18316TIP3    H276440   3.529   4.579   3.502 -1.1431  0.3238  1.0554
18317TIP3   OH276441   2.093   4.468  14.349  0.3072  0.3731 -0.1309
18317TIP3    H176442   2.094   4.464  14.445  0.0578  0.0944 -0.1387
18317TIP3    H276443   2.098   4.561  14.329 -0.3383  0.4784  0.1630
18318TIP3   OH276444   2.120   4.243   2.529  0.0413  0.0318 -0.0222
18318TIP3    H176445   2.091   4.186   2.458  1.7146  0.6006 -1.2405
18318TIP3    H276446   2.154   4.321   2.485  0.3482  0.7798  1.4545
18319TIP3   OH276447   1.333   1.707  16.663 -0.1013  0.3455  0.0284
18319TIP3    H176448   1.427   1.690  16.665  0.3860  1.6962 -3.8047
18319TIP3    H276449   1.326   1.802  16.653 -1.8072  0.1524 -0.9852
18320TIP3   OH276450   0.815   1.455  12.146 -0.1206 -0.0894  0.2334
18320TIP3    H176451   0.884   1.405  12.189  1.6595  0.9955 -1.2521
18320TIP3    H276452   0.851   1.543  12.135 -1.5748  0.4080 -0.9610
18321TIP3   OH276453   3.474   2.358   3.237  0.1329 -0.4172 -0.9506
18321TIP3    H176454   3.547   2.399   3.191  0.2416  1.9488  1.1165
18321TIP3    H276455   3.514   2.288   3.287  1.1466  1.1219  0.4945
18322TIP3   OH276456   3.442   1.669  10.389 -0.3374  0.1876 -0.2357
18322TIP3    H176457   3.526   1.702  10.421 -0.3245 -0.0813  0.0148
18322TIP3    H276458   3.435   1.703  10.300 -0.5900  1.3248  0.2054
18323TIP3   OH276459   4.634   6.172  16.504  0.4583  0.6582  0.6033
18323TIP3    H176460   4.604   6.228  16.432  2.6587 -0.3647 -1.2342
18323TIP3    H276461   4.672   6.096  16.460 -1.2138 -1.6959  2.9850
18324TIP3   OH276462   3.054   5.917   6.469  0.2255  0.1155 -0.5837
18324TIP3    H176463   3.022   5.968   6.395  0.4504  2.1791  0.6493
18324TIP3    H276464   3.129   5.966   6.502  1.9348 -2.2575 -0.6771
18325TIP3   OH276465   3.242   6.465   2.159  0.2027 -0.0656  0.5755
18325TIP3    H176466   3.170   6.403   2.171  0.3935 -0.4746 -0.3270
18325TIP3    H276467   3.303   6.446   2.230 -1.1172  1.0994  2.0985
18326TIP3   OH276468   1.031   3.800  15.769  0.4165  0.2412 -0.1683
18326TIP3    H176469   0.949   3.812  15.817 -0.5276 -0.5893 -1.5258
18326TIP3    H276470   1.071   3.887  15.770 -0.0684  0.4773  1.2151
18327TIP3   OH276471   1.776   1.518  11.160  0.2494 -0.0391  0.0984
18327TIP3    H176472   1.786   1.613  11.153  0.6146  0.0637  1.6675
18327TIP3    H276473   1.697   1.498  11.109  0.3962  1.0426 -0.5775
18328TIP3   OH276474   0.423   1.626  13.266  0.0890  0.1731  0.5735
18328TIP3    H176475   0.480   1.683  13.215 -1.0832  1.1764  0.3368
18328TIP3    H276476   0.483   1.577  13.322  1.1769  1.2979  0.4527
18329TIP3   OH276477   6.491   1.538  16.856 -0.1833  0.2346  0.5979
18329TIP3    H176478   6.520   1.472  16.919 -0.0575  0.7180  1.0588
18329TIP3    H276479   6.515   1.502  16.770 -0.9447 -0.7168  0.7777
18330TIP3   OH276480   6.166   0.342  11.424  0.0526 -0.2576 -0.2334
18330TIP3    H176481   6.133   0.263  11.465  1.0973  0.1526  1.5279
18330TIP3    H276482   6.223   0.381  11.491  1.1918  0.8939 -1.8015
18331TIP3   OH276483   5.228   4.385  17.062  0.6711 -0.0729  0.4509
18331TIP3    H176484   5.247   4.312  17.121  0.3476 -1.2664 -0.8773
18331TIP3    H276485   5.136   4.374  17.039  0.8254  0.2884 -0.3714
18332TIP3   OH276486   4.819   0.276   5.449 -0.6716 -0.7858 -0.3121
18332TIP3    H176487   4.914   0.273   5.435 -0.8984  0.5390 -2.6566
18332TIP3    H276488   4.810   0.302   5.541  1.2173 -1.2302  0.0513
18333TIP3   OH276489   3.188   1.012   4.872  0.2100  0.7154 -0.3928
18333TIP3    H176490   3.107   1.002   4.922  0.3474  4.5467  0.9220
18333TIP3    H276491   3.257   0.991   4.935  0.4040 -2.0394 -1.3699
18334TIP3   OH276492   3.397   1.729  10.937  0.7374 -0.2018 -0.7152
18334TIP3    H176493   3.358   1.644  10.958  0.3770  0.0984 -0.1218
18334TIP3    H276494   3.408   1.728  10.842 -0.0294 -0.5978 -0.8067
18335TIP3   OH276495   0.406   5.227  11.254  0.4383  0.2256  0.5807
18335TIP3    H176496   0.428   5.292  11.187  1.6733  0.5179  1.2550
18335TIP3    H276497   0.447   5.146  11.222  2.7764  0.7956  1.8927
18336TIP3   OH276498   2.537   6.373  14.085  0.3928 -0.3913 -0.3156
18336TIP3    H176499   2.559   6.292  14.038 -2.3581 -2.1527  1.1489
18336TIP3    H276500   2.512   6.434  14.016  1.1995 -1.2313 -1.4004
18337TIP3   OH276501   4.241   1.006   4.713  0.1374  0.2634  0.2891
18337TIP3    H176502   4.227   0.949   4.638 -0.8974  1.0115 -0.1158
18337TIP3    H276503   4.242   0.947   4.788  0.0781 -0.3837 -0.2052
18338TIP3   OH276504   3.766   3.819  14.641 -0.2046 -0.7363 -0.4023
18338TIP3    H176505   3.842   3.779  14.598 -1.5879 -2.4528 -1.3905
18338TIP3    H276506   3.719   3.863  14.570 -1.4161 -1.8095 -0.2881
18339TIP3   OH276507   3.573   3.246   1.696  0.3227 -0.3241 -0.3202
18339TIP3    H176508   3.488   3.203   1.694  0.0788  0.1059  0.3816
18339TIP3    H276509   3.621   3.208   1.622 -0.5723 -0.3612 -0.8990
18340TIP3   OH276510   0.967   6.296  15.602  0.0736  0.8460 -0.5071
18340TIP3    H176511   1.060   6.288  15.621 -0.4717  0.3737  2.4889
18340TIP3    H276512   0.933   6.207  15.614 -0.9447  1.2389 -0.3816
18341TIP3   OH276513   4.593   4.951  14.881 -0.6415  0.2642  0.0359
18341TIP3    H176514   4.682   4.964  14.914 -0.4972  1.3608 -0.7172
18341TIP3    H276515   4.538   4.954  14.959 -0.1144  0.6181  0.3998
18342TIP3   OH276516   6.374   0.463   4.571 -0.6101  0.2662 -0.5275
18342TIP3    H176517   6.316   0.402   4.525 -0.4640 -0.5579  0.3504
18342TIP3    H276518   6.320   0.500   4.641 -0.1417 -0.3915  0.2011
18343TIP3   OH276519   2.549   0.111   4.425 -0.3613  0.2262  0.0895
18343TIP3    H176520   2.481   0.065   4.376 -0.6046  0.2468  0.4021
18343TIP3    H276521   2.502   0.182   4.469  0.1534  1.3152 -1.0747
18344TIP3   OH276522   6.455   6.286  16.062 -0.4450 -0.3651 -0.4928
18344TIP3    H176523   6.544   6.252  16.048 -0.4950 -1.4101  1.3978
18344TIP3    H276524   6.403   6.209  16.084 -1.3990  0.4533  0.1969
18345TIP3   OH276525   3.156   1.089   1.758  0.2013  1.0955 -0.1181
18345TIP3    H176526   3.220   1.081   1.829  0.5871  0.3777 -0.5325
18345TIP3    H276527   3.188   1.163   1.706  0.1087  1.4047  0.2620
18346TIP3   OH276528   2.729   2.043   5.187  0.7690 -0.5788 -0.2446
18346TIP3    H176529   2.652   2.052   5.131  0.1379 -0.3843  0.6331
18346TIP3    H276530   2.725   1.953   5.218  1.8219 -1.0876 -1.4859
18347TIP3   OH276531   3.185   3.664  15.155 -0.2460  0.5348 -0.8729
18347TIP3    H176532   3.180   3.573  15.183  1.8480  0.1860 -1.4165
18347TIP3    H276533   3.094   3.694  15.153 -1.0707 -1.7887 -1.5414
18348TIP3   OH276534   4.669   4.013   6.211  0.1531  0.4094  0.3370
18348TIP3    H176535   4.582   4.042   6.183  0.6797  0.5705 -1.1817
18348TIP3    H276536   4.729   4.081   6.181  1.1948 -1.2986 -1.6598
18349TIP3   OH276537   0.480   6.108  16.509 -0.5778  0.3622 -0.1753
18349TIP3    H176538   0.513   6.071  16.591  0.4565 -0.4332 -0.9170
18349TIP3    H276539   0.399   6.061  16.492 -0.3192 -0.1341 -0.0673
18350TIP3   OH276540   1.678   6.105  10.545 -0.1767 -0.0739  0.2190
18350TIP3    H176541   1.773   6.093  10.539 -0.0949  0.3995  0.5174
18350TIP3    H276542   1.659   6.101  10.639 -0.3568  0.5286  0.2096
18351TIP3   OH276543   3.194   1.028  11.812 -0.0804  0.5326 -0.2543
18351TIP3    H176544   3.160   1.116  11.830  0.6753  0.6956  0.4653
18351TIP3    H276545   3.286   1.042  11.789 -0.2507  0.0241 -1.3127
18352TIP3   OH276546   5.992   6.189   0.124  0.0609  0.0977  0.1062
18352TIP3    H176547   6.024   6.117   0.070 -0.0197 -0.3860  0.6857
18352TIP3    H276548   6.013   6.162   0.214  1.3103  1.4509  0.2484
18353TIP3   OH276549   1.538   4.247   2.521 -0.1706 -0.4879 -0.2565
18353TIP3    H176550   1.533   4.153   2.538  1.1336 -0.1804  2.3899
18353TIP3    H276551   1.627   4.261   2.487 -0.2010 -0.1935 -0.2254
18354TIP3   OH276552   5.141   2.256   4.254  0.2010 -0.2713  0.1251
18354TIP3    H176553   5.160   2.163   4.258 -3.1052 -1.1370 -0.8978
18354TIP3    H276554   5.177   2.285   4.170 -2.0401 -1.6478 -1.4272
18355TIP3   OH276555   3.321   3.282  12.524 -0.1007  0.0163  0.0567
18355TIP3    H176556   3.280   3.347  12.581 -0.7978  2.4062 -2.9075
18355TIP3    H276557   3.256   3.213  12.516  0.2015 -0.6331  2.3822
18356TIP3   OH276558   3.277   4.628   2.225 -0.1913  0.2005  0.2348
18356TIP3    H176559   3.260   4.619   2.318  0.6860  1.7603  0.5866
18356TIP3    H276560   3.196   4.664   2.189  0.0298  1.1906  0.7032
18357TIP3   OH276561   1.162   2.595  12.030  0.5449  0.3080 -0.6804
18357TIP3    H176562   1.130   2.506  12.042  2.4657 -0.2294  1.0325
18357TIP3    H276563   1.085   2.650  12.042 -0.7157 -1.0928 -1.9748
18358TIP3   OH276564   2.106   3.606   4.858 -0.2048 -0.3667  0.0204
18358TIP3    H176565   2.114   3.700   4.872  2.4540 -0.6214  0.7658
18358TIP3    H276566   2.089   3.571   4.946  0.8295 -0.7185  0.0895
18359TIP3   OH276567   0.330   5.045   0.796  0.2764 -0.1091  0.1163
18359TIP3    H176568   0.336   4.951   0.782  0.8500  0.0394 -0.7100
18359TIP3    H276569   0.327   5.083   0.709  1.4936  0.7090  0.3925
18360TIP3   OH276570   2.748   3.992  17.128 -0.6920  0.3612 -0.0092
18360TIP3    H176571   2.834   3.962  17.158 -0.5209 -0.9913 -1.7069
18360TIP3    H276572   2.698   4.004  17.208  1.0027  1.0402  1.0246
18361TIP3   OH276573   0.020   4.394   4.239  0.3024 -0.1979  0.4036
18361TIP3    H176574  -0.002   4.453   4.167  3.1686  0.6670  0.1096
18361TIP3    H276575  -0.061   4.345   4.256 -0.7883  0.3597 -2.6083
18362TIP3   OH276576   4.063   6.084   3.081 -0.3410 -0.1571 -0.1545
18362TIP3    H176577   4.054   6.101   3.174  3.7977 -1.1632  0.6131
18362TIP3    H276578   4.062   6.171   3.040 -0.0014  0.4535  1.0963
18363TIP3   OH276579   3.571   1.662  12.950 -0.5889 -0.1561 -0.1689
18363TIP3    H176580   3.537   1.640  12.863 -2.7766 -0.2297  0.6373
18363TIP3    H276581   3.609   1.749  12.940 -0.3065 -0.3931 -1.3137
18364TIP3   OH276582   4.659   1.113   0.017  0.0240  0.3968 -0.5922
18364TIP3    H176583   4.571   1.121  -0.020  0.3434 -0.4186 -1.5757
18364TIP3    H276584   4.690   1.204   0.026 -0.4504  0.6415 -1.3890
18365TIP3   OH276585   1.369   2.561   3.318 -0.0317  0.2519 -0.3532
18365TIP3    H176586   1.346   2.468   3.314 -0.6536  0.4437 -1.6677
18365TIP3    H276587   1.450   2.563   3.369  2.1682 -1.4724 -3.4176
18366TIP3   OH276588   4.871   0.133  14.384 -0.0898 -0.1904 -0.1833
18366TIP3    H176589   4.852   0.102  14.295 -1.3801 -0.5956  0.2052
18366TIP3    H276590   4.785   0.150  14.422  0.4915  1.6618  0.4199
18367TIP3   OH276591   5.421   0.856  11.956  0.9962  0.3800 -0.4163
18367TIP3    H176592   5.484   0.853  11.884  0.6764  0.3065 -0.7007
18367TIP3    H276593   5.378   0.941  11.947 -1.6744 -1.0299 -2.6412
18368TIP3   OH276594   2.786   3.324   5.275 -0.7520  0.2018 -0.1438
18368TIP3    H176595   2.799   3.405   5.226 -1.7820  0.4504 -0.0414
18368TIP3    H276596   2.784   3.352   5.367  0.9879 -0.2359  0.0499
18369TIP3   OH276597   4.524   1.232   4.220  0.4676  0.2010 -0.1715
18369TIP3    H176598   4.472   1.173   4.275  0.7606 -0.7820 -0.9260
18369TIP3    H276599   4.614   1.202   4.231  0.5541  0.1204 -1.0162
18370TIP3   OH276600   3.744   3.186   3.342  0.0967  0.1958  0.3963
18370TIP3    H176601   3.671   3.125   3.340  0.7512 -0.5945 -0.9986
18370TIP3    H276602   3.748   3.216   3.433 -0.3512 -1.6811  1.0747
18371TIP3   OH276603   3.838   1.890  15.941 -0.1533 -0.1641  0.3760
18371TIP3    H176604   3.896   1.916  15.870 -1.7530  1.4077 -0.4495
18371TIP3    H276605   3.807   1.803  15.916  0.1992 -0.1181 -0.2546
18372TIP3   OH276606   6.584   5.393   5.470  0.3737  0.1609 -0.3048
18372TIP3    H176607   6.529   5.453   5.419  0.6674  0.5865 -0.1292
18372TIP3    H276608   6.650   5.450   5.510 -0.3923 -0.0162  1.2897
18373TIP3   OH276609   0.319   4.089  12.193  0.3127  0.0301  0.0117
18373TIP3    H176610   0.343   4.061  12.282  1.2978  0.9477  0.0551
18373TIP3    H276611   0.266   4.018  12.159  0.6578 -0.7359  1.0266
18374TIP3   OH276612   0.858   5.678   0.055 -0.3058  0.4738  0.8818
18374TIP3    H176613   0.806   5.662  -0.023 -0.2386  1.9803  0.4963
18374TIP3    H276614   0.948   5.684   0.024  0.4493 -3.6130  1.7313
18375TIP3   OH276615   0.120   1.719  14.374 -0.5432  0.6603  0.1160
18375TIP3    H176616   0.049   1.701  14.435 -1.1595  2.3846 -0.0402
18375TIP3    H276617   0.173   1.786  14.417  1.9237 -1.6146  0.8909
18376TIP3   OH276618   5.621   2.399   4.438 -0.5349 -0.2887  0.4582
18376TIP3    H176619   5.600   2.487   4.408  0.0603  0.2412  1.5428
18376TIP3    H276620   5.714   2.403   4.461 -0.1373 -1.5790 -0.7790
18377TIP3   OH276621   6.551   4.216   0.625 -0.1544 -0.5785  0.0531
18377TIP3    H176622   6.600   4.181   0.699 -0.1682 -1.3095 -0.2709
18377TIP3    H276623   6.489   4.278   0.664 -1.6953 -2.5587  0.9614
18378TIP3   OH276624   2.658   3.904   0.624  0.6543  0.2324  0.3724
18378TIP3    H176625   2.708   3.827   0.650 -0.3321 -1.1593 -1.6178
18378TIP3    H276626   2.591   3.913   0.692  0.1961 -1.2491  0.1528
18379TIP3   OH276627   3.201   5.447   4.543 -0.0735  0.1039 -0.4652
18379TIP3    H176628   3.144   5.486   4.477 -0.3501  2.6160  1.0877
18379TIP3    H276629   3.254   5.521   4.574  2.8415 -1.7626 -0.6059
18380TIP3   OH276630   0.191   0.821  14.185  0.1414  0.2811  0.4334
18380TIP3    H176631   0.145   0.891  14.231 -0.6424  0.2113 -0.2166
18380TIP3    H276632   0.121   0.773  14.139  0.5089 -1.6052  1.7307
18381TIP3   OH276633   2.708   3.006  13.602 -0.8091 -0.1666  0.0117
18381TIP3    H176634   2.794   3.012  13.560 -0.8254  0.6004  0.0733
18381TIP3    H276635   2.667   3.091  13.585 -0.8606  0.1341  1.4954
18382TIP3   OH276636   0.957   0.726  11.132 -0.4540  0.3936 -0.2480
18382TIP3    H176637   0.961   0.700  11.040 -0.8282 -1.3095  0.1786
18382TIP3    H276638   1.022   0.671  11.175 -0.0142  1.4427  0.4624
18383TIP3   OH276639   3.772   6.196   2.835 -0.1285 -0.5839 -0.3524
18383TIP3    H176640   3.743   6.271   2.783  2.3722 -0.3376 -1.5167
18383TIP3    H276641   3.694   6.170   2.885 -1.2655  2.3116 -0.4466
18384TIP3   OH276642   1.999   6.315  15.330  1.0782  0.0113 -0.2720
18384TIP3    H176643   2.080   6.271  15.305  1.1550 -0.1455  0.2384
18384TIP3    H276644   1.954   6.330  15.247  1.0411 -1.0400 -0.4612
18385TIP3   OH276645   5.578   6.238   6.351 -0.1381 -0.2424  0.1982
18385TIP3    H176646   5.588   6.322   6.307 -5.1837  1.6320  1.9398
18385TIP3    H276647   5.518   6.189   6.294  2.4170 -2.7018 -0.5909
18386TIP3   OH276648   6.655   3.543  12.859  0.0899  0.2036  0.1043
18386TIP3    H176649   6.656   3.460  12.907  3.2572 -0.5476 -1.0445
18386TIP3    H276650   6.658   3.517  12.767 -1.1767  1.6318 -0.3710
18387TIP3   OH276651   2.422   3.573   3.064 -0.0600 -0.0771 -0.1081
18387TIP3    H176652   2.392   3.510   3.130  1.4424  0.7760  1.4864
18387TIP3    H276653   2.358   3.644   3.069 -0.7327 -0.6301 -0.6068
18388TIP3   OH276654   6.157   0.516  16.056 -0.5698 -0.4660  0.1855
18388TIP3    H176655   6.230   0.561  16.098 -0.5675  0.6941 -0.9813
18388TIP3    H276656   6.175   0.525  15.962 -0.7178 -2.7011 -0.1153
18389TIP3   OH276657   0.618   2.569   6.228 -0.0458  0.7142  0.3991
18389TIP3    H176658   0.690   2.591   6.288 -0.7495  1.7219  0.9031
18389TIP3    H276659   0.626   2.633   6.158  0.1078  0.2326 -0.0261
18390TIP3   OH276660   4.163   6.269   3.532 -0.4784 -0.0427  0.4242
18390TIP3    H176661   4.201   6.212   3.465 -0.7507 -0.1410  0.3534
18390TIP3    H276662   4.133   6.346   3.483  0.2699  0.3583  0.5731
18391TIP3   OH276663   0.598   0.529   3.365  0.6475  0.4679  0.4819
18391TIP3    H176664   0.639   0.615   3.371  2.4318 -0.2610 -0.4531
18391TIP3    H276665   0.626   0.495   3.280  0.0119 -1.0545  0.8534
18392TIP3   OH276666   0.879   1.104  15.452 -0.1097  0.4127 -0.0262
18392TIP3    H176667   0.786   1.093  15.466 -0.1727  0.5411 -0.3304
18392TIP3    H276668   0.914   1.130  15.537 -0.7007  2.6398 -0.3907
18393TIP3   OH276669   1.123   0.404  17.040 -0.3661 -0.8316 -0.5966
18393TIP3    H176670   1.178   0.480  17.059 -0.0209 -1.3477  0.6350
18393TIP3    H276671   1.168   0.331  17.084 -1.8422 -1.3389  0.1448
18394TIP3   OH276672   4.934   1.713  14.342 -0.2181  0.3936 -0.5433
18394TIP3    H176673   4.916   1.683  14.431 -0.1405  2.7997  0.3604
18394TIP3    H276674   5.004   1.656  14.311  3.1417  2.3211  2.7554
18395TIP3   OH276675   0.382   2.005   2.641 -0.1873 -0.3717 -0.3258
18395TIP3    H176676   0.411   1.915   2.631 -0.3764 -0.3871 -0.7749
18395TIP3    H276677   0.301   1.998   2.692 -1.1832 -0.6304 -1.8781
18396TIP3   OH276678   1.489   1.752   2.525  0.5074 -0.0373  0.2321
18396TIP3    H176679   1.458   1.662   2.515 -0.8372  0.4943 -0.6153
18396TIP3    H276680   1.576   1.743   2.565  0.5792 -1.7247 -0.2258
18397TIP3   OH276681   0.409   6.118   3.518  0.1221  0.5506  0.0760
18397TIP3    H176682   0.324   6.081   3.496  0.0462  0.6122  0.2668
18397TIP3    H276683   0.389   6.204   3.556  0.3847  2.1111 -2.9911
18398TIP3   OH276684   4.901   2.584  14.566  0.4003  0.1933  0.1472
18398TIP3    H176685   4.884   2.671  14.531 -0.1714  0.5260  1.2053
18398TIP3    H276686   4.925   2.531  14.490 -2.6585  0.3948 -1.0992
18399TIP3   OH276687   5.369   2.002   4.282 -0.4034 -0.2668 -0.0959
18399TIP3    H176688   5.396   2.079   4.232  0.9366  0.2728  1.3558
18399TIP3    H276689   5.367   2.033   4.373 -1.5159 -1.5280  0.3303
18400TIP3   OH276690   1.997   1.228  17.065  0.1224  0.4179 -0.0837
18400TIP3    H176691   1.961   1.226  16.976 -0.2378 -0.5259  0.0792
18400TIP3    H276692   1.922   1.246  17.121  0.4847  1.9105 -0.0154
18401TIP3   OH276693   4.511   2.651  16.100 -0.2138 -0.1883 -0.2122
18401TIP3    H176694   4.523   2.713  16.171 -1.0425 -0.3275  0.0631
18401TIP3    H276695   4.576   2.582  16.117 -2.5218 -1.9469  2.3598
18402TIP3   OH276696   2.390   2.914   6.281 -0.2399  0.6641 -0.8932
18402TIP3    H176697   2.438   2.833   6.295 -0.1003  1.0772  1.5336
18402TIP3    H276698   2.299   2.886   6.272 -0.5874  0.2454  2.4798
18403TIP3   OH276699   1.416   2.081  13.346  0.1102  0.7136 -0.2627
18403TIP3    H176700   1.435   2.010  13.285 -0.2773  0.9177 -0.6289
18403TIP3    H276701   1.502   2.115  13.371  0.2584  1.7746 -2.0590
18404TIP3   OH276702   3.343   4.265   1.002  1.0391 -0.7070 -0.1872
18404TIP3    H176703   3.379   4.188   1.046 -1.3606 -2.0374 -0.3460
18404TIP3    H276704   3.328   4.236   0.912  0.1819 -0.0602 -0.2647
18405TIP3   OH276705   3.070   3.666  12.379  0.7774  0.0448  0.0011
18405TIP3    H176706   3.105   3.589  12.335  0.7793  0.3769 -0.5774
18405TIP3    H276707   3.140   3.695  12.437  1.2337  0.3277 -0.6820
18406TIP3   OH276708   0.886   4.814   5.250  0.4018  0.0484 -0.0714
18406TIP3    H176709   0.917   4.788   5.163 -0.3683  1.1318 -0.6941
18406TIP3    H276710   0.868   4.908   5.242  1.2014  0.3674  1.5343
18407TIP3   OH276711   5.492   5.148  12.987 -0.2844 -0.4469 -0.1127
18407TIP3    H176712   5.508   5.061  12.949 -0.5382 -0.9347  0.8683
18407TIP3    H276713   5.397   5.159  12.984 -0.5849 -1.5372  2.5064
18408TIP3   OH276714   3.869   0.112  11.614  0.7995 -0.2763 -0.0212
18408TIP3    H176715   3.825   0.194  11.636  0.5334 -0.4216 -0.0161
18408TIP3    H276716   3.817   0.044  11.657  1.9361 -0.3209  1.3557
18409TIP3   OH276717   4.687   2.119  13.105  0.1421  0.2571 -0.0097
18409TIP3    H176718   4.598   2.096  13.132 -0.3174  1.6092 -0.3067
18409TIP3    H276719   4.740   2.106  13.184 -0.5890  0.9032  0.6016
18410TIP3   OH276720   0.051   1.439  16.082  0.6950  0.3853 -0.1382
18410TIP3    H176721   0.031   1.392  16.001  2.0066 -2.1620  0.9446
18410TIP3    H276722  -0.029   1.431  16.135  1.1914 -1.4702  0.3856
18411TIP3   OH276723   6.430   3.129   1.871 -0.3985  0.3260  0.2720
18411TIP3    H176724   6.490   3.189   1.915  0.1555 -1.1985  1.7153
18411TIP3    H276725   6.462   3.123   1.781  1.5785 -0.3452  0.9795
18412TIP3   OH276726   0.566   3.422  10.552  0.4505 -0.3800 -0.0844
18412TIP3    H176727   0.482   3.462  10.573 -0.4183 -0.9474 -2.1373
18412TIP3    H276728   0.578   3.354  10.618 -1.8919 -1.8454 -1.0234
18413TIP3   OH276729   6.058   1.353   2.979 -0.3710 -0.5424 -0.4990
18413TIP3    H176730   6.071   1.448   2.979 -1.1684 -0.3834  1.3408
18413TIP3    H276731   5.994   1.337   2.910  1.0575  0.0013 -2.0311
18414TIP3   OH276732   4.836   5.710   3.431 -0.5172 -0.5631  0.4515
18414TIP3    H176733   4.773   5.683   3.498 -0.2005 -0.6264  0.7299
18414TIP3    H276734   4.791   5.777   3.381 -0.1891  0.7308  1.7976
18415TIP3   OH276735   4.640   0.783   6.268  0.1333  0.4328 -0.3584
18415TIP3    H176736   4.692   0.861   6.286 -1.8107  1.8847 -0.5869
18415TIP3    H276737   4.613   0.794   6.177 -0.1595 -0.5205 -0.3926
18416TIP3   OH276738   3.028   1.740   5.230 -0.5688  0.0607 -0.1779
18416TIP3    H176739   3.101   1.798   5.251 -1.4411  0.8265  0.8974
18416TIP3    H276740   2.952   1.782   5.271 -1.1340 -2.1616  1.1916
18417TIP3   OH276741   2.105   5.041   1.505 -0.2214 -0.4456 -0.4990
18417TIP3    H176742   2.071   4.969   1.559 -0.0831  1.3965  2.2542
18417TIP3    H276743   2.200   5.037   1.518 -0.2733  0.6798  0.3766
18418TIP3   OH276744   2.527   1.832  12.667 -0.2106 -0.2418 -0.2398
18418TIP3    H176745   2.493   1.881  12.593 -3.0319 -1.5715  0.0305
18418TIP3    H276746   2.555   1.898  12.730  0.8667  0.9054 -1.8621
18419TIP3   OH276747   4.229   0.552   2.225 -0.2968 -0.2002 -0.0139
18419TIP3    H176748   4.308   0.535   2.174  0.3199  0.3235  0.7284
18419TIP3    H276749   4.163   0.576   2.160  0.7296  1.4231 -0.5423
18420TIP3   OH276750   2.569   5.383   1.002  0.4675 -0.7196 -1.0338
18420TIP3    H176751   2.547   5.414   0.915  0.3116 -1.3602 -1.2266
18420TIP3    H276752   2.493   5.330   1.029  0.7638 -1.0063 -0.7517
18421TIP3   OH276753   3.179   2.126   6.333  0.2477  0.6716  0.0270
18421TIP3    H176754   3.100   2.133   6.281 -0.0116  2.9665  0.6037
18421TIP3    H276755   3.242   2.184   6.290  1.0781  0.1222  0.4686
18422TIP3   OH276756   2.163   6.604   3.248  0.0096 -0.7292 -0.0039
18422TIP3    H176757   2.227   6.582   3.181  1.0226 -0.3591  0.8181
18422TIP3    H276758   2.198   6.568   3.329 -1.4553 -1.6326  0.2718
18423TIP3   OH276759   2.318   6.831  12.323  0.1516 -0.2135  0.4074
18423TIP3    H176760   2.303   6.837  12.229  2.3644 -0.8915 -0.0394
18423TIP3    H276761   2.367   6.910  12.344 -0.7643  0.1809  1.1075
18424TIP3   OH276762   2.130   6.584   3.603  0.7897 -0.1070  0.2536
18424TIP3    H176763   2.047   6.538   3.613  0.1746  1.0156  0.4498
18424TIP3    H276764   2.196   6.521   3.633  0.0258 -1.0260  0.0507
18425TIP3   OH276765   4.051   1.046  15.430 -0.2575 -0.0268 -0.5152
18425TIP3    H176766   4.022   0.998  15.353 -1.2365 -1.1562  0.5043
18425TIP3    H276767   4.119   0.990  15.469  0.0371  0.4018 -0.4074
18426TIP3   OH276768   0.981   3.110  11.596  0.1804 -0.1865  0.0712
18426TIP3    H176769   0.948   3.020  11.601  1.1178 -0.6535 -1.4724
18426TIP3    H276770   0.947   3.143  11.513  1.6330  0.1155 -0.4299
18427TIP3   OH276771   1.360   1.562  16.251  0.1117  0.0256  0.0568
18427TIP3    H176772   1.435   1.619  16.230 -0.5390  0.4028 -1.3391
18427TIP3    H276773   1.316   1.607  16.323  0.7065  0.2862  0.2646
18428TIP3   OH276774   2.919   6.598   1.776 -0.0624 -0.1082  0.0384
18428TIP3    H176775   2.951   6.544   1.848  1.1139  0.8510  0.2674
18428TIP3    H276776   2.832   6.627   1.804 -1.1409 -2.5780 -0.4894
18429TIP3   OH276777   6.793   0.209   0.970 -0.4962  0.2368  0.2259
18429TIP3    H176778   6.846   0.229   0.893 -0.8728 -2.1667 -0.7516
18429TIP3    H276779   6.756   0.123   0.952  0.7321 -1.2391  3.7927
18430TIP3   OH276780   2.124   6.842  15.037 -0.4242 -0.8159  0.0630
18430TIP3    H176781   2.206   6.864  14.992  1.2698  0.7612  3.5806
18430TIP3    H276782   2.066   6.916  15.019 -0.2367 -0.7970 -0.4916
18431TIP3   OH276783   6.680   1.912  10.183  0.8297 -0.2948 -0.0625
18431TIP3    H176784   6.721   1.846  10.238  0.2885 -0.9316 -0.4086
18431TIP3    H276785   6.589   1.882  10.173  0.7999  0.0457 -0.9192
18432TIP3   OH276786   3.256   3.482   4.244 -1.0471  0.3767  0.3097
18432TIP3    H176787   3.162   3.467   4.240 -0.6843 -2.2841 -0.0252
18432TIP3    H276788   3.277   3.483   4.338 -1.2406 -0.4420  0.3667
18433TIP3   OH276789   1.034   3.862   3.858 -0.5810  0.0120  0.0947
18433TIP3    H176790   1.056   3.773   3.831 -0.1511  0.2388 -0.3056
18433TIP3    H276791   1.118   3.908   3.862 -0.7775  0.3516  0.4869
18434TIP3   OH276792   4.618   5.800  12.783 -0.5627 -0.5293 -0.8319
18434TIP3    H176793   4.574   5.846  12.711 -0.9460  1.1367  0.3983
18434TIP3    H276794   4.699   5.850  12.796 -0.8326 -0.3688  0.3276
18435TIP3   OH276795   5.552   3.854   5.845 -0.2272  0.5955 -0.2916
18435TIP3    H176796   5.606   3.884   5.918  0.3852 -0.1658 -0.4156
18435TIP3    H276797   5.465   3.891   5.862  0.2837  1.6811  0.0115
18436TIP3   OH276798   0.422   1.489  14.099  0.3687 -0.0484 -0.2855
18436TIP3    H176799   0.329   1.511  14.112  0.7128  0.9099  0.7504
18436TIP3    H276800   0.444   1.432  14.173  1.4526  2.5599  1.5405
18437TIP3   OH276801   5.635   3.743  16.297  0.3408 -0.0863 -0.7670
18437TIP3    H176802   5.691   3.738  16.374 -1.4537  0.2488  0.6147
18437TIP3    H276803   5.616   3.836  16.286  0.0656 -0.1895 -1.2115
18438TIP3   OH276804   1.548   5.104   6.062  0.0918  0.2178  0.2140
18438TIP3    H176805   1.599   5.085   6.141 -0.2102 -1.3731  0.0572
18438TIP3    H276806   1.536   5.198   6.064  2.3191  0.5636  0.7046
18439TIP3   OH276807   2.280   5.590   1.971 -0.2909  0.0753 -0.6768
18439TIP3    H176808   2.335   5.512   1.971  0.4093  0.5638 -0.6326
18439TIP3    H276809   2.190   5.556   1.969  0.0062 -0.7262 -0.6571
18440TIP3   OH276810   1.171   4.131   3.799  0.2087  0.3437  0.2642
18440TIP3    H176811   1.102   4.088   3.749  0.8917 -1.7909  1.0408
18440TIP3    H276812   1.204   4.199   3.740 -2.4831  1.4454 -0.1228
18441TIP3   OH276813   2.868   6.224   5.204 -0.1024  0.4068  0.3177
18441TIP3    H176814   2.897   6.136   5.227 -0.6345  0.4516  1.1944
18441TIP3    H276815   2.774   6.224   5.224  0.1121  1.5123  1.4238
18442TIP3   OH276816   4.494   2.986  11.845 -0.9105  0.1004 -0.5725
18442TIP3    H176817   4.453   2.902  11.864 -0.9803  0.6299  1.9799
18442TIP3    H276818   4.424   3.038  11.806 -1.8609  0.0328  0.9676
18443TIP3   OH276819   2.689   4.694  15.867  0.0233 -0.1695 -0.2315
18443TIP3    H176820   2.720   4.614  15.908 -0.7870 -2.0091 -2.9282
18443TIP3    H276821   2.768   4.746  15.853  0.5847 -0.5269  1.3797
18444TIP3   OH276822   4.681   2.444   2.202  0.1028 -0.0374  0.4140
18444TIP3    H176823   4.640   2.411   2.122  1.9830  1.3459 -1.2381
18444TIP3    H276824   4.688   2.539   2.188  2.1524  0.0156  1.3659
18445TIP3   OH276825   1.951   5.484   0.733  0.1414  0.1735 -0.3833
18445TIP3    H176826   1.971   5.511   0.822  0.5596  0.7546 -0.6452
18445TIP3    H276827   2.036   5.474   0.690 -0.0510  1.9480 -1.2929
18446TIP3   OH276828   2.823   5.277   1.158 -0.0331 -0.2087  0.8913
18446TIP3    H176829   2.756   5.255   1.223 -1.0686 -0.2241 -0.1402
18446TIP3    H276830   2.783   5.254   1.074  0.7265  1.0849  0.1407
18447TIP3   OH276831   5.035   2.049  16.465  0.1054  0.0791 -0.2365
18447TIP3    H176832   5.092   2.015  16.396 -1.2653  0.0213 -1.4089
18447TIP3    H276833   4.984   1.974  16.493  0.7061  0.0871  0.9312
18448TIP3   OH276834   2.922   4.330   0.162 -0.5066  0.1266 -0.3225
18448TIP3    H176835   3.016   4.327   0.145 -0.2479 -0.9935  1.1285
18448TIP3    H276836   2.912   4.397   0.229 -0.7687  0.2839 -0.5156
18449TIP3   OH276837   2.555   4.076  10.937  0.0085 -0.3757  0.4145
18449TIP3    H176838   2.611   3.998  10.933  0.2836 -0.1683  0.1563
18449TIP3    H276839   2.605   4.143  10.891 -0.2917 -0.0850  0.5122
18450TIP3   OH276840   1.964   6.832  17.037  0.4473 -0.1970  0.3376
18450TIP3    H176841   1.903   6.824  17.110  0.8157  2.5670  1.0719
18450TIP3    H276842   1.908   6.853  16.962  0.2202 -1.3828  0.1527
18451TIP3   OH276843   4.857   0.255   2.852 -0.0042  0.6844 -0.0424
18451TIP3    H176844   4.836   0.196   2.780  1.3280  0.4043 -0.2290
18451TIP3    H276845   4.906   0.326   2.811  0.0905  0.9217  0.4791
18452TIP3   OH276846   3.263   0.896  16.385  0.3937  0.4302 -0.4353
18452TIP3    H176847   3.334   0.860  16.333  0.7196  0.4492 -0.0121
18452TIP3    H276848   3.306   0.951  16.451 -0.0121  0.4996 -0.2183
18453TIP3   OH276849   5.613   6.474   3.892 -0.2997  0.1167  0.1461
18453TIP3    H176850   5.560   6.441   3.965 -0.8323  0.9390  0.1544
18453TIP3    H276851   5.584   6.423   3.817 -0.9353  0.3762  0.2024
18454TIP3   OH276852   5.955   0.181  11.177 -0.5046  0.1452 -0.7446
18454TIP3    H176853   6.048   0.165  11.190 -0.3834  0.8142 -0.7444
18454TIP3    H276854   5.949   0.215  11.088 -0.9384 -1.3125 -1.3049
18455TIP3   OH276855   2.716   6.792  16.846  0.8581  0.1184 -0.1337
18455TIP3    H176856   2.691   6.775  16.756  0.1939  1.9610 -0.3572
18455TIP3    H276857   2.709   6.708  16.890 -0.1005 -0.5504 -1.5111
18456TIP3   OH276858   3.334   4.364  15.905  0.4619 -0.2330  0.2411
18456TIP3    H176859   3.353   4.452  15.873 -1.8175  0.3655  0.4167
18456TIP3    H276860   3.372   4.362  15.993  0.4207  0.6062  0.2868
18457TIP3   OH276861   1.089   3.572   3.763 -0.8245  0.2037  0.3807
18457TIP3    H176862   0.997   3.549   3.754 -0.8826  0.6014 -0.1476
18457TIP3    H276863   1.136   3.492   3.738 -1.0117 -0.5006  2.1688
18458TIP3   OH276864   6.097   4.218   3.345 -0.0926 -0.2814  0.6278
18458TIP3    H176865   6.059   4.169   3.418  1.4126 -1.4337  0.6871
18458TIP3    H276866   6.082   4.163   3.268  1.7900 -1.0083  0.7254
18459TIP3   OH276867   4.092   4.577  13.948 -0.2765  0.2432  0.4095
18459TIP3    H176868   4.091   4.656  14.002 -3.9184  0.4215  0.2942
18459TIP3    H276869   4.000   4.555  13.935  0.5312 -2.2107 -2.2555
18460TIP3   OH276870   4.534   4.053   0.526 -0.3523  0.1181  0.1136
18460TIP3    H176871   4.544   4.147   0.536 -0.0112  0.5603 -3.1584
18460TIP3    H276872   4.584   4.015   0.599  1.1033  2.4591  0.4349
18461TIP3   OH276873   2.189   3.454   1.224 -0.3595 -0.2953 -0.1440
18461TIP3    H176874   2.238   3.385   1.268 -0.1538  0.3295  0.6181
18461TIP3    H276875   2.242   3.532   1.235  0.0578 -0.2465 -2.1266
18462TIP3   OH276876   6.627   5.737   2.554  0.0533  0.1828 -0.3566
18462TIP3    H176877   6.629   5.707   2.463 -1.0387  0.5732 -0.5227
18462TIP3    H276878   6.534   5.742   2.575  0.3001  0.1313  0.7745
18463TIP3   OH276879   6.020   0.776   0.978  0.6799 -0.2426  0.0292
18463TIP3    H176880   6.098   0.720   0.978  1.5997  0.8256  3.0667
18463TIP3    H276881   5.969   0.746   1.053 -0.5963  0.7084 -0.4209
18464TIP3   OH276882   0.785   3.156   3.941 -0.1960 -0.2554  0.0659
18464TIP3    H176883   0.818   3.099   4.011 -1.6175 -0.9700  0.1920
18464TIP3    H276884   0.690   3.151   3.948 -0.3828 -0.1417 -1.7496
18465TIP3   OH276885   1.841   1.129   5.204 -0.0177  0.4902  0.1128
18465TIP3    H176886   1.895   1.201   5.171  1.4662  0.2535  1.8423
18465TIP3    H276887   1.870   1.053   5.154  0.5763  0.5602  0.3340
18466TIP3   OH276888   0.794   3.178  10.946 -0.4999  0.3425  0.7720
18466TIP3    H176889   0.759   3.096  10.982 -0.2623  1.0692  2.8004
18466TIP3    H276890   0.864   3.151  10.887  0.0110 -0.9118  1.9116
18467TIP3   OH276891   5.777   6.393   1.618  0.5789 -0.0042  0.4695
18467TIP3    H176892   5.857   6.341   1.629  1.3848  1.0712 -0.1247
18467TIP3    H276893   5.789   6.468   1.676  0.1638  0.3530  0.0973
18468TIP3   OH276894   4.818   4.295   6.097  0.1266 -0.0000 -0.2964
18468TIP3    H176895   4.743   4.341   6.061 -1.6367 -2.1176  0.4504
18468TIP3    H276896   4.825   4.326   6.188  1.5253  1.7149 -0.9276
18469TIP3   OH276897   0.713   6.635   1.285  0.1824 -0.1791 -0.7579
18469TIP3    H176898   0.621   6.630   1.258  0.5650 -0.9788 -2.0412
18469TIP3    H276899   0.710   6.641   1.380 -1.2047  0.2684 -0.8070
18470TIP3   OH276900   5.691   1.531   1.399 -0.0483  0.7004 -1.0931
18470TIP3    H176901   5.737   1.513   1.317 -1.0219  0.4407 -1.5931
18470TIP3    H276902   5.603   1.554   1.372 -1.6858 -3.3489 -0.0340
18471TIP3   OH276903   3.773   4.099  13.634 -0.4907  0.2812  0.0536
18471TIP3    H176904   3.708   4.052  13.686 -3.0682  2.1705 -1.2431
18471TIP3    H276905   3.750   4.079  13.543  2.4878 -1.1325 -0.4960
18472TIP3   OH276906   6.715   6.470   2.778  0.0968  0.5153  0.6765
18472TIP3    H176907   6.749   6.389   2.740 -0.8674 -0.0502  0.9896
18472TIP3    H276908   6.762   6.478   2.861 -0.4104 -0.1897  1.0452
18473TIP3   OH276909   0.112   6.836   1.845 -0.5765  0.3866 -0.0042
18473TIP3    H176910   0.198   6.854   1.882 -0.2319 -1.2613  0.0802
18473TIP3    H276911   0.129   6.812   1.754 -1.0884  1.2445 -0.3404
18474TIP3   OH276912   5.765   6.584  17.013  0.2719 -0.0551  0.0290
18474TIP3    H176913   5.771   6.522  17.086 -2.4280  0.3864  0.7172
18474TIP3    H276914   5.834   6.556  16.952  0.4744 -2.4481  1.2386
18475TIP3   OH276915   1.262   2.321  12.548 -0.2417 -0.0965  0.2991
18475TIP3    H176916   1.171   2.346  12.530 -0.1880 -0.6841 -0.9032
18475TIP3    H276917   1.271   2.233  12.512  0.7830 -0.0860  0.4833
18476TIP3   OH276918   4.498   4.922   2.129  0.0199 -0.0343 -0.4743
18476TIP3    H176919   4.404   4.904   2.139  0.2763 -1.1743 -0.0092
18476TIP3    H276920   4.509   5.011   2.163 -0.6130 -0.5346  1.1443
18477TIP3   OH276921   2.263   3.576   1.999 -0.2064  0.2310 -0.0400
18477TIP3    H176922   2.288   3.664   1.969 -1.8425  0.3097 -1.2813
18477TIP3    H276923   2.344   3.540   2.035  0.8140  1.7710 -0.6644
18478TIP3   OH276924   5.360   3.961  10.345  0.3415  0.3151  0.0927
18478TIP3    H176925   5.281   4.013  10.334 -0.3573 -0.5715  0.7684
18478TIP3    H276926   5.360   3.900  10.271  1.6188  1.7840 -1.1973
18479TIP3   OH276927   1.448   1.903  13.164 -0.0701 -0.1161  0.3926
18479TIP3    H176928   1.473   1.924  13.074 -0.4241 -0.5805  0.1859
18479TIP3    H276929   1.373   1.845  13.156 -0.1849 -0.0608  0.9925
18480TIP3   OH276930   6.477   6.512   3.372 -0.6114  0.5704  0.0471
18480TIP3    H176931   6.392   6.515   3.416 -0.4324 -0.9340  0.5306
18480TIP3    H276932   6.490   6.420   3.350  0.3715  0.9532 -1.0718
18481TIP3   OH276933   3.067   0.458  14.024 -0.1590  0.4954 -0.2218
18481TIP3    H176934   3.019   0.388  14.067  0.3893  0.1117 -0.2323
18481TIP3    H276935   3.011   0.482  13.949 -0.7500  0.6564  0.2583
18482TIP3   OH276936   6.376   2.804   5.504  0.2030 -0.0435 -0.1272
18482TIP3    H176937   6.414   2.717   5.492  0.8335  0.3305 -0.8967
18482TIP3    H276938   6.308   2.791   5.570  0.1755 -1.1527 -0.3493
18483TIP3   OH276939   1.459   1.716  11.856 -0.0275 -0.1964  0.8447
18483TIP3    H176940   1.397   1.657  11.900  0.0226  1.1805  2.8559
18483TIP3    H276941   1.510   1.755  11.927  0.5019  1.6442 -0.4900
18484TIP3   OH276942   0.055   5.548   3.691  0.4524  0.2552  0.0488
18484TIP3    H176943  -0.030   5.522   3.656  0.0612  1.9333 -0.3418
18484TIP3    H276944   0.057   5.513   3.780 -0.4192 -0.2528 -0.1259
18485TIP3   OH276945   4.730   5.052  12.541  0.1030 -0.7134 -0.4522
18485TIP3    H176946   4.702   5.144  12.541  2.1050  0.0312  2.8496
18485TIP3    H276947   4.797   5.048  12.473 -1.1936 -0.2513 -1.8406
18486TIP3   OH276948   4.275   6.596  12.558  0.0109  0.1803 -0.1961
18486TIP3    H176949   4.340   6.658  12.525  0.4830 -0.4236 -0.4324
18486TIP3    H276950   4.210   6.590  12.487 -0.3488  0.8369  0.0688
18487TIP3   OH276951   5.579   2.716  11.187  0.0002  0.3320  0.4524
18487TIP3    H176952   5.506   2.657  11.209  1.3409 -1.0232  1.4881
18487TIP3    H276953   5.654   2.657  11.177  0.4975  1.3671 -3.2399
18488TIP3   OH276954   0.155   5.782  14.056  0.3160 -0.0877 -0.1880
18488TIP3    H176955   0.177   5.751  13.968 -1.7704  0.9887 -1.1476
18488TIP3    H276956   0.062   5.802  14.052  0.2752  0.4683  2.1468
18489TIP3   OH276957   2.378   0.106   2.196  0.1518  0.4235 -0.3149
18489TIP3    H176958   2.396   0.036   2.258 -0.4786 -0.0340 -0.6375
18489TIP3    H276959   2.291   0.138   2.221  0.5189  1.2500 -0.0291
18490TIP3   OH276960   1.988   0.772   1.584 -0.3574 -0.0191 -0.8664
18490TIP3    H176961   1.980   0.716   1.506 -1.0743  1.3396 -1.7940
18490TIP3    H276962   2.079   0.801   1.583 -0.1742 -0.5651 -0.7823
18491TIP3   OH276963   5.858   4.125  12.675  0.1410 -0.1067 -0.1411
18491TIP3    H176964   5.792   4.158  12.613 -0.1910  1.2343  0.8765
18491TIP3    H276965   5.932   4.100  12.620  0.0985  1.6454 -1.0592
18492TIP3   OH276966   5.378   5.863  13.818  0.0979 -0.3771 -0.1424
18492TIP3    H176967   5.323   5.822  13.885  0.2918 -1.6326 -0.7216
18492TIP3    H276968   5.316   5.898  13.754 -0.0593 -0.8956 -0.2793
18493TIP3   OH276969   0.827   6.004  15.116 -0.4271  0.2563  0.2808
18493TIP3    H176970   0.746   5.974  15.075 -0.6764  2.7356 -1.2439
18493TIP3    H276971   0.890   6.009  15.044  1.2092 -1.8299  1.4736
18494TIP3   OH276972   3.727   0.578  12.376 -0.0535  0.7207 -0.3052
18494TIP3    H176973   3.632   0.569  12.373 -0.1384  1.6293 -0.9148
18494TIP3    H276974   3.759   0.492  12.401 -1.0609  0.5254  0.3734
18495TIP3   OH276975   1.144   5.319   6.466  0.4451 -0.0561  0.5013
18495TIP3    H176976   1.068   5.332   6.410  1.5963  0.2415 -1.0642
18495TIP3    H276977   1.183   5.237   6.435  0.4142 -0.5718  1.7370
18496TIP3   OH276978   3.958   0.752  15.615  0.0810 -0.7497  0.3399
18496TIP3    H176979   3.896   0.680  15.603  1.2120 -1.5574 -0.9509
18496TIP3    H276980   3.969   0.790  15.528 -0.4376  0.9885  0.9805
18497TIP3   OH276981   1.630   0.530  15.544  0.1869  0.2276  0.2359
18497TIP3    H176982   1.572   0.561  15.474  1.0327 -2.9127 -2.0941
18497TIP3    H276983   1.712   0.576  15.529 -0.0477  0.5915  0.0453
18498TIP3   OH276984   0.604   6.361  15.235 -0.5720  0.2399  0.7274
18498TIP3    H176985   0.565   6.293  15.289 -0.8101 -0.5994 -0.4529
18498TIP3    H276986   0.672   6.401  15.290 -1.0814 -0.3072  1.7582
18499TIP3   OH276987   0.505   1.619  14.373  0.3004  0.2491 -0.6973
18499TIP3    H176988   0.571   1.552  14.359  2.0530  1.4428  1.2072
18499TIP3    H276989   0.524   1.686  14.307  1.2471  0.7407  0.0564
18500TIP3   OH276990   6.349   6.443  11.658  0.3542 -0.4095  0.3406
18500TIP3    H176991   6.258   6.412  11.657  0.6013 -1.4841  3.0170
18500TIP3    H276992   6.381   6.419  11.744  2.3963  2.3448  0.4709
18501TIP3   OH276993   6.140   3.296  16.537  0.5327 -0.5641 -0.3690
18501TIP3    H176994   6.174   3.323  16.451 -1.1063  1.2762 -0.5127
18501TIP3    H276995   6.089   3.217  16.518  0.4070 -0.3308 -1.0691
18502TIP3   OH276996   3.685   4.692  15.076 -0.0976  0.1177  0.0233
18502TIP3    H176997   3.711   4.782  15.096 -1.8957  0.5989  0.4601
18502TIP3    H276998   3.709   4.642  15.154 -1.3861  0.7517  0.8576
18503TIP3   OH276999   1.857   5.813  13.128 -0.0427  0.4020 -0.2290
18503TIP3    H177000   1.784   5.762  13.093 -1.4139  1.4145  1.0376
18503TIP3    H277001   1.891   5.760  13.200 -0.8432  0.8187  0.4683
18504TIP3   OH277002   0.438   3.681  13.441  0.0315  0.0822  0.4322
18504TIP3    H177003   0.440   3.748  13.372 -0.3715 -0.6514 -0.3170
18504TIP3    H277004   0.370   3.711  13.501  0.4921  0.8110  0.6012
18505TIP3   OH277005   2.873   0.650   5.397 -0.3712 -0.2971  0.5392
18505TIP3    H177006   2.895   0.661   5.490  0.5183  2.7719  0.0875
18505TIP3    H277007   2.808   0.719   5.380 -1.7727 -1.8779 -0.7819
18506TIP3   OH277008   2.285   5.037   0.148 -0.4917 -0.1539  0.5739
18506TIP3    H177009   2.190   5.048   0.145 -0.7747 -2.1582  0.6351
18506TIP3    H277010   2.305   4.981   0.073  0.4755 -0.7030  1.2214
18507TIP3   OH277011   4.714   5.627  16.790 -0.3758 -0.1851 -0.0924
18507TIP3    H177012   4.696   5.712  16.831 -2.7134 -1.0743  0.8836
18507TIP3    H277013   4.740   5.570  16.863 -0.4330 -0.7170 -0.4772
18508TIP3   OH277014   4.580   3.274   1.992  0.7116 -0.3000 -0.1750
18508TIP3    H177015   4.497   3.237   1.962 -0.0999 -0.7530  2.3253
18508TIP3    H277016   4.646   3.212   1.961 -0.0462 -0.7853 -0.8670
18509TIP3   OH277017   1.480   5.049  16.111 -0.0567 -0.5691  0.5230
18509TIP3    H177018   1.506   4.965  16.148 -0.4400 -0.6765  0.5602
18509TIP3    H277019   1.559   5.102  16.112  0.2384 -1.0025  0.2973
18510TIP3   OH277020   1.030   3.578  15.332  0.1474 -0.3367  0.3629
18510TIP3    H177021   1.055   3.555  15.243 -0.2005 -0.0038  0.1789
18510TIP3    H277022   0.936   3.557  15.337  0.3102 -0.9996  0.8625
18511TIP3   OH277023   0.250   0.368  12.635 -0.1971  0.0868 -0.1379
18511TIP3    H177024   0.337   0.398  12.660  0.2804 -1.7597  0.5637
18511TIP3    H277025   0.219   0.433  12.573  1.1517  1.4701  0.5798
18512TIP3   OH277026   0.312   4.997   6.037  1.1124  0.4178 -0.0904
18512TIP3    H177027   0.362   4.989   6.118 -0.0008  0.7766  0.6594
18512TIP3    H277028   0.284   4.908   6.018 -0.0381  0.5436  0.8781
18513TIP3   OH277029   5.563   5.802  16.408 -0.3534  0.5070  0.5411
18513TIP3    H177030   5.510   5.752  16.346  1.1625 -0.6896  0.1296
18513TIP3    H277031   5.605   5.735  16.462 -1.5196  1.5163  2.8036
18514TIP3   OH277032   2.948   5.477  15.988  0.1331  0.0977  0.0953
18514TIP3    H177033   2.993   5.539  16.045 -0.5599  1.0222 -0.3399
18514TIP3    H277034   2.893   5.531  15.931  0.2203 -0.8523 -0.9306
18515TIP3   OH277035   2.434   2.685  15.609 -0.1938  0.1851 -0.0425
18515TIP3    H177036   2.441   2.620  15.540 -0.7159  0.0019  0.0789
18515TIP3    H277037   2.343   2.683  15.636  0.0534  0.0757  0.8234
18516TIP3   OH277038   1.467   3.393   1.949  0.0430  0.3318  0.4815
18516TIP3    H177039   1.464   3.475   1.998  1.6533  0.5438  0.2913
18516TIP3    H277040   1.487   3.420   1.859 -1.6198 -0.1425 -0.0731
18517TIP3   OH277041   2.790   6.720   0.913 -0.1758  0.1331 -0.0845
18517TIP3    H177042   2.827   6.639   0.948 -2.5612 -0.7773  0.5401
18517TIP3    H277043   2.806   6.716   0.819  1.4829 -0.0353  0.1622
18518TIP3   OH277044   0.668   3.465   2.676 -0.4215  0.5582 -0.4862
18518TIP3    H177045   0.574   3.448   2.665 -0.3413 -0.8242  0.6705
18518TIP3    H277046   0.692   3.418   2.756  1.5124 -0.1129 -1.3886
18519TIP3   OH277047   0.306   2.514   0.036 -0.2879 -0.1787 -0.3025
18519TIP3    H177048   0.317   2.549   0.124  1.3183 -0.9107 -0.1692
18519TIP3    H277049   0.260   2.583  -0.012 -0.7646  0.4216  0.9701
18520TIP3   OH277050   4.494   4.260   5.831  0.0822 -0.2836  0.5846
18520TIP3    H177051   4.556   4.332   5.843 -0.5918  0.4695 -0.3017
18520TIP3    H277052   4.458   4.275   5.743 -0.2687 -1.5503  0.5004
18521TIP3   OH277053   3.746   4.618  12.770  0.3886 -0.6258 -0.0529
18521TIP3    H177054   3.658   4.620  12.807  0.8705  1.1314  1.1536
18521TIP3    H277055   3.732   4.600  12.677 -1.2931  0.0814  0.0140
18522TIP3   OH277056   4.510   2.439  15.153 -0.1095 -0.4236 -0.6321
18522TIP3    H177057   4.533   2.527  15.124 -0.4722 -0.7535 -2.0175
18522TIP3    H277058   4.456   2.452  15.230 -1.4720  0.6601 -1.7047
18523TIP3   OH277059   4.353   5.402  15.834 -0.4253 -0.1095 -0.2481
18523TIP3    H177060   4.397   5.439  15.911 -1.0659 -1.6951  0.9420
18523TIP3    H277061   4.381   5.458  15.761 -1.7876  3.0518  1.4382
18524TIP3   OH277062   0.798   2.946  13.760  0.0615 -0.5555  0.1017
18524TIP3    H177063   0.829   2.899  13.837 -3.5517 -0.6333  1.7020
18524TIP3    H277064   0.745   2.881  13.713 -0.4761  0.4090 -0.6467
18525TIP3   OH277065   3.717   5.471  13.589  0.4299 -0.2208  0.5007
18525TIP3    H177066   3.792   5.478  13.530  0.6437 -0.0910  0.7844
18525TIP3    H277067   3.673   5.555  13.583 -0.2297 -0.6127 -0.3677
18526TIP3   OH277068   1.783   5.302  10.964  0.2645  0.0141  0.2562
18526TIP3    H177069   1.790   5.286  11.058  0.6601  0.0558  0.2339
18526TIP3    H277070   1.873   5.315  10.934  0.0878  0.6851 -0.0095
18527TIP3   OH277071   4.210   1.044   0.550  0.1481  0.1212 -0.7087
18527TIP3    H177072   4.260   0.968   0.580 -0.7841  0.4135  1.7973
18527TIP3    H277073   4.153   1.010   0.482  0.7705 -1.0912 -0.6544
18528TIP3   OH277074   5.807   0.848  12.928 -0.3411 -0.2327 -0.0591
18528TIP3    H177075   5.744   0.868  12.997 -0.3189 -2.4982  0.6729
18528TIP3    H277076   5.769   0.888  12.849 -1.5124  0.4221  0.7985
18529TIP3   OH277077   6.287   2.298  16.779 -0.0262  0.3133 -0.3497
18529TIP3    H177078   6.325   2.239  16.844  1.6157 -2.0205 -3.1810
18529TIP3    H277079   6.355   2.308  16.713 -2.3015  0.7773 -2.7924
18530TIP3   OH277080   3.376   3.588   3.843 -0.4277 -0.5027  0.1448
18530TIP3    H177081   3.365   3.637   3.925 -2.4222 -0.0072 -0.3472
18530TIP3    H277082   3.329   3.506   3.858  1.8703 -1.8204  0.5369
18531TIP3   OH277083   4.138   5.998  12.480 -0.5628  0.3482 -0.2417
18531TIP3    H177084   4.133   5.925  12.542 -0.0208  0.4304 -0.1010
18531TIP3    H277085   4.112   6.074  12.530 -0.3445  0.3782 -0.1724
18532TIP3   OH277086   5.648   5.405  13.886 -0.6431 -0.6671  0.2035
18532TIP3    H177087   5.578   5.465  13.860 -0.2813 -0.9986 -1.6330
18532TIP3    H277088   5.617   5.319  13.859  0.1353 -0.9196  0.0924
18533TIP3   OH277089   1.714   0.075  16.380  0.1516  0.0328 -0.3995
18533TIP3    H177090   1.664   0.008  16.332 -2.7237 -0.5131  2.9312
18533TIP3    H277091   1.804   0.042  16.380 -0.4645 -1.8852 -2.0237
18534TIP3   OH277092   1.339   6.179  13.178 -0.0606  0.0643  0.0731
18534TIP3    H177093   1.318   6.232  13.255 -1.9011 -1.0261  0.3937
18534TIP3    H277094   1.429   6.150  13.192  0.3574  1.5976  0.7667
18535TIP3   OH277095   3.690   2.233   5.286  0.3089 -0.1921 -0.4922
18535TIP3    H177096   3.743   2.312   5.273  1.1740 -0.8864 -1.3813
18535TIP3    H277097   3.743   2.178   5.345 -2.1338  1.5491  3.7766
18536TIP3   OH277098   6.169   4.919   5.031  0.4361 -0.7527  0.5481
18536TIP3    H177099   6.200   4.846   4.977 -0.3810 -1.0230  0.4280
18536TIP3    H277100   6.245   4.943   5.085  1.4340 -0.1566 -1.0371
18537TIP3   OH277101   0.926   4.678   4.956  0.3415 -0.1438  0.5140
18537TIP3    H177102   1.012   4.668   4.996  1.6095 -0.1174 -1.9896
18537TIP3    H277103   0.909   4.594   4.913 -0.1648  0.3648 -0.3112
18538TIP3   OH277104   5.603   4.128   1.760  0.5851  0.3937 -0.5630
18538TIP3    H177105   5.553   4.159   1.836  0.4568 -0.3037 -0.3528
18538TIP3    H277106   5.537   4.118   1.691  0.4676 -0.2562 -0.3674
18539TIP3   OH277107   2.772   5.062   3.773 -0.2387 -0.5245 -0.0302
18539TIP3    H177108   2.681   5.080   3.797 -0.5186 -2.5107  0.5867
18539TIP3    H277109   2.799   4.992   3.832  2.2459  1.0765  0.8810
18540TIP3   OH277110   2.001   6.061  15.459  0.0136  0.0216 -0.1735
18540TIP3    H177111   1.959   5.998  15.401  0.8308 -0.7677  0.0695
18540TIP3    H277112   1.932   6.123  15.481 -0.3555  0.2883 -1.8965
18541TIP3   OH277113   5.356   3.472  12.136 -0.2121  0.0501  0.7173
18541TIP3    H177114   5.411   3.540  12.097 -0.9412  0.6968  0.7933
18541TIP3    H277115   5.417   3.418  12.187  0.3785  0.6409  0.6488
18542TIP3   OH277116   0.822   1.138   1.681  1.0914 -0.6084  0.3006
18542TIP3    H177117   0.852   1.213   1.631 -1.2446  0.9195  0.9878
18542TIP3    H277118   0.775   1.084   1.618 -1.1892  0.9321  0.5250
18543TIP3   OH277119   6.425   2.709  16.518 -0.6541  0.5246  0.0478
18543TIP3    H177120   6.417   2.729  16.611  1.4317 -0.6381  0.5279
18543TIP3    H277121   6.468   2.786  16.480 -0.7926  0.6716  0.1908
18544TIP3   OH277122   1.823   1.858  15.158 -0.0077 -0.2770  0.0021
18544TIP3    H177123   1.765   1.892  15.090 -0.5232  0.5796  0.8544
18544TIP3    H277124   1.905   1.905  15.146 -0.0757 -0.1772 -0.0662
18545TIP3   OH277125   5.542   6.751   0.875 -0.3511  0.1569  0.4306
18545TIP3    H177126   5.477   6.726   0.941 -0.9701 -0.6023 -0.4424
18545TIP3    H277127   5.624   6.758   0.924 -0.8283 -0.2317  1.3127
18546TIP3   OH277128   3.545   0.371   1.729 -0.5155  0.6904 -0.3993
18546TIP3    H177129   3.483   0.392   1.660 -0.0488 -2.6242 -2.0232
18546TIP3    H277130   3.622   0.425   1.710 -0.8182  0.6433 -1.8033
18547TIP3   OH277131   2.933   2.346   5.298 -0.3285 -0.3481  0.6854
18547TIP3    H177132   2.897   2.422   5.345 -0.4012 -0.4039  0.7203
18547TIP3    H277133   2.872   2.275   5.318 -0.1208 -0.4796  0.8584
18548TIP3   OH277134   5.723   6.738  11.133 -0.3387  0.0083 -0.2191
18548TIP3    H177135   5.812   6.766  11.155  1.0692 -2.7846 -1.7829
18548TIP3    H277136   5.730   6.643  11.123 -2.6164  0.0552 -4.1572
18549TIP3   OH277137   0.988   2.600  13.950  0.4027 -0.2790  0.0597
18549TIP3    H177138   0.898   2.630  13.952 -0.2215 -1.7196 -2.3048
18549TIP3    H277139   1.037   2.674  13.913  0.0166  0.1061  0.3101
18550TIP3   OH277140   4.218   6.753  14.668  0.6184  0.1202  0.6178
18550TIP3    H177141   4.289   6.689  14.675 -0.5666 -1.1781  1.4614
18550TIP3    H277142   4.211   6.772  14.575  0.4902 -1.5941  0.2568
18551TIP3   OH277143   0.961   2.280   1.104  0.2245 -0.0386 -0.7176
18551TIP3    H177144   1.003   2.350   1.153  2.3622 -0.6795 -1.4903
18551TIP3    H277145   0.868   2.299   1.108  0.3587  0.4268  2.7816
18552TIP3   OH277146   0.697   4.037   3.074  0.1188  0.0467  0.0043
18552TIP3    H177147   0.613   4.082   3.085  0.9021  1.5896 -0.0424
18552TIP3    H277148   0.705   3.981   3.151 -0.7949  0.1419  0.1790
18553TIP3   OH277149   1.914   4.480  15.794 -0.3800 -0.0264 -0.3300
18553TIP3    H177150   1.963   4.549  15.749 -0.9501  0.2584 -0.5265
18553TIP3    H277151   1.939   4.400  15.748  2.6628 -0.4566  1.8183
18554TIP3   OH277152   5.141   0.543  14.394 -0.5633  0.0090  0.6475
18554TIP3    H177153   5.075   0.474  14.401 -3.7070  2.3018 -2.5203
18554TIP3    H277154   5.103   0.617  14.440  0.0551  1.2278 -0.7490
18555TIP3   OH277155   4.591   1.721  14.684  0.4128  0.0875  0.1939
18555TIP3    H177156   4.651   1.731  14.758  0.5715 -0.1989  0.1051
18555TIP3    H277157   4.604   1.631  14.654 -0.2517 -0.0692  0.3415
18556TIP3   OH277158   4.852   3.151  13.195 -0.0808 -0.0799  0.4225
18556TIP3    H177159   4.926   3.160  13.254 -0.4227  1.5703  0.6532
18556TIP3    H277160   4.801   3.078  13.231  1.5268 -1.3889  0.1113
18557TIP3   OH277161   2.815   4.412  15.036 -0.6869 -0.0946 -0.7923
18557TIP3    H177162   2.759   4.438  15.110 -0.0200 -1.3424  0.1943
18557TIP3    H277163   2.769   4.444  14.959 -0.8766  2.2333  0.1949
18558TIP3   OH277164   3.183   3.688  14.838 -0.9644  0.1450  0.3593
18558TIP3    H177165   3.206   3.780  14.851  1.0478 -0.2825  0.1202
18558TIP3    H277166   3.164   3.655  14.926 -2.8451  1.0108  0.3374
18559TIP3   OH277167   1.179   1.443   0.031 -0.0961 -0.1029 -0.6569
18559TIP3    H177168   1.250   1.499  -0.001 -0.0538  1.1364  1.3855
18559TIP3    H277169   1.217   1.356   0.035  1.8140  0.7159  1.5129
18560TIP3   OH277170   3.993   0.627   3.843  0.2003 -0.3826 -0.0211
18560TIP3    H177171   4.002   0.556   3.779  1.6712 -0.4208  0.1765
18560TIP3    H277172   3.899   0.645   3.847  0.0971 -0.0456 -2.5427
18561TIP3   OH277173   0.814   0.843  12.037  0.2990 -0.3993 -0.1367
18561TIP3    H177174   0.752   0.807  12.100  2.0683 -0.1550  1.8536
18561TIP3    H277175   0.767   0.915  11.996 -0.7286 -0.1773  1.3362
18562TIP3   OH277176   6.386   4.035  15.253 -0.2030 -0.6184  0.6147
18562TIP3    H177177   6.298   4.063  15.278  0.4080  1.5118  0.5653
18562TIP3    H277178   6.385   4.038  15.157  0.2184  0.5380  0.6263
18563TIP3   OH277179   3.780   6.655   4.358  0.6618 -0.0135  0.2672
18563TIP3    H177180   3.836   6.583   4.388  0.2245 -0.6017 -0.3087
18563TIP3    H277181   3.841   6.719   4.323  1.0902  0.1125  1.1957
18564TIP3   OH277182   1.556   0.162   0.626  0.5488  0.2875  0.5205
18564TIP3    H177183   1.637   0.125   0.662  0.4801  0.3517  0.7412
18564TIP3    H277184   1.525   0.222   0.694  1.6245  2.1572 -0.5343
18565TIP3   OH277185   0.694   1.766  11.343 -0.0579 -0.8961 -0.2178
18565TIP3    H177186   0.690   1.789  11.250  0.6331  0.3791  0.0442
18565TIP3    H277187   0.783   1.789  11.369 -1.2100  2.1675  1.5625
18566TIP3   OH277188   2.189   0.961   4.647 -0.2855 -0.0654  0.3090
18566TIP3    H177189   2.215   0.968   4.555  0.0966 -0.3118  0.3982
18566TIP3    H277190   2.251   1.017   4.694 -1.9959  2.1044  0.1607
18567TIP3   OH277191   3.766   0.227   1.332  0.4804  0.0808 -0.4219
18567TIP3    H177192   3.759   0.323   1.331 -0.3185  0.0399 -2.3911
18567TIP3    H277193   3.683   0.197   1.296 -0.1589 -1.4739  2.1469
18568TIP3   OH277194   2.972   1.994   3.979 -0.1205  0.0947 -0.0767
18568TIP3    H177195   2.954   1.905   3.948 -2.7126  0.9389 -1.2464
18568TIP3    H277196   3.058   1.988   4.021  0.0840 -2.7916 -0.7299
18569TIP3   OH277197   6.655   3.323  14.818 -0.0714  0.1157  0.5583
18569TIP3    H177198   6.662   3.233  14.851  0.8768 -0.7837 -1.8077
18569TIP3    H277199   6.744   3.357  14.824 -0.2759  0.6198  0.7268
18570TIP3   OH277200   1.457   3.237  15.096 -0.1981 -0.1280 -1.2235
18570TIP3    H177201   1.373   3.239  15.141 -1.0466  0.6242 -2.7980
18570TIP3    H277202   1.522   3.238  15.167 -1.4782  1.0266 -0.0125
18571TIP3   OH277203   0.437   4.868   0.418 -0.0946 -0.3126 -0.8324
18571TIP3    H177204   0.470   4.786   0.453 -0.7500 -0.0183  0.5488
18571TIP3    H277205   0.470   4.872   0.328  0.0489 -2.0040 -0.8687
18572TIP3   OH277206   1.834   6.799  15.246  0.7373 -0.4177  0.6202
18572TIP3    H177207   1.770   6.737  15.210  1.4654 -1.5012  1.1288
18572TIP3    H277208   1.889   6.746  15.304  0.4463  1.0019  2.2884
18573TIP3   OH277209   2.945   2.472   5.034  0.5319  0.4868  0.3667
18573TIP3    H177210   2.949   2.416   5.112  0.1946 -2.0091 -1.3086
18573TIP3    H277211   2.852   2.483   5.016  0.6166  0.4956 -0.0773
18574TIP3   OH277212   2.546   1.879   2.122  0.0853 -0.4332 -0.1397
18574TIP3    H177213   2.584   1.802   2.165 -0.8102 -0.2699  0.9650
18574TIP3    H277214   2.559   1.951   2.183 -0.4587 -0.0244 -0.4904
18575TIP3   OH277215   2.126   2.227   3.866 -0.4949 -0.5339  0.1674
18575TIP3    H177216   2.137   2.254   3.775  4.8251  0.0680  0.6572
18575TIP3    H277217   2.161   2.138   3.869 -1.5529 -0.9386  1.5036
18576TIP3   OH277218   2.299   4.723   3.516  0.2695 -0.3274  0.0264
18576TIP3    H177219   2.211   4.686   3.507 -0.4088  0.8636  1.3524
18576TIP3    H277220   2.301   4.756   3.606  2.5479 -1.5100  0.4674
18577TIP3   OH277221   2.821   4.754   3.745  0.1786  0.0330  0.3968
18577TIP3    H177222   2.910   4.748   3.712 -0.0189 -0.9078  0.0064
18577TIP3    H277223   2.766   4.727   3.671 -0.4579  0.8940  0.5284
18578TIP3   OH277224   2.132   4.740   5.694  0.1850 -0.0365 -0.0200
18578TIP3    H177225   2.041   4.765   5.678  0.1549  0.2436  0.5696
18578TIP3    H277226   2.127   4.649   5.723 -0.2248  0.7786  2.8405
18579TIP3   OH277227   2.822   1.317  11.294 -0.2500 -0.3293 -0.1776
18579TIP3    H177228   2.805   1.224  11.275  0.5292 -0.5010 -0.0729
18579TIP3    H277229   2.891   1.341  11.231  0.8587 -0.3289  1.0006
18580TIP3   OH277230   2.448   4.463   1.801  0.4610  0.1284 -0.0948
18580TIP3    H177231   2.484   4.434   1.885  2.2178  2.7656  0.1743
18580TIP3    H277232   2.374   4.519   1.825  1.2842  1.3157 -0.1946
18581TIP3   OH277233   3.012   2.296  13.712 -0.6452  0.0055 -0.3254
18581TIP3    H177234   3.087   2.317  13.656 -1.0546  1.4627 -0.3557
18581TIP3    H277235   2.950   2.253  13.654  0.8220 -2.9274  0.0616
18582TIP3   OH277236   0.728   5.399   3.596 -0.5282 -0.2978  0.2098
18582TIP3    H177237   0.700   5.452   3.671 -2.1949 -0.5463 -0.1841
18582TIP3    H277238   0.793   5.339   3.632  0.0938  0.8265  1.0327
18583TIP3   OH277239   4.546   0.108  14.907  0.1809  0.6663 -0.1703
18583TIP3    H177240   4.535   0.086  14.999 -0.4390  3.1761  0.4378
18583TIP3    H277241   4.466   0.154  14.883 -0.9243 -2.3078 -2.8373
18584TIP3   OH277242   2.195   3.785   0.618  0.3908  0.4221 -0.5704
18584TIP3    H177243   2.130   3.722   0.586 -0.6621 -1.1250  3.8671
18584TIP3    H277244   2.143   3.857   0.654  1.2378  0.4104  0.7305
18585TIP3   OH277245   3.789   6.716   6.126 -0.2018 -0.2156  0.1539
18585TIP3    H177246   3.870   6.719   6.075  1.6586  2.2795  2.8968
18585TIP3    H277247   3.719   6.717   6.061  1.9121 -2.0147 -2.3251
18586TIP3   OH277248   3.387   4.871   5.180 -0.4530 -0.0609  0.2914
18586TIP3    H177249   3.375   4.910   5.267 -1.6266 -1.8824  1.0233
18586TIP3    H277250   3.310   4.898   5.130  0.3136  1.1399 -0.2702
18587TIP3   OH277251   2.733   4.847  16.342 -0.3507  0.0934 -0.2629
18587TIP3    H177252   2.807   4.879  16.291 -1.8506  3.5587 -0.5595
18587TIP3    H277253   2.738   4.895  16.425 -2.3942  0.7313 -0.4523
18588TIP3   OH277254   1.352   4.817  16.567 -0.0383 -0.8105 -0.0814
18588TIP3    H177255   1.274   4.772  16.534 -0.2402 -2.2712  2.1345
18588TIP3    H277256   1.395   4.751  16.622  1.7076  0.5929  0.3066
18589TIP3   OH277257   2.924   0.322  12.827  0.7268 -0.4380  0.0717
18589TIP3    H177258   2.969   0.271  12.760  0.1926  0.6046 -1.1268
18589TIP3    H277259   2.831   0.302  12.814  0.4757  1.1332 -0.6994
18590TIP3   OH277260   6.229   5.613  15.657  0.1604  0.2007  0.0738
18590TIP3    H177261   6.268   5.628  15.743  0.1298  0.5466  0.0268
18590TIP3    H277262   6.262   5.527  15.630  0.8537  0.4683  0.0499
18591TIP3   OH277263   0.774   6.669  16.231  0.6669 -0.3376 -0.6100
18591TIP3    H177264   0.779   6.576  16.252  0.9497 -0.2019 -0.0648
18591TIP3    H277265   0.836   6.710  16.291  0.0970  0.2731 -0.4352
18592TIP3   OH277266   2.920   1.501   1.156  0.4534  0.4959  0.4725
18592TIP3    H177267   2.952   1.411   1.145  0.4362  0.7125 -1.6960
18592TIP3    H277268   2.833   1.491   1.194  0.8743 -0.3369  1.2717
18593TIP3   OH277269   6.482   1.236  16.753  0.2015  0.9815 -0.3674
18593TIP3    H177270   6.391   1.228  16.723  0.4238  0.4423 -0.9299
18593TIP3    H277271   6.530   1.175  16.697  0.4785 -0.8916  1.7717
18594TIP3   OH277272   0.033   6.360   0.202  0.2625 -0.6103  0.7945
18594TIP3    H177273   0.102   6.399   0.148  0.8717 -1.2837  1.0620
18594TIP3    H277274  -0.048   6.394   0.166  0.7638  0.7209  0.8843
18595TIP3   OH277275   0.711   1.048   0.197 -0.0374 -0.4194  0.5148
18595TIP3    H177276   0.728   1.140   0.219  0.0796 -0.2736 -0.1842
18595TIP3    H277277   0.763   1.032   0.118  1.0156 -1.4605  1.3703
18596TIP3   OH277278   5.421   5.470  14.889 -0.0746 -0.4372 -0.2797
18596TIP3    H177279   5.436   5.564  14.890 -0.7696 -0.3123  1.1247
18596TIP3    H277280   5.503   5.432  14.920 -0.1092 -0.2404  0.0478
18597TIP3   OH277281   6.055   1.769  10.670  0.3363  0.8286  0.2308
18597TIP3    H177282   6.091   1.851  10.636  1.5079 -0.5614 -2.1086
18597TIP3    H277283   6.005   1.733  10.597  0.6312 -1.0067  0.8874
18598TIP3   OH277284   0.317   2.401  13.161 -0.3285 -0.0383 -0.1130
18598TIP3    H177285   0.330   2.388  13.067  1.2440 -0.1501  0.0974
18598TIP3    H277286   0.239   2.350  13.181 -0.1462 -0.7900 -1.1932
18599TIP3   OH277287   1.812   4.298   1.697  0.1195  0.2516 -0.0226
18599TIP3    H177288   1.831   4.205   1.710  0.6006  0.2311 -0.8450
18599TIP3    H277289   1.734   4.299   1.643 -0.4048  0.3336  0.7274
18600TIP3   OH277290   1.984   2.138   5.329  0.0758  0.4841  0.2079
18600TIP3    H177291   1.948   2.139   5.241  1.8145 -1.2855 -0.6274
18600TIP3    H277292   1.923   2.083   5.379 -0.1463  0.2534 -0.3028
18601TIP3   OH277293   5.500   5.309   2.883 -0.0144  0.1433  0.4170
18601TIP3    H177294   5.492   5.393   2.928 -0.2356  0.4274 -0.1491
18601TIP3    H277295   5.531   5.249   2.951  1.4244  0.9527  0.5212
18602TIP3   OH277296   1.402   1.899   5.704 -0.2342  0.3865  0.3173
18602TIP3    H177297   1.386   1.817   5.753  0.0248 -0.4042 -0.8910
18602TIP3    H277298   1.342   1.962   5.744 -1.2579 -0.6894  0.5454
18603TIP3   OH277299   2.448   0.126   5.731  0.4381  0.2110  0.2967
18603TIP3    H177300   2.519   0.062   5.724  0.8044  0.6010  0.3974
18603TIP3    H277301   2.492   0.210   5.735 -0.0755  0.7632 -2.7966
18604TIP3   OH277302   0.912   0.841  11.405  0.3653  0.5863  0.0020
18604TIP3    H177303   0.838   0.797  11.446  1.2037  0.9040  1.9976
18604TIP3    H277304   0.923   0.797  11.321 -1.4368 -0.1364  0.1123
18605TIP3   OH277305   4.274   4.864   0.767  0.1772  0.8321  0.4267
18605TIP3    H177306   4.219   4.939   0.743 -1.3234  0.3381  2.1455
18605TIP3    H277307   4.265   4.803   0.694 -2.4578  0.3138  1.0964
18606TIP3   OH277308   6.774   5.465  14.749 -0.7383  0.3916  0.0788
18606TIP3    H177309   6.860   5.497  14.775 -0.5223  0.8943 -1.1791
18606TIP3    H277310   6.728   5.542  14.716 -0.8773 -0.2367 -1.2649
18607TIP3   OH277311   5.042   5.000  12.550 -0.0624  0.4773 -1.0285
18607TIP3    H177312   4.968   4.957  12.507 -0.1098 -0.1091 -0.3844
18607TIP3    H277313   5.082   4.931  12.602 -0.4861  1.3274  0.5058
18608TIP3   OH277314   2.119   6.034  12.312 -0.3990 -0.3012  0.5783
18608TIP3    H177315   2.116   6.007  12.220  1.3668  0.3988  0.2814
18608TIP3    H277316   2.027   6.046  12.337 -0.9209 -0.9964 -0.9384
18609TIP3   OH277317   3.048   0.479  14.380  0.0085 -0.2713 -0.5719
18609TIP3    H177318   3.133   0.452  14.417  0.1661  1.1001  0.1473
18609TIP3    H277319   2.985   0.418  14.418  0.1709  1.0614  2.0472
18610TIP3   OH277320   0.304   1.952   3.250 -0.3269  0.4362 -0.0036
18610TIP3    H177321   0.335   1.987   3.334  1.5451  0.1400 -0.5343
18610TIP3    H277322   0.292   2.030   3.195 -0.2088  0.5369  0.1110
18611TIP3   OH277323   5.384   4.403  14.565 -0.7295  0.3788 -0.2650
18611TIP3    H177324   5.428   4.428  14.484 -1.2241 -1.3878 -1.1091
18611TIP3    H277325   5.291   4.417  14.547 -0.7301  2.4438  0.9275
18612TIP3   OH277326   1.530   5.779  12.172 -0.2291  0.1922  0.2892
18612TIP3    H177327   1.609   5.784  12.118 -0.7771 -0.3212 -0.5769
18612TIP3    H277328   1.489   5.696  12.148 -2.0542  1.3280 -0.7160
18613TIP3   OH277329   0.003   2.965   3.520  0.4870 -0.6067 -0.0101
18613TIP3    H177330   0.021   3.027   3.591  1.8761 -2.1409  1.0566
18613TIP3    H277331  -0.093   2.967   3.511  0.1940 -0.8288  2.3768
18614TIP3   OH277332   2.758   3.214   1.956 -0.1674  0.5059 -1.0260
18614TIP3    H177333   2.811   3.254   2.026 -0.4408  1.2176 -1.2086
18614TIP3    H277334   2.676   3.189   2.000  1.2155 -3.0437 -0.1242
18615TIP3   OH277335   2.737   3.708  13.652 -0.0913 -0.6593 -0.2409
18615TIP3    H177336   2.730   3.704  13.747 -0.8929 -0.5018 -0.2802
18615TIP3    H277337   2.731   3.617  13.624 -1.3949 -0.6048 -0.2125
18616TIP3   OH277338   5.291   0.297   0.471 -0.3039 -0.1815 -0.0934
18616TIP3    H177339   5.347   0.236   0.422  1.9938  1.5938  0.1148
18616TIP3    H277340   5.235   0.337   0.405  0.9221  0.2743 -0.9033
18617TIP3   OH277341   1.647   1.888   5.973 -0.2031  0.0016 -0.1624
18617TIP3    H177342   1.632   1.807   5.925 -2.6437 -0.0789  0.5761
18617TIP3    H277343   1.725   1.871   6.025  0.5483 -1.0805 -1.5772
18618TIP3   OH277344   2.397   2.141   4.717  0.3173  0.4963  0.3867
18618TIP3    H177345   2.451   2.082   4.664 -2.2284 -1.1826 -0.5795
18618TIP3    H277346   2.367   2.086   4.790 -1.5080  0.7526 -0.1185
18619TIP3   OH277347   2.282   0.405   3.640  0.3632  0.1681 -0.1452
18619TIP3    H177348   2.283   0.479   3.700  2.8733  1.0488 -1.1533
18619TIP3    H277349   2.361   0.356   3.661  0.7228 -0.1088 -1.9829
18620TIP3   OH277350   1.158   0.615   2.897  0.4570  0.2660  0.3791
18620TIP3    H177351   1.148   0.553   2.824  1.5806 -0.3548  0.7309
18620TIP3    H277352   1.150   0.561   2.975  2.0163  0.4601  0.6884
18621TIP3   OH277353   3.060   1.826  16.490 -0.0606  0.0212  0.1935
18621TIP3    H177354   3.072   1.798  16.580 -0.1790 -0.0643  0.1841
18621TIP3    H277355   2.998   1.899  16.495  2.1028  1.9253  0.4579
18622TIP3   OH277356   1.552   4.533  14.370 -0.0663  0.0028  0.3804
18622TIP3    H177357   1.573   4.618  14.332  1.1059 -0.8944 -1.0980
18622TIP3    H277358   1.497   4.490  14.304 -0.5929 -0.4170  1.0806
18623TIP3   OH277359   2.060   1.768   5.644  0.2376  0.5229 -0.0888
18623TIP3    H177360   1.971   1.767   5.609  0.5282 -0.7960 -0.8485
18623TIP3    H277361   2.054   1.720   5.726 -0.0517  1.8961  0.7312
18624TIP3   OH277362   4.257   2.773  13.342  0.7084 -0.5251 -0.1509
18624TIP3    H177363   4.215   2.737  13.420  0.3045  0.4271  0.0968
18624TIP3    H277364   4.295   2.856  13.372  2.2808 -1.0915 -0.5109
18625TIP3   OH277365   3.030   0.812   4.460 -0.1998  0.1874  0.1472
18625TIP3    H177366   3.105   0.753   4.452  0.6129  1.1515  0.4389
18625TIP3    H277367   2.984   0.782   4.538 -0.6971 -1.0255 -0.5819
18626TIP3   OH277368   3.866   2.595   3.627 -0.1185 -0.1137  0.4354
18626TIP3    H177369   3.923   2.581   3.552 -0.4420 -0.1758  0.2022
18626TIP3    H277370   3.925   2.589   3.703  0.2223  0.0393  0.1848
18627TIP3   OH277371   4.883   2.566  11.110 -0.4282 -0.1032  0.4027
18627TIP3    H177372   4.803   2.513  11.119 -1.4001  0.9459 -1.5232
18627TIP3    H277373   4.871   2.614  11.028  2.1118  0.2520  0.1710
18628TIP3   OH277374   5.093   4.330   1.763  0.2587 -0.1065  0.5054
18628TIP3    H177375   5.012   4.311   1.809 -0.2572 -0.3603 -0.4921
18628TIP3    H277376   5.093   4.424   1.750 -0.8377 -0.3096 -1.2070
18629TIP3   OH277377   1.629   4.746   0.203  0.0117  0.3346 -0.0996
18629TIP3    H177378   1.682   4.691   0.261  0.6833 -0.6742 -1.6098
18629TIP3    H277379   1.598   4.686   0.135 -1.0943  1.3946 -0.5745
18630TIP3   OH277380   2.543   1.438  14.113  0.0736 -0.1384 -0.2644
18630TIP3    H177381   2.603   1.435  14.188 -0.9956 -0.4702  0.5980
18630TIP3    H277382   2.542   1.349  14.079  0.6622  0.0420 -0.7693
18631TIP3   OH277383   6.732   1.794  12.251  0.3285 -0.4881 -0.4974
18631TIP3    H177384   6.719   1.734  12.177 -0.4497 -1.2707  0.2595
18631TIP3    H277385   6.689   1.751  12.325 -1.7677  1.7549 -0.2807
18632TIP3   OH277386   6.300   2.307   3.332  0.6901 -0.2194 -0.5058
18632TIP3    H177387   6.369   2.246   3.305  0.6296 -0.3593 -0.3463
18632TIP3    H277388   6.332   2.345   3.413 -0.2363 -1.6772  0.5945
18633TIP3   OH277389   0.256   4.689  12.336  0.3838  0.0686  0.2558
18633TIP3    H177390   0.176   4.695  12.387  1.2650 -1.0467  1.8397
18633TIP3    H277391   0.294   4.777  12.339  0.3573  0.0491  1.4513
18634TIP3   OH277392   2.438   4.256  15.740 -0.0721 -0.1840  0.2088
18634TIP3    H177393   2.388   4.301  15.672  2.7761  2.4062 -0.4089
18634TIP3    H277394   2.374   4.201  15.784 -3.0913  1.7326 -1.4140
18635TIP3   OH277395   4.269   3.649  12.817  1.1256  0.5054  0.5502
18635TIP3    H177396   4.299   3.711  12.883 -0.6245  1.0475  0.9009
18635TIP3    H277397   4.205   3.699  12.765  1.2969 -0.3802 -0.5511
18636TIP3   OH277398   0.499   6.415   2.775 -0.4255  1.3402  0.0889
18636TIP3    H177399   0.538   6.481   2.718  0.9706  0.0683 -0.5122
18636TIP3    H277400   0.563   6.343   2.775 -1.4964  0.3455  1.3843
18637TIP3   OH277401   4.696   4.728  14.143  0.0528 -0.1552 -0.3840
18637TIP3    H177402   4.750   4.793  14.188  0.3142 -0.2775 -0.5162
18637TIP3    H277403   4.685   4.657  14.206  1.1765 -0.7346 -0.8087
18638TIP3   OH277404   2.058   3.970   2.621 -0.2920  0.1054  0.5838
18638TIP3    H177405   2.051   4.065   2.635  0.5777  0.3093 -0.2918
18638TIP3    H277406   2.139   3.945   2.665  0.2326  0.0247 -0.4059
18639TIP3   OH277407   1.408   3.626  13.431  0.1715 -0.2344  0.0372
18639TIP3    H177408   1.381   3.604  13.520  2.1700  1.6179  1.1877
18639TIP3    H277409   1.356   3.703  13.408 -1.0881 -1.3114 -0.8584
18640TIP3   OH277410   5.189   3.351  10.471  0.5668 -0.2803  0.0166
18640TIP3    H177411   5.245   3.281  10.436  1.6009 -0.7181  2.3455
18640TIP3    H277412   5.132   3.308  10.533  0.0751  0.7116  0.2780
18641TIP3   OH277413   3.058   2.937   4.755  0.0737  0.2283  0.1499
18641TIP3    H177414   3.052   3.032   4.755 -1.0535  0.1631  0.4196
18641TIP3    H277415   3.013   2.909   4.834  0.5093 -0.5327  0.1465
18642TIP3   OH277416   2.354   0.086  14.920 -0.1000  0.4227  0.1223
18642TIP3    H177417   2.423   0.051  14.863 -1.4982 -1.3363 -0.5589
18642TIP3    H277418   2.334   0.172  14.881  0.7284  0.3563 -0.4904
18643TIP3   OH277419   6.806   0.701   4.555 -0.2546 -0.3810 -0.0877
18643TIP3    H177420   6.721   0.746   4.553 -0.0664  0.3018  2.7252
18643TIP3    H277421   6.788   0.619   4.601  0.5296 -0.3303  0.3209
18644TIP3   OH277422   5.998   0.941   4.050 -0.3401  0.9606  0.2020
18644TIP3    H177423   5.954   0.858   4.068 -0.5112  0.2171 -3.0963
18644TIP3    H277424   6.090   0.917   4.036 -0.1498  1.5202  0.4558
18645TIP3   OH277425   2.581   3.985  13.178 -0.2180 -0.8528  0.0089
18645TIP3    H177426   2.579   4.081  13.185  1.2884 -0.6634 -1.4351
18645TIP3    H277427   2.538   3.966  13.095  0.6733 -1.3114 -0.3598
18646TIP3   OH277428   2.594   1.739  14.111 -0.4014  0.2928 -0.2767
18646TIP3    H177429   2.554   1.664  14.154 -0.2321 -1.7325 -3.3663
18646TIP3    H277430   2.520   1.792  14.082 -0.6250 -0.0922 -0.4175
18647TIP3   OH277431   1.983   1.615  15.515  0.3657  0.0209 -0.4191
18647TIP3    H177432   2.074   1.595  15.533  0.4309 -0.7812 -1.5542
18647TIP3    H277433   1.985   1.671  15.437 -0.0720  0.8002  0.1074
18648TIP3   OH277434   0.733   6.014  16.476 -0.2449  0.0374  0.0371
18648TIP3    H177435   0.655   6.069  16.466 -0.6560 -0.6518 -0.7160
18648TIP3    H277436   0.759   6.025  16.567  0.1244  2.0498 -0.2473
18649TIP3   OH277437   2.157   4.049  12.974 -0.1507  0.5416  0.0602
18649TIP3    H177438   2.133   3.969  13.021 -0.8325 -0.5327 -1.9663
18649TIP3    H277439   2.168   4.115  13.042  0.3677 -1.2477  1.8041
18650TIP3   OH277440   6.099   1.901  13.318 -0.8760 -0.1578 -0.1485
18650TIP3    H177441   6.098   1.901  13.414  0.0868  1.6466 -0.0895
18650TIP3    H277442   6.127   1.813  13.294 -1.1219 -0.6300  1.2285
18651TIP3   OH277443   0.941   2.131  15.653  0.3320 -0.0472  0.4185
18651TIP3    H177444   0.931   2.218  15.616 -0.1437 -0.0807  0.4557
18651TIP3    H277445   0.872   2.079  15.611 -0.5376  0.0276  1.6899
18652TIP3   OH277446   6.221   5.601  14.148 -0.0638  0.3927  0.1084
18652TIP3    H177447   6.253   5.565  14.230  0.1963  0.4788  0.0484
18652TIP3    H277448   6.191   5.526  14.098 -0.5806  0.3786  0.4327
18653TIP3   OH277449   5.123   2.226   4.996 -0.0985  0.0091  0.6841
18653TIP3    H177450   5.028   2.228   5.008 -0.1364  0.2203  0.3498
18653TIP3    H277451   5.144   2.309   4.952  0.5848  1.3573  3.2789
18654TIP3   OH277452   4.931   0.550   1.873  0.6978 -0.0092  0.2503
18654TIP3    H177453   4.860   0.578   1.814  2.9343  0.1743 -2.5598
18654TIP3    H277454   4.949   0.627   1.926 -0.9847  0.0278  0.8373
18655TIP3   OH277455   3.434   5.485  17.116  0.8108  0.1429  0.1875
18655TIP3    H177456   3.360   5.545  17.125  0.1290 -0.9126  2.7042
18655TIP3    H277457   3.456   5.461  17.206  2.3940 -1.7653 -0.6322
18656TIP3   OH277458   0.780   5.480  13.644  0.3765 -0.0781 -0.3395
18656TIP3    H177459   0.824   5.503  13.725  1.3734 -0.4699 -0.7414
18656TIP3    H277460   0.730   5.401  13.665 -0.6917  0.7423  0.2884
18657TIP3   OH277461   0.381   1.124  10.487 -0.0306  0.1851  0.6152
18657TIP3    H177462   0.403   1.031  10.492 -0.1945  0.0795 -0.3702
18657TIP3    H277463   0.313   1.129  10.420 -1.1937  0.8277  1.8097
18658TIP3   OH277464   6.358   5.414  12.558  0.0510 -0.5548  1.0590
18658TIP3    H177465   6.433   5.355  12.550  1.4196  1.2095  0.1081
18658TIP3    H277466   6.335   5.410  12.651  0.6755 -1.8584  1.1916
18659TIP3   OH277467   0.400   6.695   6.503 -0.4563  0.1292  0.1033
18659TIP3    H177468   0.377   6.676   6.413  1.7304  0.3760 -0.5739
18659TIP3    H277469   0.401   6.791   6.508 -0.4097  0.1182  0.3492
18660TIP3   OH277470   3.791   2.329  13.991  0.2340  0.5492 -0.4822
18660TIP3    H177471   3.885   2.318  13.978 -0.0464 -1.0483 -1.4320
18660TIP3    H277472   3.751   2.285  13.916 -1.3016 -0.2204  0.7312
18661TIP3   OH277473   6.187   2.327   5.604  0.0734 -0.0555 -0.3798
18661TIP3    H177474   6.250   2.390   5.637  1.4329 -1.9401  0.8003
18661TIP3    H277475   6.174   2.352   5.512  1.5595  1.1415 -0.2985
18662TIP3   OH277476   1.681   2.245  14.384 -0.1124 -0.0318  0.4083
18662TIP3    H177477   1.657   2.310  14.450  1.7857  1.7395 -0.5288
18662TIP3    H277478   1.600   2.231  14.334 -0.9333  0.5108  1.5397
18663TIP3   OH277479   2.781   6.739   6.389  0.7795 -0.1894 -0.2127
18663TIP3    H177480   2.757   6.832   6.390  0.5626 -0.2353  0.8205
18663TIP3    H277481   2.876   6.739   6.375  0.5101  0.0848 -2.2372
18664TIP3   OH277482   4.689   1.098  11.359 -0.7880 -0.0776  0.1123
18664TIP3    H177483   4.685   1.126  11.268 -0.0349 -1.0496 -0.2366
18664TIP3    H277484   4.706   1.004  11.354 -1.2135 -0.2242  1.2526
18665TIP3   OH277485   4.173   5.704   5.626 -0.8632 -0.1768  0.0532
18665TIP3    H177486   4.212   5.767   5.687  0.2663  0.7003 -1.5042
18665TIP3    H277487   4.111   5.654   5.680  1.9833 -1.3093  2.6246
18666TIP3   OH277488   3.220   2.648  10.518  0.3507 -0.3238 -0.0988
18666TIP3    H177489   3.151   2.699  10.560  0.8387 -0.3137  0.7061
18666TIP3    H277490   3.221   2.679  10.428 -0.9238 -0.5689 -0.2211
18667TIP3   OH277491   6.649   5.383   2.400 -0.2807  0.2145 -0.0714
18667TIP3    H177492   6.630   5.366   2.493 -2.3521 -1.5515 -0.7474
18667TIP3    H277493   6.622   5.474   2.387 -2.7021 -0.3698  0.4524
18668TIP3   OH277494   5.687   6.230  16.818  0.0803  0.4246  0.3299
18668TIP3    H177495   5.749   6.213  16.889  0.3806  1.1927  0.2625
18668TIP3    H277496   5.730   6.197  16.739 -0.0343  0.0434  0.4214
18669TIP3   OH277497   0.258   6.625   0.982 -0.6169  0.4658  0.0901
18669TIP3    H177498   0.229   6.592   0.897  1.4094  0.0848 -0.5096
18669TIP3    H277499   0.230   6.716   0.984  0.7773  0.9776 -1.7485
18670TIP3   OH277500   2.024   4.906   0.329  0.0953  0.5036 -0.3853
18670TIP3    H177501   2.044   4.812   0.335 -1.3114  0.1205 -1.3074
18670TIP3    H277502   2.108   4.949   0.343  0.7037 -0.8799  0.4476
18671TIP3   OH277503   6.736   0.839  16.917 -0.0672  0.0701 -0.1557
18671TIP3    H177504   6.670   0.786  16.962 -0.4005  0.2511 -0.4335
18671TIP3    H277505   6.697   0.926  16.910 -0.3721 -0.1504 -1.5278
18672TIP3   OH277506   4.178   0.399  11.678  0.0854  0.3523  0.2161
18672TIP3    H177507   4.223   0.360  11.753  0.4248 -0.1664 -0.2423
18672TIP3    H277508   4.219   0.357  11.602 -1.2118 -0.1920 -0.2158
18673TIP3   OH277509   1.869   1.184   0.250 -0.7768  0.8218  0.2429
18673TIP3    H177510   1.829   1.175   0.164 -0.5078  0.9798  0.1011
18673TIP3    H277511   1.915   1.101   0.264  0.0020  1.1656 -0.1924
18674TIP3   OH277512   2.147   4.010   4.132  0.1528  0.5393 -0.1938
18674TIP3    H177513   2.218   3.959   4.092 -1.3681 -2.0155  0.1138
18674TIP3    H277514   2.074   4.001   4.070 -0.3809  1.8365  0.2099
18675TIP3   OH277515   3.651   2.043  14.135 -0.1108 -0.3721 -0.0490
18675TIP3    H177516   3.610   1.986  14.070  0.2799 -1.2288  0.4413
18675TIP3    H277517   3.745   2.030  14.123 -0.0014  0.4038 -0.1280
18676TIP3   OH277518   2.866   4.215  12.764  0.3704 -0.0515  0.0530
18676TIP3    H177519   2.889   4.285  12.824  0.6398 -0.2337  0.1641
18676TIP3    H277520   2.786   4.177  12.802  1.2567 -1.0108  1.0281
18677TIP3   OH277521   4.139   3.214   1.104  0.1430  0.1672 -0.6179
18677TIP3    H177522   4.176   3.203   1.192 -0.1050 -0.1807 -0.5572
18677TIP3    H277523   4.146   3.308   1.087  0.9724  0.1234 -0.5663
18678TIP3   OH277524   3.602   3.689  15.086  0.2275 -0.0070  0.3182
18678TIP3    H177525   3.664   3.673  15.015 -0.0491  0.9790 -0.1643
18678TIP3    H277526   3.547   3.610  15.088  0.7833 -0.4078  0.0088
18679TIP3   OH277527   1.406   5.922  11.015  0.0220  0.0442  0.0856
18679TIP3    H177528   1.403   5.856  10.945 -0.7743  1.4685 -1.2953
18679TIP3    H277529   1.350   5.993  10.983  1.0837  1.5294  1.3689
18680TIP3   OH277530   2.681   5.965  16.363  0.0375 -0.4735 -0.1356
18680TIP3    H177531   2.614   5.903  16.337 -0.4576 -0.1901  0.4399
18680TIP3    H277532   2.654   6.048  16.324 -0.1919 -0.2639  0.4441
18681TIP3   OH277533   0.380   0.873   1.124 -0.1258 -0.2202 -0.3637
18681TIP3    H177534   0.386   0.892   1.217  0.6217 -2.1071  0.0292
18681TIP3    H277535   0.395   0.957   1.081 -2.2708  1.0349  1.1950
18682TIP3   OH277536   5.497   2.508   2.640  0.3688  0.0151  0.1923
18682TIP3    H177537   5.517   2.535   2.550  0.0769 -0.5909 -0.0538
18682TIP3    H277538   5.558   2.436   2.657  0.1717 -0.1136  0.3495
18683TIP3   OH277539   4.718   3.968  16.827 -0.1053  0.6192 -0.0181
18683TIP3    H177540   4.779   3.960  16.901  0.0875  1.1909 -0.1111
18683TIP3    H277541   4.774   3.961  16.750 -0.3065  0.0350 -0.1165
18684TIP3   OH277542   6.430   6.217   0.167 -0.0704 -0.0620 -0.0882
18684TIP3    H177543   6.394   6.297   0.129 -0.6457 -1.4739 -2.7447
18684TIP3    H277544   6.508   6.199   0.114  0.1638 -1.1531  0.6030
18685TIP3   OH277545   2.232   0.954  14.751  0.2448 -0.1250  0.2802
18685TIP3    H177546   2.275   1.022  14.699 -0.3503 -0.9957 -1.4225
18685TIP3    H277547   2.197   1.001  14.827 -1.5909  1.8284 -1.6507
18686TIP3   OH277548   5.822   1.814  14.116  0.7609 -0.4550  0.2137
18686TIP3    H177549   5.850   1.758  14.188 -1.2965  0.8383  2.1638
18686TIP3    H277550   5.802   1.898  14.158 -0.2231  0.4443 -1.9197
18687TIP3   OH277551   1.757   5.098  11.509  0.1383  0.0564  0.1424
18687TIP3    H177552   1.711   5.172  11.549  0.9888  0.0162  1.2196
18687TIP3    H277553   1.748   5.027  11.572 -2.0443 -1.3277 -1.5457
18688TIP3   OH277554   1.551   6.623   2.158  0.0774 -0.1641 -0.2091
18688TIP3    H177555   1.571   6.549   2.101  1.4410 -0.1427  0.2150
18688TIP3    H277556   1.617   6.689   2.136 -1.6245  1.3077 -1.2050
18689TIP3   OH277557   0.664   1.823  12.837 -0.1786  0.2443 -0.5055
18689TIP3    H177558   0.759   1.812  12.826 -0.2239 -0.9637  0.2294
18689TIP3    H277559   0.628   1.801  12.751  0.0289 -1.9477 -0.0831
18690TIP3   OH277560   5.605   4.944  13.320 -0.3582 -1.0846  0.0227
18690TIP3    H177561   5.521   4.940  13.273 -0.2051  0.1369 -0.3746
18690TIP3    H277562   5.580   4.946  13.412 -0.6573 -3.8601  0.1032
18691TIP3   OH277563   4.945   6.033  14.031 -0.6714 -0.0013  0.4139
18691TIP3    H177564   5.036   6.063  14.033 -0.3386 -0.8157 -1.2772
18691TIP3    H277565   4.909   6.061  14.116  1.2281  0.0591  1.2547
18692TIP3   OH277566   5.301   0.224  13.999  0.1199  0.9704  0.1002
18692TIP3    H177567   5.270   0.230  14.089  0.1524  0.3636  0.1606
18692TIP3    H277568   5.243   0.282  13.950  0.6588  1.9927  0.6420
18693TIP3   OH277569   1.400   5.267   5.274  0.8278 -0.1149 -0.0590
18693TIP3    H177570   1.473   5.210   5.249 -0.3309 -1.0828 -1.3835
18693TIP3    H277571   1.325   5.208   5.281 -0.2180  1.1159 -0.5304
18694TIP3   OH277572   6.344   1.786   1.530 -0.2952 -0.1550 -0.2501
18694TIP3    H177573   6.344   1.813   1.438 -0.1801 -0.2244 -0.2708
18694TIP3    H277574   6.281   1.713   1.533 -2.5041  1.6577  0.2706
18695TIP3   OH277575   4.128   6.838   5.175  0.1273  0.3600 -0.4231
18695TIP3    H177576   4.177   6.831   5.093  0.0279  0.5181 -0.4959
18695TIP3    H277577   4.107   6.931   5.183 -1.2598  0.1128 -1.0315
18696TIP3   OH277578   3.757   1.164  15.053 -0.1564  0.3006 -0.1641
18696TIP3    H177579   3.733   1.145  15.144  3.8526  2.6194  1.6112
18696TIP3    H277580   3.785   1.079  15.018  0.5627 -0.2634  1.6202
18697TIP3   OH277581   0.449   6.154   2.119 -0.6505  0.1274 -0.7047
18697TIP3    H177582   0.542   6.169   2.104 -0.5546 -0.4908 -0.7281
18697TIP3    H277583   0.410   6.155   2.032 -0.6791  0.4655 -0.6888
18698TIP3   OH277584   3.893   2.056   2.629  0.2355 -0.1806 -0.3684
18698TIP3    H177585   3.947   2.126   2.668 -0.8073  2.4719 -3.2298
18698TIP3    H277586   3.953   2.009   2.571  0.7209 -1.1192  0.8513
18699TIP3   OH277587   1.075   3.973   2.333 -0.1617 -0.0416 -0.3997
18699TIP3    H177588   1.099   3.922   2.256  1.6086  1.0541 -0.6005
18699TIP3    H277589   0.980   3.985   2.325 -0.6266 -3.0639 -0.4491
18700TIP3   OH277590   3.183   4.152   4.649  0.3362 -0.1678 -0.3619
18700TIP3    H177591   3.148   4.222   4.705 -0.3377 -0.2413 -0.6837
18700TIP3    H277592   3.261   4.121   4.696  0.3168  0.4144  0.0644
18701TIP3   OH277593   0.915   1.257   3.697  0.2691  0.2234 -0.5250
18701TIP3    H177594   0.943   1.202   3.624  0.6379 -1.4254  0.8147
18701TIP3    H277595   0.909   1.345   3.659 -0.5453 -0.7223 -2.7805
18702TIP3   OH277596   6.365   6.112  16.665 -0.5127 -0.4874 -0.4342
18702TIP3    H177597   6.393   6.082  16.751 -0.8663 -1.2270 -0.5733
18702TIP3    H277598   6.443   6.104  16.610 -0.1987  0.2858 -0.1168
18703TIP3   OH277599   2.360   0.062  15.570 -0.0999  0.8810  0.6362
18703TIP3    H177600   2.289   0.115  15.534  1.2992  1.8132 -0.9352
18703TIP3    H277601   2.395   0.014  15.495 -0.8066 -1.7576  1.8796
18704TIP3   OH277602   5.323   4.411   0.600 -0.2896 -0.4434  0.4635
18704TIP3    H177603   5.297   4.344   0.664 -0.3951 -1.7763 -0.9158
18704TIP3    H277604   5.418   4.419   0.610  0.3607 -3.5421 -1.7572
18705TIP3   OH277605   6.357   6.702  11.511  0.3995  0.3099 -0.1092
18705TIP3    H177606   6.450   6.681  11.514  0.1084 -0.9757  1.1828
18705TIP3    H277607   6.313   6.625  11.547 -1.0788  1.3708  0.4906
18706TIP3   OH277608   5.898   3.578  12.912  0.5233  0.0650  0.5862
18706TIP3    H177609   5.908   3.599  13.005  2.6854  0.2736  0.3797
18706TIP3    H277610   5.867   3.660  12.873 -0.0128  0.0970  1.0754
18707TIP3   OH277611   1.660   1.956  11.457 -0.1887  0.3699  0.5308
18707TIP3    H177612   1.638   1.970  11.365 -1.9933 -0.7850  0.7410
18707TIP3    H277613   1.747   1.995  11.467  0.2433  0.1108 -1.7595
18708TIP3   OH277614   5.604   3.290  12.765 -0.3295  0.0127  0.5363
18708TIP3    H177615   5.625   3.311  12.856 -1.6997 -2.1832  1.4193
18708TIP3    H277616   5.543   3.217  12.770 -0.9199  0.2168 -2.1574
18709TIP3   OH277617   5.653   3.580   3.746 -0.0547  0.4013 -0.0589
18709TIP3    H177618   5.643   3.521   3.820  2.1837  1.5857  1.3093
18709TIP3    H277619   5.566   3.584   3.706 -1.5709  0.2981  2.9641
18710TIP3   OH277620   4.208   3.276   2.134 -0.0411 -0.8338 -0.5848
18710TIP3    H177621   4.221   3.193   2.088  0.5881 -0.0322 -1.9186
18710TIP3    H277622   4.194   3.340   2.065 -2.0970 -0.0404  0.4590
18711TIP3   OH277623   1.721   2.521  16.625  0.3387 -0.6269  0.0408
18711TIP3    H177624   1.660   2.514  16.699  0.7037 -1.7955  0.2424
18711TIP3    H277625   1.686   2.592  16.572  0.0884  0.2809  1.3611
18712TIP3   OH277626   4.426   6.704  11.501 -0.4074  0.4979 -0.6461
18712TIP3    H177627   4.367   6.749  11.561 -1.2403 -0.2795 -0.8564
18712TIP3    H277628   4.463   6.632  11.552  0.8804  1.3500 -0.3256
18713TIP3   OH277629   5.254   6.196   3.891  0.1031 -0.4668 -0.0099
18713TIP3    H177630   5.278   6.104   3.891  2.4032 -0.0121 -2.0681
18713TIP3    H277631   5.295   6.232   3.970  0.7694 -0.9122 -0.1409
18714TIP3   OH277632   3.692   1.739  13.390 -0.3144 -0.5539 -0.3412
18714TIP3    H177633   3.611   1.785  13.410  0.3609  0.0918  1.0575
18714TIP3    H277634   3.665   1.663  13.339 -1.7170  0.0344 -0.5063
18715TIP3   OH277635   1.524   4.847  12.038  0.2305 -0.0275  0.4098
18715TIP3    H177636   1.606   4.851  12.087  0.7823 -2.3332 -0.2306
18715TIP3    H277637   1.459   4.818  12.102  0.3745 -0.3371  0.4167
18716TIP3   OH277638   1.253   0.882   4.974  0.6498 -0.1175  0.3301
18716TIP3    H177639   1.310   0.935   5.031  1.8439 -2.2863  1.2601
18716TIP3    H277640   1.221   0.813   5.032  1.5805 -2.1793 -1.5067
18717TIP3   OH277641   6.011   2.295   4.378  0.0335  0.5985 -0.3153
18717TIP3    H177642   6.098   2.256   4.379 -0.3621 -0.3795 -1.6265
18717TIP3    H277643   5.981   2.286   4.287 -2.0082 -0.4109  0.3937
18718TIP3   OH277644   1.481   0.841  12.851 -0.3763  0.4320 -0.1699
18718TIP3    H177645   1.483   0.847  12.947 -2.3446 -0.3942 -0.0231
18718TIP3    H277646   1.519   0.924  12.822 -2.1902  1.9312  1.3917
18719TIP3   OH277647   2.869   2.950  16.581 -0.5128 -0.2038  0.0462
18719TIP3    H177648   2.863   2.963  16.486  0.5259 -0.9133 -0.1432
18719TIP3    H277649   2.817   2.872  16.598 -0.4825 -0.2302  0.0177
18720TIP3   OH277650   6.124   2.147   4.643 -0.4270 -0.5340 -0.4953
18720TIP3    H177651   6.207   2.153   4.692 -0.6764 -0.8833 -0.0239
18720TIP3    H277652   6.148   2.168   4.553 -0.0151  0.4856 -0.1679
18721TIP3   OH277653   4.898   4.562   4.624 -0.8166 -0.0932  0.2914
18721TIP3    H177654   4.926   4.589   4.537 -0.4758  2.0536  1.0132
18721TIP3    H277655   4.805   4.541   4.614 -0.8302  0.3373 -0.5474
18722TIP3   OH277656   2.277   2.733  16.430  0.4424 -0.1637  0.1516
18722TIP3    H177657   2.335   2.792  16.381 -0.0951 -0.5484 -0.9913
18722TIP3    H277658   2.240   2.787  16.499  1.7758  0.2172  0.5943
18723TIP3   OH277659   1.778   2.370   1.926  0.0353 -0.2410 -0.7056
18723TIP3    H177660   1.842   2.389   1.995 -2.2362  0.5635  1.3358
18723TIP3    H277661   1.745   2.283   1.947 -1.4734  0.4520 -0.0007
18724TIP3   OH277662   3.605   3.914  12.153  0.1011 -0.3498 -0.0924
18724TIP3    H177663   3.629   3.994  12.199  0.3068 -0.7829  0.5586
18724TIP3    H277664   3.545   3.943  12.084  1.5077  0.5986 -0.9763
18725TIP3   OH277665   2.526   0.160   1.711  0.2835 -0.2118  0.4513
18725TIP3    H177666   2.450   0.187   1.762  0.1017 -0.3217  0.2431
18725TIP3    H277667   2.493   0.151   1.621  0.6603  0.2333  0.2678
18726TIP3   OH277668   0.429   1.803  14.899  0.9894  0.4902 -0.1254
18726TIP3    H177669   0.451   1.815  14.807  1.0016  0.1196 -0.1725
18726TIP3    H277670   0.491   1.737  14.930  1.2485  0.9073  0.2497
18727TIP3   OH277671   0.200   0.578   4.503  0.1157  0.4772  0.6312
18727TIP3    H177672   0.140   0.523   4.453  1.7958 -0.2871 -0.6508
18727TIP3    H277673   0.143   0.633   4.557 -1.6784 -0.9950  0.3386
18728TIP3   OH277674   2.112   1.524   1.074 -0.4127  0.1851 -0.4453
18728TIP3    H177675   2.058   1.530   0.995 -0.9319  2.1266  0.0137
18728TIP3    H277676   2.097   1.436   1.107 -1.9622  0.1159 -1.2677
18729TIP3   OH277677   6.031   4.008  13.857  0.2642  0.1002 -0.1285
18729TIP3    H177678   5.973   3.933  13.848 -0.3978  0.8110 -2.6448
18729TIP3    H277679   6.028   4.030  13.950 -1.4237 -1.4778  0.2504
18730TIP3   OH277680   1.835   5.814  14.543  0.2617 -0.1473 -0.4359
18730TIP3    H177681   1.877   5.740  14.497 -0.6038 -0.0354 -1.4501
18730TIP3    H277682   1.747   5.782  14.563 -0.1738  0.6498 -1.0326
18731TIP3   OH277683   5.371   1.751   1.091  0.6504  0.0339  0.7310
18731TIP3    H177684   5.443   1.787   1.039  0.0668 -1.0610 -0.9272
18731TIP3    H277685   5.316   1.826   1.111  0.4723  0.4114 -0.9826
18732TIP3   OH277686   6.124   3.872  11.590  0.1991  0.1074 -0.2489
18732TIP3    H177687   6.172   3.948  11.622 -1.0148  0.2587  1.3568
18732TIP3    H277688   6.160   3.799  11.640 -0.3470  0.0307  0.0372
18733TIP3   OH277689   3.614   1.653   2.815 -0.2059  0.6847 -0.3564
18733TIP3    H177690   3.671   1.722   2.782  0.4999  0.6944  0.8279
18733TIP3    H277691   3.557   1.698   2.878 -0.9891  0.5241 -0.9403
18734TIP3   OH277692   3.615   5.892  16.793 -0.2640  0.5820 -0.7078
18734TIP3    H177693   3.585   5.813  16.748 -0.2552  0.8611 -1.2120
18734TIP3    H277694   3.561   5.962  16.757  0.4170  0.9598 -1.0104
18735TIP3   OH277695   4.905   3.221   5.073 -0.0035  0.9943 -0.1641
18735TIP3    H177696   4.981   3.212   5.016 -0.2396 -1.2937 -0.2117
18735TIP3    H277697   4.892   3.315   5.080  2.5576  1.4605 -0.4998
18736TIP3   OH277698   2.325   0.519   5.317  0.2958  0.1189  0.3358
18736TIP3    H177699   2.247   0.568   5.291  0.8686  0.8062 -0.1152
18736TIP3    H277700   2.291   0.435   5.349 -0.5156 -0.4056 -1.7417
18737TIP3   OH277701   3.701   0.919  12.864  0.1111  0.1580  0.4084
18737TIP3    H177702   3.643   0.995  12.859 -1.2543 -0.8084  0.6829
18737TIP3    H277703   3.789   0.954  12.854 -0.5655  1.5999 -0.8622
18738TIP3   OH277704   0.956   3.517  14.723  0.4046 -0.1111 -0.0477
18738TIP3    H177705   0.886   3.484  14.781  1.8994 -0.4566  1.6564
18738TIP3    H277706   0.981   3.442  14.670  0.1299 -0.2425  0.0058
18739TIP3   OH277707   0.776   3.994   2.318 -0.0172 -0.1147  0.6666
18739TIP3    H177708   0.771   3.910   2.273  0.2697  0.5579 -0.6630
18739TIP3    H277709   0.759   4.059   2.251  2.3344  1.0217  1.0685
18740TIP3   OH277710   4.115   4.297  12.225  0.0733 -0.7449  0.3332
18740TIP3    H177711   4.098   4.248  12.144  2.6596  0.0119 -0.7774
18740TIP3    H277712   4.184   4.247  12.269  1.7882  1.0774 -0.1541
18741TIP3   OH277713   4.478   5.235   1.092  0.4201 -0.1751 -0.2470
18741TIP3    H177714   4.511   5.283   1.015  0.3006  0.9903  0.3932
18741TIP3    H277715   4.486   5.298   1.164  0.3089 -1.1624  0.6547
18742TIP3   OH277716   0.109   5.273  14.987 -0.1643 -0.3361 -0.1206
18742TIP3    H177717   0.161   5.346  14.955 -0.6509  0.0870  0.0444
18742TIP3    H277718   0.065   5.239  14.909  0.3210 -0.6711 -0.2536
18743TIP3   OH277719   4.471   2.337   5.610 -0.3500  0.6058  0.2104
18743TIP3    H177720   4.442   2.382   5.689  0.1543  0.4376  0.4885
18743TIP3    H277721   4.566   2.346   5.610 -0.1826 -0.8734  0.5344
18744TIP3   OH277722   1.913   6.652  12.467  0.4978 -0.4052 -0.3367
18744TIP3    H177723   1.873   6.590  12.528 -0.3561 -1.3317 -1.7695
18744TIP3    H277724   1.879   6.737  12.494  0.2592 -0.7721  0.5647
18745TIP3   OH277725   4.208   6.423   3.789  0.0660  0.6290 -0.1751
18745TIP3    H177726   4.205   6.394   3.698 -0.8009  0.3928 -0.0831
18745TIP3    H277727   4.158   6.506   3.788 -0.0521  0.5600  0.1034
18746TIP3   OH277728   1.214   2.012  14.146  0.1401 -0.2771 -0.3284
18746TIP3    H177729   1.252   1.924  14.150 -2.2322 -1.4546 -1.7149
18746TIP3    H277730   1.221   2.037  14.054 -0.7518  0.2589 -0.2594
18747TIP3   OH277731   5.219   0.638   4.241  0.0340 -0.4027 -0.0472
18747TIP3    H177732   5.154   0.591   4.189  0.0583  0.1237 -0.5713
18747TIP3    H277733   5.257   0.701   4.179  0.9457 -0.6152  0.2855
18748TIP3   OH277734   2.007   2.836  11.974  0.1273  0.2703 -0.1473
18748TIP3    H177735   1.984   2.753  11.932 -0.5199  0.5266 -0.3162
18748TIP3    H277736   1.971   2.903  11.916  0.9671  0.6888 -0.2055
18749TIP3   OH277737   1.593   2.802  11.487  0.8289  0.6336 -0.4947
18749TIP3    H177738   1.501   2.820  11.469  0.5202  0.2457  0.5669
18749TIP3    H277739   1.620   2.872  11.547  0.1218 -1.2226  2.2135
18750TIP3   OH277740   4.862   0.626   4.475  0.5177 -0.3662  0.4171
18750TIP3    H177741   4.893   0.536   4.470  0.5615 -0.4367  1.5742
18750TIP3    H277742   4.800   0.634   4.403 -0.7282 -1.8375  1.2560
18751TIP3   OH277743   1.679   2.331  11.675 -0.6668 -0.5497  0.1834
18751TIP3    H177744   1.588   2.355  11.691 -0.0574  2.1597 -0.0232
18751TIP3    H277745   1.715   2.404  11.624  1.4001 -1.9636 -0.5315
18752TIP3   OH277746   5.512   1.166   5.655 -0.2034  0.0667 -0.2904
18752TIP3    H177747   5.500   1.207   5.569  0.0121 -0.4966 -0.6010
18752TIP3    H277748   5.538   1.076   5.634  1.5454  0.3855  0.3506
18753TIP3   OH277749   2.824   0.546  12.466  0.1590 -0.2595 -0.0673
18753TIP3    H177750   2.868   0.535  12.382 -1.2445 -0.4077 -0.8176
18753TIP3    H277751   2.892   0.580  12.525  1.4707 -1.3254 -0.9241
18754TIP3   OH277752   5.708   0.283  15.427 -0.2799 -0.0924  0.2982
18754TIP3    H177753   5.737   0.299  15.516  0.8565 -0.3041 -0.0258
18754TIP3    H277754   5.661   0.200  15.431  0.9977 -0.8261  0.4461
18755TIP3   OH277755   3.862   0.478  15.943  0.3887 -0.2180  0.2352
18755TIP3    H177756   3.917   0.508  15.870  0.4419 -1.6503 -0.3491
18755TIP3    H277757   3.818   0.400  15.909 -1.4889  0.4861  0.9208
18756TIP3   OH277758   1.811   4.307   4.891 -0.6232  0.0217  0.2785
18756TIP3    H177759   1.869   4.355   4.833  2.1138 -1.7076  1.3980
18756TIP3    H277760   1.829   4.341   4.979  0.2563 -1.8752  0.8895
18757TIP3   OH277761   1.175   4.169  10.880  0.1105 -0.2757  0.0003
18757TIP3    H177762   1.087   4.204  10.870  0.2021  0.5356  1.6276
18757TIP3    H277763   1.231   4.228  10.829 -0.2207 -0.5053 -0.6343
18758TIP3   OH277764   3.337   6.272  12.391 -0.0248  0.1804 -0.1942
18758TIP3    H177765   3.253   6.229  12.408  0.7134 -1.0447  0.5936
18758TIP3    H277766   3.321   6.364  12.409 -1.6127  0.2487 -1.6667
18759TIP3   OH277767   0.476   0.434   2.902 -0.7203  0.2017 -0.6943
18759TIP3    H177768   0.420   0.471   2.970  0.4871 -1.1257  1.1117
18759TIP3    H277769   0.558   0.483   2.909 -0.1799 -0.7280 -0.3598
18760TIP3   OH277770   1.364   5.124  13.320 -0.1998 -0.3830 -0.3081
18760TIP3    H177771   1.450   5.146  13.285 -0.6813 -0.4867 -1.5978
18760TIP3    H277772   1.352   5.031  13.299 -0.4684 -0.4815  0.2322
18761TIP3   OH277773   5.318   4.308   5.127 -0.5195  0.2053 -0.1206
18761TIP3    H177774   5.307   4.381   5.066  1.6203  0.1554 -0.6498
18761TIP3    H277775   5.388   4.337   5.187  0.2879 -1.3271 -0.2696
18762TIP3   OH277776   0.798   3.722  17.139 -0.1334 -0.4684 -0.6566
18762TIP3    H177777   0.716   3.678  17.115 -0.1926 -1.0269  0.5115
18762TIP3    H277778   0.806   3.709  17.234  1.3302 -0.4751 -0.7525
18763TIP3   OH277779   1.270   3.977   3.242 -0.6462  0.0120  0.8435
18763TIP3    H177780   1.219   3.901   3.214 -0.9103 -0.1385  1.7153
18763TIP3    H277781   1.332   3.942   3.305  0.9281  0.0974 -0.5778
18764TIP3   OH277782   3.806   2.621  11.135  0.4479  0.0355  0.4943
18764TIP3    H177783   3.771   2.710  11.126 -0.6479 -0.4426 -0.2016
18764TIP3    H277784   3.818   2.609  11.229 -0.7206  0.4486  0.7136
18765TIP3   OH277785   0.984   4.454   0.793  0.5749  0.1292 -0.4282
18765TIP3    H177786   1.048   4.525   0.792 -0.1677  0.8065 -0.5213
18765TIP3    H277787   0.907   4.492   0.835  0.0030 -0.4733 -0.9160
18766TIP3   OH277788   1.711   1.465   5.147  0.3564  0.1866  0.0031
18766TIP3    H177789   1.780   1.488   5.210  0.5491 -0.2400 -0.0452
18766TIP3    H277790   1.629   1.475   5.195  0.2837  2.5650 -0.4684
18767TIP3   OH277791   1.225   0.825  11.419 -0.0041 -0.3041  0.1537
18767TIP3    H177792   1.231   0.805  11.325 -0.4298  0.7116 -0.1039
18767TIP3    H277793   1.132   0.841  11.434  0.2691  1.2673  0.3622
18768TIP3   OH277794   0.873   6.297  12.360 -0.1843 -0.6062 -0.3025
18768TIP3    H177795   0.795   6.249  12.386 -1.0870  0.7343 -0.4274
18768TIP3    H277796   0.946   6.243  12.389 -1.1577 -1.5245  0.4945
18769TIP3   OH277797   4.874   0.552  14.869 -0.2719  0.2133 -0.5102
18769TIP3    H177798   4.900   0.460  14.873  0.8654  0.5439  1.9239
18769TIP3    H277799   4.790   0.552  14.824 -0.3899 -2.0396 -0.3868
18770TIP3   OH277800   0.217   3.332   0.442 -0.0513 -0.1143 -0.1150
18770TIP3    H177801   0.249   3.415   0.478 -0.2679  0.0968 -0.4108
18770TIP3    H277802   0.215   3.273   0.517 -0.4415  0.3058  0.2067
18771TIP3   OH277803   2.453   4.828  11.901  0.8844  0.2149 -0.8243
18771TIP3    H177804   2.541   4.862  11.884  1.5155 -2.0331 -2.4404
18771TIP3    H277805   2.397   4.876  11.840  1.0498  1.1692 -0.2620
18772TIP3   OH277806   4.167   3.565  13.216  0.0909 -0.6789  0.1396
18772TIP3    H177807   4.245   3.519  13.248  0.7611 -0.4421 -1.0866
18772TIP3    H277808   4.096   3.503  13.227  0.5847 -1.1854  0.5560
18773TIP3   OH277809   1.093   3.210   4.203 -0.2814 -0.2836  0.7212
18773TIP3    H177810   1.188   3.214   4.208 -0.2689  0.8397  0.0865
18773TIP3    H277811   1.064   3.208   4.295  0.3433 -0.1536  0.9248
18774TIP3   OH277812   4.654   6.739   5.107  0.2994  0.0201 -0.2493
18774TIP3    H177813   4.577   6.681   5.107 -1.2963  2.0149  0.2155
18774TIP3    H277814   4.632   6.808   5.169  3.4371 -0.4380  1.5891
18775TIP3   OH277815   2.280   4.289   3.654  0.4629  0.0475 -0.3213
18775TIP3    H177816   2.364   4.335   3.645  0.4007  0.5068  1.1934
18775TIP3    H277817   2.304   4.202   3.684  0.3974  0.2542  0.3455
18776TIP3   OH277818   4.480   1.463   0.191  0.7211 -0.0147  0.4132
18776TIP3    H177819   4.445   1.382   0.228  0.7887 -0.4629 -0.4937
18776TIP3    H277820   4.523   1.506   0.265 -1.4212  0.3973  1.4901
18777TIP3   OH277821   1.739   5.135   0.443 -0.2237 -0.1958  0.2017
18777TIP3    H177822   1.693   5.179   0.514  0.9084  0.9958  0.2364
18777TIP3    H277823   1.673   5.079   0.403 -1.6012  1.1410  0.4907
18778TIP3   OH277824   3.237   3.398   5.081  0.3114 -0.1398 -0.2999
18778TIP3    H177825   3.190   3.315   5.087  0.5412 -0.3286 -0.9930
18778TIP3    H277826   3.283   3.406   5.164  1.0254 -1.1607 -0.5788
18779TIP3   OH277827   6.153   3.270  14.496 -0.6620  0.3002  0.1108
18779TIP3    H177828   6.061   3.297  14.499 -0.7607 -0.0900  0.9110
18779TIP3    H277829   6.154   3.184  14.539  0.0087  0.0909 -0.2990
18780TIP3   OH277830   1.834   6.613  16.236  0.3545 -0.6453 -0.2069
18780TIP3    H177831   1.872   6.700  16.230 -1.6163  0.1455 -2.4475
18780TIP3    H277832   1.826   6.597  16.330  2.7821  0.6005  0.2917
18781TIP3   OH277833   0.008   5.450  12.491  0.6935  0.9754  0.3264
18781TIP3    H177834  -0.008   5.461  12.584  2.9739  0.2291  0.8765
18781TIP3    H277835   0.085   5.504  12.473  2.2991 -1.3277 -0.3351
18782TIP3   OH277836   6.207   3.624  13.739  0.2027  0.0910  0.3186
18782TIP3    H177837   6.134   3.562  13.733 -0.3060  0.7832 -1.2331
18782TIP3    H277838   6.169   3.708  13.713  1.7406  0.2817 -1.5398
18783TIP3   OH277839   1.373   3.684   0.606 -0.3800 -0.1589  0.5106
18783TIP3    H177840   1.381   3.692   0.511  0.7749 -3.0875  0.2420
18783TIP3    H277841   1.279   3.690   0.622 -0.5410  1.1619 -0.6898
18784TIP3   OH277842   2.373   5.189  13.882 -0.0998  0.1708 -0.4417
18784TIP3    H177843   2.323   5.268  13.901 -2.8974 -1.4375 -0.6499
18784TIP3    H277844   2.404   5.159  13.967 -1.3823  0.0499  0.0038
18785TIP3   OH277845   0.549   2.549  13.265 -0.4488 -0.1860 -0.1374
18785TIP3    H177846   0.486   2.525  13.198  2.2989 -1.4496 -2.4942
18785TIP3    H277847   0.547   2.645  13.267 -2.0590 -0.1926 -0.4810
18786TIP3   OH277848   3.358   2.036  13.652  0.1051 -0.6493 -0.1493
18786TIP3    H177849   3.428   2.065  13.711  0.0109 -1.6793  0.5046
18786TIP3    H277850   3.349   1.942  13.671  2.4478 -1.9224 -4.1835
18787TIP3   OH277851   5.376   5.679   5.497  0.5295 -0.0884  0.3313
18787TIP3    H177852   5.355   5.597   5.541 -0.7235 -0.5486 -1.0585
18787TIP3    H277853   5.401   5.738   5.568  0.6489 -1.4138  1.4352
18788TIP3   OH277854   3.964   3.407   2.681  0.1995 -0.0482 -0.2339
18788TIP3    H177855   4.048   3.365   2.662 -0.0813 -0.3537 -0.8169
18788TIP3    H277856   3.945   3.459   2.604 -0.7441 -0.9635 -0.6424
18789TIP3   OH277857   3.595   1.007   3.077 -0.5459 -0.0699 -0.8837
18789TIP3    H177858   3.637   0.922   3.090 -1.3967 -0.3760  0.0172
18789TIP3    H277859   3.564   1.005   2.986  1.9271  0.4443 -1.8012
18790TIP3   OH277860   5.750   3.626  12.186 -0.6857  0.2483  0.4673
18790TIP3    H177861   5.750   3.622  12.281  1.3048  2.4065  0.6491
18790TIP3    H277862   5.762   3.535  12.158 -1.9997 -0.5202  2.1995
18791TIP3   OH277863   4.369   4.337   2.797 -0.2708  0.1916  0.6014
18791TIP3    H177864   4.425   4.263   2.817  0.5725  0.4935 -0.5853
18791TIP3    H277865   4.370   4.345   2.702 -1.4724  0.8672  0.6157
18792TIP3   OH277866   3.637   4.193  12.241 -0.4178 -0.6146  0.1168
18792TIP3    H177867   3.711   4.180  12.300 -1.3256 -0.9394  1.2397
18792TIP3    H277868   3.578   4.251  12.290 -1.0925 -0.7092 -0.5696
18793TIP3   OH277869   5.966   6.386   5.242 -0.0300 -0.3066 -0.2540
18793TIP3    H177870   5.964   6.481   5.257  0.0553 -0.0589 -1.6585
18793TIP3    H277871   6.052   6.370   5.205 -0.1112 -0.9120 -0.1823
18794TIP3   OH277872   6.715   0.168  12.916  0.5339 -0.2748 -0.6817
18794TIP3    H177873   6.784   0.196  12.857 -1.0370 -0.3187 -2.6404
18794TIP3    H277874   6.682   0.249  12.956  1.4441 -0.2224 -0.0126
18795TIP3   OH277875   4.324   2.604   3.896 -0.3500 -0.0840 -0.3088
18795TIP3    H177876   4.361   2.518   3.916 -1.1549 -0.1370  1.0777
18795TIP3    H277877   4.309   2.644   3.981 -1.5974  0.7365 -0.8874
18796TIP3   OH277878   3.689   2.798   0.031 -0.3732  0.3723 -0.0964
18796TIP3    H177879   3.618   2.857   0.003  0.9743  1.3267 -1.7815
18796TIP3    H277880   3.679   2.720  -0.024 -0.9226 -0.0856  0.6468
18797TIP3   OH277881   1.046   5.934   0.754 -0.4841  0.4252 -0.0244
18797TIP3    H177882   1.066   5.981   0.673 -0.7094 -0.1186 -0.4046
18797TIP3    H277883   1.082   5.989   0.824  1.9996 -0.2726 -0.6443
18798TIP3   OH277884   4.316   3.754  14.579  0.4030  0.1508  0.2532
18798TIP3    H177885   4.340   3.675  14.627  0.1019 -0.4233 -0.5152
18798TIP3    H277886   4.221   3.756  14.582  0.2664 -0.7960 -1.6516
18799TIP3   OH277887   4.309   3.760  13.086  0.1980  0.4844  0.1091
18799TIP3    H177888   4.401   3.737  13.099  0.9360  3.2631  0.4579
18799TIP3    H277889   4.260   3.690  13.129  2.1213 -0.8431  0.2784
18800TIP3   OH277890   6.022   5.997  13.207 -0.2822 -0.4655 -0.4455
18800TIP3    H177891   5.977   5.915  13.227 -2.1376  0.7065  0.4750
18800TIP3    H277892   5.970   6.036  13.137  2.3342 -1.4035 -3.1092
18801TIP3   OH277893   1.029   0.757   1.539 -0.0838  0.1250 -0.1015
18801TIP3    H177894   0.956   0.816   1.555  0.4026  0.7014  0.0205
18801TIP3    H277895   0.989   0.678   1.503 -0.6647  0.7964 -0.9507
18802TIP3   OH277896   1.977   5.723  15.725 -0.4993 -0.3981 -0.0792
18802TIP3    H177897   1.957   5.679  15.808  0.2440 -0.5150  0.0466
18802TIP3    H277898   1.964   5.655  15.659 -3.1532  0.2347 -0.3166
18803TIP3   OH277899   3.460   6.665   0.934  0.5160 -0.1360 -0.6555
18803TIP3    H177900   3.372   6.703   0.942  0.5254 -0.0016 -1.1410
18803TIP3    H277901   3.509   6.729   0.883  0.7611 -0.4326 -0.7945
18804TIP3   OH277902   1.985   6.011   1.056  0.4472  0.0452  0.2069
18804TIP3    H177903   2.068   6.035   1.096 -0.0795  0.1724  1.2515
18804TIP3    H277904   1.939   6.094   1.044  0.4421 -0.0290 -0.3072
18805TIP3   OH277905   2.899   3.890  13.440  0.0622  0.4976 -0.2007
18805TIP3    H177906   2.903   3.969  13.492 -1.4910  0.7643 -0.4433
18805TIP3    H277907   2.846   3.829  13.492 -1.2177  0.6527 -1.2708
18806TIP3   OH277908   1.015   0.861  15.063  0.5014 -0.3132  0.2342
18806TIP3    H177909   0.979   0.859  14.974  0.8722 -0.8471  0.0942
18806TIP3    H277910   1.108   0.841  15.052  0.4737 -0.7498  0.7756
18807TIP3   OH277911   0.255   1.573  15.255 -0.5498 -0.1616 -0.5082
18807TIP3    H177912   0.249   1.484  15.220 -0.1999  0.1484 -1.3844
18807TIP3    H277913   0.232   1.629  15.181 -0.2369  0.4972 -0.1134
18808TIP3   OH277914   6.400   1.993   2.811 -0.4722 -0.4214 -0.2669
18808TIP3    H177915   6.462   2.061   2.836 -0.7751  0.9494 -2.8690
18808TIP3    H277916   6.330   2.000   2.876 -0.6438  2.0674 -0.5973
18809TIP3   OH277917   6.462   6.813  16.685  0.0686 -0.1540  0.3605
18809TIP3    H177918   6.435   6.897  16.722 -0.9800 -0.6524  0.7799
18809TIP3    H277919   6.398   6.750  16.718  1.7881 -1.4447  1.4672
18810TIP3   OH277920   6.459   0.877   2.128 -0.2934  0.2371 -0.2150
18810TIP3    H177921   6.521   0.949   2.139  1.4206 -1.2658  0.4834
18810TIP3    H277922   6.496   0.824   2.057  0.0065 -1.3883  1.0869
18811TIP3   OH277923   0.322   2.139   1.072  0.7015 -0.2078  0.3622
18811TIP3    H177924   0.252   2.174   1.126  0.0081 -1.3098  0.2069
18811TIP3    H277925   0.390   2.207   1.074  0.5859 -0.0805  2.3704
18812TIP3   OH277926   4.314   3.231  16.904 -0.6852  1.1496 -0.2819
18812TIP3    H177927   4.298   3.165  16.836 -0.2115  1.1588 -0.4081
18812TIP3    H277928   4.241   3.221  16.965 -0.7096  0.6245 -0.3912
18813TIP3   OH277929   2.205   3.807   2.286  0.0166 -0.1538  0.3764
18813TIP3    H177930   2.257   3.822   2.207  0.8955 -2.8750  0.3476
18813TIP3    H277931   2.213   3.713   2.303 -1.2718  0.1134  2.9488
18814TIP3   OH277932   2.206   6.714   0.244  0.4320  0.1723 -0.4165
18814TIP3    H177933   2.150   6.636   0.238 -0.8870  0.8242  1.9593
18814TIP3    H277934   2.278   6.688   0.300 -0.4809  0.8278  1.1362
18815TIP3   OH277935   6.287   6.507   2.668 -0.9583 -0.4356 -0.1147
18815TIP3    H177936   6.275   6.438   2.603 -0.6523 -1.2132  0.6248
18815TIP3    H277937   6.256   6.468   2.750 -1.1714  0.4577  0.2431
18816TIP3   OH277938   4.587   4.586  16.915  0.0463  0.0059  0.1221
18816TIP3    H177939   4.672   4.548  16.893 -0.9522 -0.4415 -3.5053
18816TIP3    H277940   4.587   4.673  16.874 -1.3227 -0.1156 -0.1996
18817TIP3   OH277941   3.796   2.113   3.572  0.0695  0.1487  0.4628
18817TIP3    H177942   3.742   2.178   3.527  0.3427  0.3681  0.4427
18817TIP3    H277943   3.780   2.032   3.524 -1.5829 -0.2012  1.5369
18818TIP3   OH277944   3.526   2.186   5.815  0.2449 -0.2630 -0.4776
18818TIP3    H177945   3.579   2.225   5.746  0.3136 -1.9702 -1.4587
18818TIP3    H277946   3.551   2.093   5.815 -1.3662 -0.7361  0.3188
18819TIP3   OH277947   2.231   3.024   2.708 -0.0604  0.2145  0.2107
18819TIP3    H177948   2.275   3.013   2.792 -0.2435 -0.2260  0.2523
18819TIP3    H277949   2.226   3.119   2.696  0.8259  0.2774  0.2391
18820TIP3   OH277950   6.462   1.559   0.259 -0.1652  0.4217  0.0016
18820TIP3    H177951   6.464   1.501   0.183  0.3858  0.0287  0.3088
18820TIP3    H277952   6.529   1.524   0.318 -1.6594 -0.2589  1.3811
18821TIP3   OH277953   1.179   0.434  15.172 -0.5216  0.3125  0.5255
18821TIP3    H177954   1.178   0.440  15.077 -0.3703 -0.9562  0.4337
18821TIP3    H277955   1.247   0.495  15.199 -2.0912  2.4311 -0.0072
18822TIP3   OH277956   5.562   3.436  14.839  1.0991  0.3310  0.5716
18822TIP3    H177957   5.567   3.463  14.930 -1.3459  0.3727  0.7579
18822TIP3    H277958   5.542   3.517  14.791  0.6068  0.0029  0.2245
18823TIP3   OH277959   3.791   0.241   3.114 -0.0473 -0.0120  0.1771
18823TIP3    H177960   3.766   0.270   3.026 -2.2708 -0.6647  0.5335
18823TIP3    H277961   3.814   0.322   3.159 -0.5623  0.5388 -0.5123
18824TIP3   OH277962   1.589   5.939  15.015  0.2942  0.6621 -0.3407
18824TIP3    H177963   1.681   5.914  15.023 -0.0406 -0.9094 -0.9647
18824TIP3    H277964   1.551   5.916  15.100  0.2534  0.1783 -0.4832
18825TIP3   OH277965   0.814   4.454   2.616  0.1463 -0.4790  0.1317
18825TIP3    H177966   0.881   4.444   2.684  0.7144 -0.2864 -0.3934
18825TIP3    H277967   0.855   4.509   2.550 -0.4145 -0.6452 -0.3639
18826TIP3   OH277968   2.704   2.732   2.734 -0.3272 -0.1556  0.5191
18826TIP3    H177969   2.765   2.793   2.692  0.3862 -0.3546  1.2378
18826TIP3    H277970   2.756   2.690   2.803 -0.4679 -2.4699 -0.7289
18827TIP3   OH277971   1.989   2.063   5.029  0.3094 -0.2662  0.3627
18827TIP3    H177972   1.991   1.981   4.981 -0.5938 -0.7853  1.1728
18827TIP3    H277973   2.017   2.129   4.965 -1.2756 -0.8644 -1.0290
18828TIP3   OH277974   0.570   2.272   0.833  0.0163  0.1242 -0.0488
18828TIP3    H177975   0.655   2.281   0.790 -0.2185 -0.5382 -0.6980
18828TIP3    H277976   0.509   2.321   0.777 -0.3680 -1.1013 -0.7437
18829TIP3   OH277977   0.699   4.200   1.379  0.3419 -0.5992  0.5001
18829TIP3    H177978   0.732   4.236   1.297  1.0171 -2.0345  0.0985
18829TIP3    H277979   0.776   4.188   1.434  0.4101 -2.7996  0.0302
18830TIP3   OH277980   5.071   4.960  15.816 -0.5646 -0.4386 -0.0589
18830TIP3    H177981   4.987   4.983  15.776  0.1327  0.8443 -0.8356
18830TIP3    H277982   5.130   5.030  15.790  0.0319  0.3047  2.9275
18831TIP3   OH277983   6.064   1.999  14.037  0.4165 -0.0756  0.4386
18831TIP3    H177984   6.100   1.987  13.949  2.2243  2.8138  0.6387
18831TIP3    H277985   6.038   2.091  14.040 -4.0616 -1.1177  1.5276
18832TIP3   OH277986   6.108   4.875  13.659  0.2658  0.4203 -0.4365
18832TIP3    H177987   6.064   4.838  13.582  2.5501 -1.4463 -0.9639
18832TIP3    H277988   6.142   4.959  13.628  0.2227  0.1832 -1.1487
18833TIP3   OH277989   3.679   2.549  13.414  0.2243  0.6402 -0.1053
18833TIP3    H177990   3.690   2.643  13.429  0.8174  0.7198 -0.9411
18833TIP3    H277991   3.768   2.518  13.394  0.0656 -0.1333  0.3731
18834TIP3   OH277992   1.840   3.368   6.447  0.1000 -0.4408  0.5108
18834TIP3    H177993   1.750   3.388   6.420  0.3005 -0.6086 -0.2903
18834TIP3    H277994   1.892   3.441   6.415  0.5278 -1.2370 -0.6757
18835TIP3   OH277995   1.360   6.560   5.640 -0.4229  0.2481 -0.1060
18835TIP3    H177996   1.266   6.556   5.627 -0.3261 -2.0338 -0.4226
18835TIP3    H277997   1.397   6.518   5.563  0.6191 -3.2203  2.0763
18836TIP3   OH277998   4.915   4.955  14.912 -0.0835 -0.1706 -0.2982
18836TIP3    H177999   4.900   5.049  14.919 -2.4335 -0.4474 -0.8989
18836TIP3    H278000   4.883   4.919  14.994 -0.7643 -0.5901 -0.7390
18837TIP3   OH278001   3.381   4.238  16.877  0.4712 -0.6424  0.7351
18837TIP3    H178002   3.423   4.163  16.835 -0.1965 -0.5761 -0.0622
18837TIP3    H278003   3.443   4.310  16.865  0.7591 -0.8770  0.8052
18838TIP3   OH278004   2.193   5.032   1.201 -0.3008  0.1813  0.3197
18838TIP3    H178005   2.145   5.085   1.137 -1.4874 -0.9872  0.1865
18838TIP3    H278006   2.140   5.037   1.280  0.8242  1.0928  1.0399
18839TIP3   OH278007   4.136   0.676  13.902 -0.4898 -0.4896 -0.0750
18839TIP3    H178008   4.073   0.749  13.906 -0.8739 -0.8645  2.5878
18839TIP3    H278009   4.083   0.598  13.916  0.4046 -0.9125  1.1129
18840TIP3   OH278010   2.896   2.249  15.815 -0.4911 -0.4633 -0.0062
18840TIP3    H178011   2.851   2.247  15.730 -0.4055 -0.5923 -0.0499
18840TIP3    H278012   2.891   2.340  15.843 -1.8436 -0.6938  0.5648
18841TIP3   OH278013   2.516   4.964  16.179  0.5341 -0.1867 -0.3105
18841TIP3    H178014   2.445   4.937  16.238  0.5751 -1.3606 -0.7740
18841TIP3    H278015   2.593   4.919  16.212  1.0127  0.8296 -0.0051
18842TIP3   OH278016   1.421   5.709   6.593  0.0047  0.2809  0.1544
18842TIP3    H178017   1.445   5.797   6.620  1.0470  0.4668 -1.2802
18842TIP3    H278018   1.341   5.690   6.642 -0.8519  2.4326 -0.2995
18843TIP3   OH278019   3.366   1.387   4.024 -0.0744 -0.9986  0.0100
18843TIP3    H178020   3.293   1.397   4.086  0.7568 -1.8133  1.1610
18843TIP3    H278021   3.340   1.314   3.968 -1.1511  0.1997 -1.1105
18844TIP3   OH278022   0.013   0.653   4.862 -0.1847 -0.4662 -0.1435
18844TIP3    H178023  -0.081   0.673   4.857  0.2800  2.3828  0.7718
18844TIP3    H278024   0.016   0.557   4.871 -2.9352 -0.7252 -0.8798
18845TIP3   OH278025   2.593   2.630   3.296 -0.4948  0.2122  0.2475
18845TIP3    H178026   2.622   2.689   3.227 -0.9387  0.6918  0.4613
18845TIP3    H278027   2.672   2.584   3.323 -0.1085  0.8215  0.1812
18846TIP3   OH278028   4.148   1.681  17.036  0.1251 -0.3071 -0.4162
18846TIP3    H178029   4.219   1.738  17.064 -0.8491  0.2398  1.1141
18846TIP3    H278030   4.070   1.717  17.081 -0.5214 -2.8267  0.6485
18847TIP3   OH278031   1.999   4.449  15.197 -0.2411  0.0611  0.4895
18847TIP3    H178032   1.966   4.513  15.134 -0.0795 -1.0995 -0.8125
18847TIP3    H278033   2.094   4.459  15.195 -0.2091 -0.2980  0.1969
18848TIP3   OH278034   4.533   0.697  11.759  0.5177  0.4712 -0.0377
18848TIP3    H178035   4.490   0.674  11.676 -1.0814  0.5707  0.7363
18848TIP3    H278036   4.464   0.690  11.825  1.5874  1.1065  1.1915
18849TIP3   OH278037   1.717   2.070   3.137  0.6189  0.2507  0.0862
18849TIP3    H178038   1.721   1.997   3.198 -0.1336 -0.2440 -0.4461
18849TIP3    H278039   1.722   2.148   3.193 -2.9906 -0.0848  1.1439
18850TIP3   OH278040   3.872   3.396  13.933 -0.2380 -0.4714  0.0764
18850TIP3    H178041   3.872   3.466  13.868  0.8631  1.3170  1.9024
18850TIP3    H278042   3.782   3.392  13.964 -0.2485  0.4034  0.1863
18851TIP3   OH278043   6.546   1.361  15.380  0.1821  0.3056 -0.0739
18851TIP3    H178044   6.466   1.400  15.345  0.2737 -1.3844 -2.4140
18851TIP3    H278045   6.515   1.303  15.450 -0.5911  0.2279 -0.4680
18852TIP3   OH278046   3.701   1.961  10.934 -0.5021  0.0776 -0.2366
18852TIP3    H178047   3.679   1.868  10.945 -1.2505  0.3369  0.5684
18852TIP3    H278048   3.745   1.965  10.849  2.1718 -1.4664  0.9608
18853TIP3   OH278049   3.599   0.377  14.627  0.2371 -0.1440  0.3287
18853TIP3    H178050   3.583   0.334  14.543 -0.3786 -2.1402  1.3777
18853TIP3    H278051   3.694   0.390  14.630  0.3117 -0.4224 -0.5072
18854TIP3   OH278052   2.703   1.152   3.759 -0.6146  0.4411  0.7326
18854TIP3    H178053   2.634   1.142   3.693 -1.1357 -0.4279  1.3739
18854TIP3    H278054   2.757   1.073   3.750  1.2505  1.8059 -0.7806
18855TIP3   OH278055   5.334   1.391  15.964 -0.0228  0.4275 -0.2690
18855TIP3    H178056   5.250   1.351  15.987  0.4422  0.3459  1.3900
18855TIP3    H278057   5.372   1.417  16.047  1.5980  0.5061 -0.9915
18856TIP3   OH278058   6.512   5.539   2.816  0.1474 -0.6851  0.2832
18856TIP3    H178059   6.544   5.505   2.899 -1.2442 -2.3951  0.1768
18856TIP3    H278060   6.456   5.613   2.841 -0.5139 -1.3794  0.9248
18857TIP3   OH278061   2.918   5.744   1.301  0.0886 -0.0018 -0.6784
18857TIP3    H178062   2.830   5.705   1.299  0.4670 -0.8830 -1.0101
18857TIP3    H278063   2.940   5.758   1.209  0.8871 -1.2325 -0.7060
18858TIP3   OH278064   1.593   1.115  12.011  0.1306  0.1208  0.6338
18858TIP3    H178065   1.498   1.124  12.020  0.0172 -1.7261  1.7566
18858TIP3    H278066   1.627   1.202  12.031 -1.3824  1.3880 -1.7718
18859TIP3   OH278067   5.665   4.724   4.094  0.8984  0.0330  0.2636
18859TIP3    H178068   5.645   4.782   4.167  0.5942  0.4508 -0.1409
18859TIP3    H278069   5.702   4.782   4.027 -0.7612  0.0394 -0.7098
18860TIP3   OH278070   1.269   5.259   2.274 -0.1447 -0.6906 -0.0583
18860TIP3    H178071   1.288   5.199   2.202 -2.1161  0.0303 -1.2893
18860TIP3    H278072   1.190   5.224   2.314 -1.5806  1.1863 -1.0651
18861TIP3   OH278073   5.502   0.525  15.943  0.4747  0.1044 -0.0697
18861TIP3    H178074   5.471   0.503  16.030 -2.1132  0.0581 -0.9217
18861TIP3    H278075   5.580   0.578  15.958 -1.7869  3.0857  2.4342
18862TIP3   OH278076   4.412   3.786   6.480 -0.3369  0.0604 -0.4983
18862TIP3    H178077   4.502   3.753   6.474  0.8233  2.5653  1.3379
18862TIP3    H278078   4.421   3.881   6.483 -2.9932  0.3715  0.6921
18863TIP3   OH278079   1.534   2.912  15.543  0.4799  0.5799  0.1327
18863TIP3    H178080   1.524   2.838  15.603  0.0620 -0.8473 -1.5857
18863TIP3    H278081   1.594   2.972  15.588  0.0295 -0.3167  2.0143
18864TIP3   OH278082   4.779   4.273  13.987  0.2183 -0.0065  0.1984
18864TIP3    H178083   4.833   4.227  14.050 -2.6851 -0.7356  2.3609
18864TIP3    H278084   4.696   4.289  14.032 -0.7235  2.8964 -2.1704
18865TIP3   OH278085   6.165   3.875  15.602  0.1479  0.4840 -0.2153
18865TIP3    H178086   6.175   3.823  15.682 -0.9372 -1.8598 -1.4843
18865TIP3    H278087   6.253   3.886  15.568  0.4432 -0.2039  0.3119
18866TIP3   OH278088   0.433   0.583   2.053 -0.6443  0.0247 -0.0148
18866TIP3    H178089   0.491   0.571   1.978  0.1232  0.4829  0.4900
18866TIP3    H278090   0.480   0.543   2.127  0.5702  3.1040  1.0584
18867TIP3   OH278091   3.684   6.586   5.227 -0.3888  0.7205 -0.9495
18867TIP3    H178092   3.724   6.672   5.245 -2.0922  1.1871  0.9934
18867TIP3    H278093   3.597   6.607   5.193 -1.3374 -0.1586  0.7720
18868TIP3   OH278094   2.865   1.384   6.237  0.3724 -0.0537  0.0655
18868TIP3    H178095   2.869   1.294   6.203 -1.4798  0.0181 -0.4329
18868TIP3    H278096   2.928   1.384   6.310  0.4028 -1.7543  0.0940
18869TIP3   OH278097   5.315   3.875  14.644 -0.2782  0.4817 -0.5987
18869TIP3    H178098   5.335   3.967  14.659 -0.1039  0.1602  1.2926
18869TIP3    H278099   5.219   3.870  14.646 -0.2697  0.2314  2.1654
18870TIP3   OH278100   0.671   4.901  10.815 -0.1276 -0.0596 -0.4410
18870TIP3    H178101   0.643   4.813  10.790  0.3836 -0.3999  0.1440
18870TIP3    H278102   0.762   4.889  10.843  0.4160  0.8941 -1.6969
18871TIP3   OH278103   3.812   0.145   5.735  0.7413  0.6643 -0.4089
18871TIP3    H178104   3.758   0.177   5.807 -0.0422  1.6282 -1.3871
18871TIP3    H278105   3.847   0.061   5.766 -1.4233 -0.0599  0.2304
18872TIP3   OH278106   6.589   2.291   3.216  0.3492 -0.2447 -0.3145
18872TIP3    H178107   6.639   2.210   3.205  0.0656 -0.3467 -0.9004
18872TIP3    H278108   6.592   2.308   3.310  0.1698 -1.0915 -0.1462
18873TIP3   OH278109   0.774   4.212  15.420 -0.4559  0.4699 -0.0314
18873TIP3    H178110   0.795   4.121  15.441 -1.3071  0.1636 -0.4772
18873TIP3    H278111   0.849   4.262  15.454  0.1417 -0.4128 -0.0162
18874TIP3   OH278112   4.310   0.954  16.658  0.2447  0.3388  0.3503
18874TIP3    H178113   4.282   1.045  16.658 -0.8626  0.0618  2.0553
18874TIP3    H278114   4.404   0.957  16.675  0.3832  1.1775 -0.5173
18875TIP3   OH278115   4.906   0.444   1.461 -0.2444  0.1609  0.2842
18875TIP3    H178116   4.906   0.429   1.366 -0.1330  1.9946 -0.0567
18875TIP3    H278117   4.921   0.358   1.499  1.5139 -0.3696 -1.4182
18876TIP3   OH278118   6.446   5.761  15.288  0.0711 -0.4764 -0.1790
18876TIP3    H178119   6.496   5.690  15.327  0.1046 -0.3768 -0.0390
18876TIP3    H278120   6.485   5.773  15.202 -0.3932 -1.0989 -0.4838
18877TIP3   OH278121   2.259   1.809   5.461 -1.0221  0.2790  0.0196
18877TIP3    H178122   2.181   1.789   5.513 -1.0039 -0.2856 -0.1604
18877TIP3    H278123   2.332   1.797   5.521 -1.1235  2.4000  0.6685
18878TIP3   OH278124   4.789   4.289   1.554  0.4128  0.4497  0.4724
18878TIP3    H178125   4.763   4.343   1.628  0.6748 -1.0326  1.6957
18878TIP3    H278126   4.715   4.229   1.541  1.4636 -1.0856  1.3211
18879TIP3   OH278127   3.550   2.822  16.106 -0.6964 -0.1823  0.2836
18879TIP3    H178128   3.628   2.830  16.159 -0.0439 -0.4395 -0.6112
18879TIP3    H278129   3.525   2.912  16.086  0.3948 -0.1137 -0.8666
18880TIP3   OH278130   6.186   4.875  14.079 -0.0094 -0.1971 -0.2052
18880TIP3    H178131   6.160   4.906  14.165 -2.6154  3.8196 -2.1258
18880TIP3    H278132   6.129   4.800  14.062 -2.3828  1.4235  0.1483
18881TIP3   OH278133   2.532   5.601   1.752  0.0449 -0.0414 -0.5528
18881TIP3    H178134   2.595   5.630   1.818  0.3164  1.0692 -1.2694
18881TIP3    H278135   2.514   5.679   1.700 -1.8566 -0.3613 -0.4468
18882TIP3   OH278136   0.806   4.912  12.500 -0.1210  0.2310 -0.5358
18882TIP3    H178137   0.877   4.849  12.513 -0.0742  0.4249  0.2200
18882TIP3    H278138   0.851   4.995  12.479 -0.1496  0.1888 -0.7588
18883TIP3   OH278139   1.510   2.421  12.222  0.3542 -0.0400 -0.2354
18883TIP3    H178140   1.460   2.389  12.146 -1.2949  0.7844  0.4632
18883TIP3    H278141   1.545   2.341  12.262  0.6011 -0.5431 -1.4023
18884TIP3   OH278142   6.512   0.497   5.330  0.0259 -0.2799  0.2994
18884TIP3    H178143   6.559   0.546   5.262  0.6349 -0.4883  0.5636
18884TIP3    H278144   6.420   0.520   5.316  0.2160  0.2677 -0.1229
18885TIP3   OH278145   2.649   5.945  11.300  0.1299  0.5154  0.1822
18885TIP3    H178146   2.626   5.944  11.207  0.4979 -0.8373  0.0819
18885TIP3    H278147   2.577   5.990  11.343 -0.7825 -0.1877 -0.5842
18886TIP3   OH278148   0.649   2.738   3.574  0.4078  0.1063 -0.5145
18886TIP3    H178149   0.623   2.745   3.482 -1.0458 -2.2876 -0.3526
18886TIP3    H278150   0.632   2.647   3.597 -0.3238  0.8968  2.4576
18887TIP3   OH278151   6.337   6.590  14.290  0.5247 -0.0200 -0.2703
18887TIP3    H178152   6.415   6.537  14.300  0.2544 -0.2223  0.9559
18887TIP3    H278153   6.269   6.529  14.264  0.1738 -0.3500  1.3081
18888TIP3   OH278154   0.897   1.506  15.359  0.2061  0.3726  0.5206
18888TIP3    H178155   0.919   1.529  15.449  1.3860  2.0644 -0.1445
18888TIP3    H278156   0.964   1.549  15.306 -2.1696  2.0629 -1.3593
18889TIP3   OH278157   3.558   2.826   2.717  0.2399 -0.1611 -0.2064
18889TIP3    H178158   3.651   2.820   2.697  0.2643 -0.2085 -0.0835
18889TIP3    H278159   3.523   2.740   2.693  0.1193  0.0579 -0.8022
18890TIP3   OH278160   5.795   1.563   3.159 -0.4186 -0.6005 -0.7076
18890TIP3    H178161   5.769   1.471   3.147 -1.6575 -0.3526 -0.1238
18890TIP3    H278162   5.728   1.613   3.112 -1.2126  0.0793  1.0471
18891TIP3   OH278163   0.716   4.562  12.745  0.6309  0.0932  0.2104
18891TIP3    H178164   0.768   4.642  12.747  2.0357 -0.7745  0.3410
18891TIP3    H278165   0.626   4.591  12.731  1.5315  1.5471 -4.3677
18892TIP3   OH278166   2.459   3.476   2.340 -0.3028  0.2774  0.4846
18892TIP3    H178167   2.381   3.514   2.379 -0.1911 -1.0879  2.1678
18892TIP3    H278168   2.444   3.381   2.345  0.5765  0.0196 -1.0784
18893TIP3   OH278169   4.423   6.302  13.904 -0.5710  0.6005  0.1353
18893TIP3    H178170   4.453   6.373  13.847 -0.9020 -0.3843 -1.2843
18893TIP3    H278171   4.504   6.261  13.935 -0.3932  1.1940  0.4940
18894TIP3   OH278172   6.513   5.128  13.569 -0.9803 -0.7546 -0.5435
18894TIP3    H178173   6.530   5.034  13.572 -0.6871 -0.6896  1.8811
18894TIP3    H278174   6.561   5.163  13.644 -1.4962  1.2723 -1.1101
18895TIP3   OH278175   1.783   4.870   1.682 -0.1198  0.2013 -0.7710
18895TIP3    H178176   1.804   4.823   1.762 -0.9925 -2.0111 -1.7759
18895TIP3    H278177   1.760   4.958   1.712 -0.8049 -0.6525  1.4526
18896TIP3   OH278178   4.535   4.324   0.258  0.4658 -0.5447  0.0133
18896TIP3    H178179   4.512   4.369   0.177 -1.9401  0.5636  1.1935
18896TIP3    H278180   4.534   4.231   0.236 -4.0850 -0.5791 -0.5094
18897TIP3   OH278181   0.163   4.724   0.338  0.4915  0.5566  0.5475
18897TIP3    H178182   0.178   4.805   0.388  0.1700  0.0865  1.4291
18897TIP3    H278183   0.078   4.738   0.296  0.3020  0.5686  0.9295
18898TIP3   OH278184   2.600   2.223   5.832 -0.4506 -0.2454  1.1536
18898TIP3    H178185   2.683   2.180   5.808 -0.9171 -0.3697 -0.3212
18898TIP3    H278186   2.627   2.308   5.867  0.2972  0.1534 -0.2791
18899TIP3   OH278187   6.438   3.474   1.015  0.1816 -0.5338  0.1022
18899TIP3    H178188   6.469   3.540   0.952 -0.6136  0.9158  1.1641
18899TIP3    H278189   6.373   3.424   0.966  0.0158  0.1650 -0.4227
18900TIP3   OH278190   3.554   6.729  11.453 -1.0107 -0.1600  0.4416
18900TIP3    H178191   3.540   6.634  11.451 -3.1948  0.0781 -1.7617
18900TIP3    H278192   3.466   6.766  11.466 -0.2436  1.5651  1.0525
18901TIP3   OH278193   6.159   5.151   5.544 -0.3322  0.1534  0.2803
18901TIP3    H178194   6.115   5.122   5.624  0.3962 -0.6554  0.3997
18901TIP3    H278195   6.240   5.192   5.575  0.7393 -1.5971 -0.0957
18902TIP3   OH278196   4.868   3.898   1.734  0.0591  0.0587 -0.2066
18902TIP3    H178197   4.898   3.914   1.644 -0.1117  1.0859 -0.0995
18902TIP3    H278198   4.929   3.833   1.768 -1.2315 -2.1149 -1.7885
18903TIP3   OH278199   4.563   3.635  13.876  0.7014 -0.1943  0.7332
18903TIP3    H178200   4.520   3.648  13.791  0.4431  0.5741  0.9812
18903TIP3    H278201   4.516   3.692  13.936  1.7769  0.3209  1.1058
18904TIP3   OH278202   3.204   4.927   0.251  0.6384 -0.3881  0.7321
18904TIP3    H178203   3.138   4.878   0.302 -1.8224  1.6391 -0.2773
18904TIP3    H278204   3.222   5.005   0.303 -0.8874  1.0437 -0.7594
18905TIP3   OH278205   0.339   4.190   1.839 -0.3390  0.0559  0.2101
18905TIP3    H178206   0.321   4.266   1.783  0.2767  0.8721  1.0899
18905TIP3    H278207   0.386   4.226   1.914 -0.0350 -1.2066  0.6482
18906TIP3   OH278208   0.459   3.746   4.022 -0.8089  0.1960 -0.4701
18906TIP3    H178209   0.488   3.771   3.934 -1.8578 -0.5202 -1.0319
18906TIP3    H278210   0.521   3.679   4.050 -0.7842  0.0510 -0.8755
18907TIP3   OH278211   5.902   3.061   3.227 -0.6482 -0.5217 -0.4457
18907TIP3    H178212   5.883   3.082   3.136 -0.6613 -1.2598 -0.6225
18907TIP3    H278213   5.974   3.119   3.251 -0.8732 -0.0874 -0.8184
18908TIP3   OH278214   5.012   5.795  13.171 -0.2821 -0.3582  0.5183
18908TIP3    H178215   4.986   5.744  13.248 -0.9177 -0.3591  0.3090
18908TIP3    H278216   4.959   5.759  13.100  0.6594 -0.7021 -0.0306
18909TIP3   OH278217   3.423   0.015  15.282 -0.0998  0.3811 -0.3430
18909TIP3    H178218   3.424  -0.038  15.203  3.0061 -0.0665 -0.1294
18909TIP3    H278219   3.340  -0.007  15.325 -0.6375 -1.3561 -2.1500
18910TIP3   OH278220   6.532   0.450  15.894 -0.9586  0.4805 -0.1174
18910TIP3    H178221   6.574   0.452  15.980  1.5947 -1.9609 -1.1324
18910TIP3    H278222   6.463   0.515  15.899 -1.0671  0.2906  3.8414
18911TIP3   OH278223   4.477   2.083   3.106 -0.6319 -0.4047 -0.0928
18911TIP3    H178224   4.484   2.087   3.201  0.2056  2.6485 -0.1848
18911TIP3    H278225   4.399   2.134   3.085 -0.6095 -0.7368 -1.0645
18912TIP3   OH278226   0.159   1.920   5.568  0.2701  0.4981  0.0457
18912TIP3    H178227   0.069   1.953   5.570  0.0389 -0.0552 -0.8621
18912TIP3    H278228   0.150   1.825   5.575  0.9112  0.5421  2.2126
18913TIP3   OH278229   0.666   2.593  14.575  0.0994  0.5239 -0.0758
18913TIP3    H178230   0.690   2.510  14.534  1.5951  1.6635 -1.6541
18913TIP3    H278231   0.579   2.612  14.541 -0.5362 -0.6583  0.7984
18914TIP3   OH278232   1.143   3.090  13.054 -0.3583 -0.6529  0.1343
18914TIP3    H178233   1.078   3.057  12.992  0.5922 -0.0314 -1.2438
18914TIP3    H278234   1.206   3.019  13.063  0.0247 -0.3872 -0.3956
18915TIP3   OH278235   6.506   5.457  15.094  0.4194  0.1239  0.0238
18915TIP3    H178236   6.550   5.393  15.150 -0.3059 -1.4071 -1.0920
18915TIP3    H278237   6.418   5.466  15.132  0.3247  0.0078 -0.1683
18916TIP3   OH278238   0.200   2.745   6.560 -0.5959 -0.0796 -0.3078
18916TIP3    H178239   0.215   2.812   6.626 -1.5531 -2.2910  2.3086
18916TIP3    H278240   0.261   2.675   6.582 -1.6977 -1.3306 -1.1103
18917TIP3   OH278241   0.202   3.301   0.799 -0.1116  0.4953 -0.2018
18917TIP3    H178242   0.291   3.336   0.800 -0.1412  0.6027 -0.9659
18917TIP3    H278243   0.202   3.238   0.726 -0.6190  0.3818 -0.1035
18918TIP3   OH278244   1.772   5.753   0.770 -0.4643  0.3124  0.3746
18918TIP3    H178245   1.708   5.742   0.840 -2.4632  1.1300 -1.2545
18918TIP3    H278246   1.856   5.762   0.816 -1.5173 -0.4566  2.5749
18919TIP3   OH278247   1.023   2.589   1.242  0.4994 -0.3368  0.4933
18919TIP3    H178248   1.113   2.617   1.225 -0.0787  1.0360 -0.5112
18919TIP3    H278249   0.974   2.617   1.164 -0.4780 -2.6836  0.1687
18920TIP3   OH278250   3.203   6.334  13.086 -0.1333 -0.1295 -0.2836
18920TIP3    H178251   3.192   6.423  13.121  0.4219  0.4318 -1.4706
18920TIP3    H278252   3.298   6.323  13.079 -0.2215 -0.2243 -1.5630
18921TIP3   OH278253   1.324   1.269   1.796 -0.1033  0.1179  0.5201
18921TIP3    H178254   1.357   1.296   1.710  0.6016 -0.6089  0.5522
18921TIP3    H278255   1.369   1.187   1.814  0.2176  0.5664  1.8512
18922TIP3   OH278256   5.777   4.791  16.133 -0.2867 -0.5207  0.5858
18922TIP3    H178257   5.691   4.784  16.174 -0.9362  2.6513  0.0807
18922TIP3    H278258   5.759   4.818  16.043  1.2361 -1.3917 -0.0231
18923TIP3   OH278259   4.703   1.904  16.316 -0.0198  0.4128  0.6877
18923TIP3    H178260   4.649   1.980  16.296  1.3995  1.2716 -0.1238
18923TIP3    H278261   4.643   1.829  16.312 -0.7687  1.0387 -2.4345
18924TIP3   OH278262   2.779   2.537  13.635 -0.4124  0.1453  0.0358
18924TIP3    H178263   2.758   2.588  13.713  0.7810  1.7719 -0.6653
18924TIP3    H278264   2.736   2.452  13.650 -1.3781  0.8934  1.8057
18925TIP3   OH278265   5.359   4.070   5.277 -0.3016  1.0274 -0.0734
18925TIP3    H178266   5.296   4.028   5.336  1.9808 -2.1578  0.3381
18925TIP3    H278267   5.305   4.111   5.209 -2.8297 -0.9795  0.5834
18926TIP3   OH278268   5.942   6.569   5.830 -0.5576 -0.3809 -0.2574
18926TIP3    H178269   5.991   6.500   5.874 -0.2070 -0.9333 -1.4792
18926TIP3    H278270   5.852   6.536   5.826 -0.8138  0.1231  0.9372
18927TIP3   OH278271   3.664   1.572   2.518 -0.7924  0.6270 -0.3023
18927TIP3    H178272   3.740   1.513   2.524 -0.2487  1.1738 -1.4495
18927TIP3    H278273   3.645   1.596   2.609 -0.3391 -0.4565  0.0907
18928TIP3   OH278274   0.009   4.475   0.702  0.1580 -0.2255  0.3804
18928TIP3    H178275  -0.047   4.547   0.675 -0.1730 -0.1459  1.2631
18928TIP3    H278276   0.015   4.419   0.624  0.1553  0.5817 -0.2042
18929TIP3   OH278277   2.932   2.770  14.963 -0.6384 -0.0709  0.0711
18929TIP3    H178278   2.916   2.768  15.057 -0.6057  0.7618  0.1009
18929TIP3    H278279   2.960   2.681  14.942  1.1190  0.1719  1.1794
18930TIP3   OH278280   4.864   0.798  15.534 -0.3470  0.0161 -0.1403
18930TIP3    H178281   4.843   0.804  15.627 -0.3021  0.7991 -0.1765
18930TIP3    H278282   4.789   0.752  15.496 -0.3121 -0.4066  0.2997
18931TIP3   OH278283   0.400   5.131   3.597 -0.6321 -0.5748  0.6380
18931TIP3    H178284   0.464   5.061   3.585  0.6086  0.6767 -0.3759
18931TIP3    H278285   0.374   5.155   3.507  1.8245  2.7453  0.6206
18932TIP3   OH278286   2.742   0.461   1.946  0.4863 -0.0578 -0.3942
18932TIP3    H178287   2.671   0.464   1.882  0.4399  1.1361 -0.3041
18932TIP3    H278288   2.718   0.388   2.003  0.3382 -0.9033 -1.4993
18933TIP3   OH278289   3.310   2.719  14.168  0.3873 -0.2924  0.2288
18933TIP3    H178290   3.279   2.704  14.079  0.1642  0.3180  0.1957
18933TIP3    H278291   3.293   2.637  14.214 -1.9159  0.2084  0.4018
18934TIP3   OH278292   5.524   1.991  12.104  0.1706  0.3622  0.1068
18934TIP3    H178293   5.494   2.019  12.018  0.4398 -0.3202 -0.2222
18934TIP3    H278294   5.455   2.017  12.164  0.0961  1.0697 -0.2785
18935TIP3   OH278295   3.838   4.211  12.413 -0.1673 -0.6111 -0.3731
18935TIP3    H178296   3.837   4.306  12.405  0.9179 -0.6587 -1.2331
18935TIP3    H278297   3.926   4.190  12.444  0.2795 -1.4566 -2.1200
18936TIP3   OH278298   0.893   1.055   0.919  0.6338  0.2952  0.1160
18936TIP3    H178299   0.860   1.125   0.863  1.5448  0.2362 -0.5283
18936TIP3    H278300   0.955   1.099   0.978  0.6215  0.1543  0.2352
18937TIP3   OH278301   5.656   5.546   3.279  0.2213  0.0532  0.1077
18937TIP3    H178302   5.733   5.490   3.265 -0.0098 -0.4671  0.8588
18937TIP3    H278303   5.661   5.571   3.371 -0.3335  0.2809  0.0770
18938TIP3   OH278304   3.349   3.051  14.999 -0.1449  0.0550  0.3884
18938TIP3    H178305   3.361   3.011  15.085  0.2903 -0.1307  0.2480
18938TIP3    H278306   3.376   2.983  14.937  4.1103  1.6000  0.1882
18939TIP3   OH278307   5.083   1.077   5.492  0.8384 -0.0407  0.3508
18939TIP3    H178308   5.083   1.014   5.420 -1.3531  0.7901 -0.4710
18939TIP3    H278309   5.015   1.045   5.551  0.5941  0.8559  0.5674
18940TIP3   OH278310   5.637   5.836  13.918 -0.6787 -0.5669 -0.1753
18940TIP3    H178311   5.549   5.829  13.883 -0.5595 -0.4152 -0.5094
18940TIP3    H278312   5.662   5.928  13.904 -1.1783 -0.1042  1.6446
18941TIP3   OH278313   2.623   5.101   0.355 -0.0545 -0.1173 -0.3894
18941TIP3    H178314   2.632   5.134   0.444  0.2281 -1.2389  0.0096
18941TIP3    H278315   2.553   5.155   0.316 -1.5552 -0.8733  1.1328
18942TIP3   OH278316   6.719   2.645   0.995  0.1151 -0.3271 -0.4700
18942TIP3    H178317   6.807   2.681   0.999 -0.0243 -0.1038  1.2084
18942TIP3    H278318   6.705   2.626   0.902  0.1209  4.0581 -1.5804
18943TIP3   OH278319   6.485   6.800  12.853  0.7950  0.2641 -0.1417
18943TIP3    H178320   6.467   6.712  12.889  1.6744 -0.3392 -1.1213
18943TIP3    H278321   6.563   6.829  12.900 -1.1038  1.8334  2.3189
18944TIP3   OH278322   0.369   2.508   6.563  0.2613  0.4954 -0.7708
18944TIP3    H178323   0.355   2.419   6.529 -1.1308  0.1304  0.6611
18944TIP3    H278324   0.463   2.522   6.556  0.6245 -1.4374 -0.2358
18945TIP3   OH278325   1.316   3.616   6.468  0.6923  0.3034 -0.2969
18945TIP3    H178326   1.283   3.576   6.388 -0.7009  1.1858 -0.1930
18945TIP3    H278327   1.258   3.584   6.537  1.3830  0.1876  0.2435
18946TIP3   OH278328   2.844   3.537   4.034 -0.2010 -0.6843 -0.3608
18946TIP3    H178329   2.894   3.480   3.976 -0.5796 -1.3327 -0.0637
18946TIP3    H278330   2.817   3.480   4.105  0.2201  0.0898  0.4405
18947TIP3   OH278331   5.324   4.413   1.486 -0.0651 -0.6418  0.3039
18947TIP3    H178332   5.374   4.361   1.548  0.0844  0.6951  1.3598
18947TIP3    H278333   5.329   4.502   1.520  0.6892  0.2982 -2.0458
18948TIP3   OH278334   3.160   1.900   0.676  0.8696 -0.1384  0.3144
18948TIP3    H178335   3.165   1.904   0.580 -0.2742 -0.0005  0.2462
18948TIP3    H278336   3.066   1.902   0.695  1.0983  1.5787  1.5159
18949TIP3   OH278337   4.676   0.855   3.420 -0.0304 -0.7477  0.3985
18949TIP3    H178338   4.670   0.834   3.514 -0.5242  1.3888  0.9039
18949TIP3    H278339   4.766   0.886   3.409  1.3259 -4.5145 -0.7392
18950TIP3   OH278340   6.339   3.576   5.614 -0.4168  0.2954  0.3542
18950TIP3    H178341   6.379   3.624   5.541 -1.7185 -1.9040 -1.9400
18950TIP3    H278342   6.245   3.592   5.605 -0.8894 -2.4475 -0.4344
18951TIP3   OH278343   5.497   6.342   6.044 -0.8393 -0.4224  0.2965
18951TIP3    H178344   5.415   6.318   6.089  0.3530  0.0472  2.9433
18951TIP3    H278345   5.525   6.422   6.087  0.2480  0.3057 -1.6577
18952TIP3   OH278346   5.404   0.786   4.018 -0.4471  0.2119 -0.1290
18952TIP3    H178347   5.496   0.796   3.996 -0.0459 -3.9421 -1.2761
18952TIP3    H278348   5.357   0.829   3.947  0.6509  0.4941 -0.7002
18953TIP3   OH278349   6.481   5.326   6.143 -0.3769  0.3072 -0.5271
18953TIP3    H178350   6.424   5.296   6.214 -1.4725 -0.7900 -1.8240
18953TIP3    H278351   6.522   5.405   6.178 -1.4327  0.2041  1.0583
18954TIP3   OH278352   6.085   1.749  14.311  0.2150  0.3058  0.5026
18954TIP3    H178353   6.169   1.789  14.289  0.3345 -0.0656  0.2809
18954TIP3    H278354   6.107   1.677  14.370 -0.0280  0.7524  1.1455
18955TIP3   OH278355   3.893   5.223   1.672  0.5589 -1.0955  0.6088
18955TIP3    H178356   3.877   5.141   1.626 -0.7896 -0.6204  0.1529
18955TIP3    H278357   3.845   5.289   1.620  1.9527  0.0554  0.7147
18956TIP3   OH278358   4.866   3.725   2.971 -0.0545 -0.5569 -0.1684
18956TIP3    H178359   4.911   3.713   3.054  0.7422 -1.3321 -0.6882
18956TIP3    H278360   4.802   3.654   2.967  0.6445 -1.1678 -0.6793
18957TIP3   OH278361   4.739   2.625   1.909  0.1471 -0.3524 -0.0421
18957TIP3    H178362   4.741   2.701   1.967  2.0837 -0.6688  0.3796
18957TIP3    H278363   4.795   2.649   1.836 -0.6778 -0.7147 -0.8147
18958TIP3   OH278364   0.810   6.046   1.900  0.1117  0.1102 -0.0164
18958TIP3    H178365   0.780   6.076   1.814 -1.0876 -0.7507  0.0780
18958TIP3    H278366   0.778   5.956   1.907 -0.1769  0.2953  1.4902
18959TIP3   OH278367   3.760   0.003  11.300  0.2223  0.0213 -0.0740
18959TIP3    H178368   3.734  -0.043  11.221  1.2410 -1.0499  0.1888
18959TIP3    H278369   3.709  -0.037  11.370  0.4419 -0.0930  0.0231
18960TIP3   OH278370   3.475   3.230   4.755  0.2905 -0.3877  0.0382
18960TIP3    H178371   3.549   3.181   4.720 -0.1527 -1.0087 -0.0508
18960TIP3    H278372   3.468   3.306   4.698 -0.4139 -1.3844 -1.2489
18961TIP3   OH278373   0.717   6.188   4.818 -0.1728  0.2155 -0.4644
18961TIP3    H178374   0.625   6.199   4.842 -0.2103 -0.4248 -0.3093
18961TIP3    H278375   0.745   6.110   4.864  0.5085  0.5164 -0.3624
18962TIP3   OH278376   3.393   0.189  12.884 -0.1932  0.1871  0.1269
18962TIP3    H178377   3.444   0.270  12.877  1.5985 -0.8925  0.1445
18962TIP3    H278378   3.323   0.210  12.946 -0.0521  1.8435 -0.2182
18963TIP3   OH278379   4.671   3.771  12.648  0.1321 -0.3803  0.0896
18963TIP3    H178380   4.695   3.681  12.672  1.0454 -1.1450 -3.1846
18963TIP3    H278381   4.687   3.776  12.554 -2.4164  2.4614 -0.3566
18964TIP3   OH278382   3.603   2.235   4.707 -0.1612  0.2889  0.1459
18964TIP3    H178383   3.559   2.316   4.681  0.6595  1.1034  1.2010
18964TIP3    H278384   3.696   2.252   4.691 -0.1565 -1.4082 -2.0568
18965TIP3   OH278385   3.799   0.321  12.432  0.5116 -0.1319 -0.4262
18965TIP3    H178386   3.792   0.305  12.338 -2.8720  0.4288 -0.4058
18965TIP3    H278387   3.807   0.234  12.471  0.5697 -0.4619 -1.1600
18966TIP3   OH278388   6.689   6.407  16.783  0.3038  0.2192 -0.0542
18966TIP3    H178389   6.716   6.334  16.727  2.3688  1.9191 -1.4115
18966TIP3    H278390   6.710   6.378  16.872 -0.7826 -1.5844 -0.3317
18967TIP3   OH278391   2.777   2.726  16.350 -0.0448  0.2135  0.2665
18967TIP3    H178392   2.822   2.654  16.305 -0.7644  1.4722 -2.7543
18967TIP3    H278393   2.707   2.684  16.400 -1.0546 -1.2258 -2.1645
18968TIP3   OH278394   0.388   4.462  15.339  0.0590 -0.0421  0.1661
18968TIP3    H178395   0.370   4.555  15.353  0.0885 -0.0721  0.4099
18968TIP3    H278396   0.322   4.435  15.275 -0.1679  0.0696  0.3485
18969TIP3   OH278397   4.944   3.393  11.004 -0.1213 -0.3080  0.1805
18969TIP3    H178398   4.854   3.371  11.025 -0.1128 -0.7243 -0.2012
18969TIP3    H278399   4.996   3.364  11.079 -0.1273 -1.4589 -0.2463
18970TIP3   OH278400   2.213   5.483   0.251  0.2752 -0.2358 -0.1346
18970TIP3    H178401   2.293   5.479   0.200  1.7832 -0.4854  2.0985
18970TIP3    H278402   2.198   5.577   0.265 -1.4162 -0.0221 -2.7714
18971TIP3   OH278403   2.671   3.500   3.245 -0.5179 -0.1078  0.1317
18971TIP3    H178404   2.733   3.483   3.317  0.5795 -0.4442 -0.8514
18971TIP3    H278405   2.661   3.595   3.243 -0.6651 -0.1062  0.8114
18972TIP3   OH278406   6.124   3.052   5.554  0.0381 -0.7523  0.2368
18972TIP3    H178407   6.150   3.052   5.646  2.0338 -1.5146 -0.2724
18972TIP3    H278408   6.189   2.997   5.511 -2.8370 -3.4124 -1.1420
18973TIP3   OH278409   1.104   5.755   2.551  0.6527 -0.2332  0.3887
18973TIP3    H178410   1.041   5.812   2.593  0.6760  0.1429 -0.0827
18973TIP3    H278411   1.126   5.690   2.618  1.8596  1.2499  1.4885
18974TIP3   OH278412   4.374   6.401  12.386 -0.7645 -0.6209 -0.3741
18974TIP3    H178413   4.380   6.475  12.447  1.6171  0.5678 -1.8668
18974TIP3    H278414   4.281   6.392  12.368 -1.4135 -0.1649  2.3568
18975TIP3   OH278415   5.934   2.661   6.412  0.2118  0.5568  0.1450
18975TIP3    H178416   5.858   2.685   6.465 -1.1415 -0.0549 -1.3981
18975TIP3    H278417   5.966   2.744   6.378  0.2505  0.8293  0.8426
18976TIP3   OH278418   0.895   3.873  16.191 -0.0209  0.0429  0.4264
18976TIP3    H178419   0.830   3.938  16.219 -1.1796 -1.3955  1.1720
18976TIP3    H278420   0.894   3.878  16.096 -1.2138  0.0727  0.4302
18977TIP3   OH278421   0.362   2.528   1.078  0.0691  0.4621 -0.0520
18977TIP3    H178422   0.319   2.499   0.998  0.1812 -0.8097  0.3354
18977TIP3    H278423   0.445   2.565   1.048 -0.0863  0.4048 -0.5611
18978TIP3   OH278424   5.150   3.221  15.560 -0.2669 -0.5869 -0.1840
18978TIP3    H178425   5.130   3.142  15.610 -0.0347 -0.0634  0.7604
18978TIP3    H278426   5.146   3.292  15.625 -0.0494  0.1224 -0.9286
18979TIP3   OH278427   4.953   3.768   3.687 -0.0735 -0.9420 -0.1226
18979TIP3    H178428   4.993   3.796   3.605  2.7644 -2.0304  0.7705
18979TIP3    H278429   4.937   3.675   3.675 -1.2610 -0.7603 -0.0204
18980TIP3   OH278430   0.242   3.689  12.763  0.0639 -0.5724 -0.1811
18980TIP3    H178431   0.335   3.713  12.754  0.4181 -1.8952 -0.2739
18980TIP3    H278432   0.199   3.737  12.692  0.6623  0.1174 -0.0965
18981TIP3   OH278433   5.518   2.062  15.468 -0.2643 -0.2522  0.2535
18981TIP3    H178434   5.457   1.992  15.447 -0.2731  0.4908 -2.5587
18981TIP3    H278435   5.599   2.038  15.424  0.0838  0.9290  0.1909
18982TIP3   OH278436   2.858   2.237   1.626  0.2072  0.2363 -0.7761
18982TIP3    H178437   2.776   2.204   1.590 -0.6979  2.0917 -0.5416
18982TIP3    H278438   2.923   2.220   1.558 -0.2275 -1.7321 -0.7601
18983TIP3   OH278439   1.921   2.709   3.514  0.4583 -0.2283  0.4092
18983TIP3    H178440   1.839   2.718   3.465  1.7462 -1.4703 -2.1770
18983TIP3    H278441   1.963   2.795   3.505  0.1725 -0.0955  0.3196
18984TIP3   OH278442   3.215   6.264  15.761 -0.0735 -0.0277 -0.4282
18984TIP3    H178443   3.134   6.314  15.750 -0.6516 -0.8180  0.1186
18984TIP3    H278444   3.258   6.268  15.676 -0.1884  1.2409 -0.4460
18985TIP3   OH278445   0.186   2.260   4.919 -0.0426 -0.7446 -0.4547
18985TIP3    H178446   0.105   2.215   4.943  0.2504 -2.0629 -1.8174
18985TIP3    H278447   0.173   2.287   4.828  0.1326  1.2410  0.0520
18986TIP3   OH278448   4.909   0.968  11.526 -0.3791 -0.0350  0.1474
18986TIP3    H178449   4.892   1.047  11.475  1.0758  0.1460 -0.1063
18986TIP3    H278450   5.000   0.976  11.553 -0.1234 -1.7467 -0.0909
18987TIP3   OH278451   2.022   3.847  13.143  0.2832  0.3765  0.2364
18987TIP3    H178452   2.041   3.760  13.176 -0.8284  0.2348  0.5617
18987TIP3    H278453   1.993   3.896  13.220  1.3733  1.1911  0.1541
18988TIP3   OH278454   5.096   2.752  12.724 -0.1839 -0.8389  0.8077
18988TIP3    H178455   5.027   2.789  12.667  0.0438 -0.8009  0.5559
18988TIP3    H278456   5.087   2.801  12.806  0.3750  0.0782  0.3430
18989TIP3   OH278457   6.082   2.720  12.360  0.0748 -0.0330 -1.0083
18989TIP3    H178458   6.073   2.693  12.269  0.7481  0.3034 -1.1791
18989TIP3    H278459   6.166   2.766  12.364 -0.3223  0.6693 -0.4010
18990TIP3   OH278460   4.984   5.799  16.030  0.4492  0.6998  0.1924
18990TIP3    H178461   4.999   5.739  16.103 -1.5584  1.4945  1.3443
18990TIP3    H278462   4.992   5.744  15.952  0.7566 -0.6028  1.0987
18991TIP3   OH278463   1.887   4.826  14.448  0.0461  0.1317  0.3608
18991TIP3    H178464   1.945   4.774  14.503 -0.0926  0.8025  1.1671
18991TIP3    H278465   1.940   4.902  14.424 -0.1660  0.2476  0.2616
18992TIP3   OH278466   2.466   6.651   4.980 -0.4559  0.0166  0.2128
18992TIP3    H178467   2.522   6.591   5.030 -0.9107  0.5356  1.3645
18992TIP3    H278468   2.388   6.600   4.960 -1.0122  0.3132  1.5300
18993TIP3   OH278469   4.760   3.421   4.913  0.7355 -0.2000  0.1380
18993TIP3    H178470   4.673   3.427   4.953  0.3036  1.9565 -0.9692
18993TIP3    H278471   4.802   3.504   4.934  1.0798  0.3691 -2.4399
18994TIP3   OH278472   4.536   3.367  11.514 -0.0708  0.3524 -0.3271
18994TIP3    H178473   4.489   3.296  11.557  0.4995  1.7892  2.9852
18994TIP3    H278474   4.620   3.329  11.488  0.1774 -0.2542  1.2824
18995TIP3   OH278475   4.594   0.051   4.794  0.6943 -0.3042  0.2089
18995TIP3    H178476   4.630   0.131   4.754  0.0383 -0.2348 -0.2487
18995TIP3    H278477   4.575   0.077   4.884 -2.0941  0.9121 -0.6273
18996TIP3   OH278478   4.792   3.131  15.674 -0.7171  0.4945 -0.1412
18996TIP3    H178479   4.839   3.203  15.716  0.8716  0.4047 -1.6628
18996TIP3    H278480   4.706   3.168  15.653 -0.4578  1.4715  0.4308
18997TIP3   OH278481   0.899   1.490  13.403 -0.4675  0.7297  0.6308
18997TIP3    H178482   0.819   1.484  13.455 -0.2361 -3.2248  0.8527
18997TIP3    H278483   0.967   1.512  13.467 -0.2257 -3.8123  2.3326
18998TIP3   OH278484   3.832   2.334   2.166 -0.1907 -0.2921 -0.2117
18998TIP3    H178485   3.806   2.242   2.166 -0.1257 -0.3103 -0.1326
18998TIP3    H278486   3.894   2.342   2.238 -0.4205 -0.1230 -0.0313
18999TIP3   OH278487   2.646   0.046  12.980 -0.3300  0.0006 -0.0063
18999TIP3    H178488   2.572   0.097  13.013  0.5067  1.8560 -0.8620
18999TIP3    H278489   2.713   0.054  13.047  0.1877  0.9891 -0.6163
19000TIP3   OH278490   3.778   3.547   1.507  0.2057 -0.3653 -0.5669
19000TIP3    H178491   3.771   3.456   1.480  0.7436 -0.1606 -1.4404
19000TIP3    H278492   3.711   3.557   1.575  1.2094 -1.8085  0.7018
19001TIP3   OH278493   0.961   5.570  13.851  0.0106 -0.2464  0.1046
19001TIP3    H178494   1.022   5.501  13.875 -0.2870 -0.2839  0.7611
19001TIP3    H278495   0.892   5.566  13.917  0.3424  1.1216  0.5729
19002TIP3   OH278496   3.117   6.357   1.307  0.1032  0.2194  0.4209
19002TIP3    H178497   3.190   6.297   1.288 -0.5284 -1.0052  1.7142
19002TIP3    H278498   3.153   6.419   1.370  0.3834  0.3797  0.1037
19003TIP3   OH278499   4.391   5.560   3.624 -0.2977 -0.0852 -0.8858
19003TIP3    H178500   4.327   5.497   3.593 -0.4375 -0.2942 -0.1963
19003TIP3    H278501   4.423   5.523   3.707 -0.2292  0.6392 -0.5800
19004TIP3   OH278502   0.804   2.531   5.371  0.2201  0.0495 -0.2969
19004TIP3    H178503   0.872   2.595   5.347 -1.2517  1.4458 -0.9339
19004TIP3    H278504   0.753   2.576   5.439  1.0607 -1.7464  1.6312
19005TIP3   OH278505   1.403   1.972   4.033 -0.6002  0.4968  0.1814
19005TIP3    H178506   1.343   2.018   3.974 -0.4735 -0.1698 -0.4753
19005TIP3    H278507   1.481   2.028   4.036 -0.2474  0.0860 -1.0162
19006TIP3   OH278508   1.690   3.822  16.588  0.5916 -0.0971  0.8391
19006TIP3    H178509   1.629   3.771  16.533  0.4041 -1.1352  1.9618
19006TIP3    H278510   1.638   3.895  16.619 -0.8306 -2.0540  3.4569
19007TIP3   OH278511   3.318   4.552   1.076 -0.3950  0.1650  0.1665
19007TIP3    H178512   3.413   4.556   1.078 -0.4178  0.8952  0.1357
19007TIP3    H278513   3.297   4.458   1.073  0.2852 -0.0307  1.3298
19008TIP3   OH278514   4.392   4.422  16.891  0.1534 -0.0388  0.1623
19008TIP3    H178515   4.458   4.491  16.889 -1.3376  1.4257 -1.0599
19008TIP3    H278516   4.435   4.346  16.852  1.6310  0.3554  0.9757
19009TIP3   OH278517   0.586   5.081  12.537 -0.6031 -0.1027 -0.4068
19009TIP3    H178518   0.626   5.131  12.609 -1.5387  1.1865 -0.7297
19009TIP3    H278519   0.646   5.009  12.521  0.8066  0.9132  0.1157
19010TIP3   OH278520   5.142   0.352  15.215 -0.1739  0.8692  0.1877
19010TIP3    H178521   5.140   0.406  15.136 -0.4187  1.5246  0.6330
19010TIP3    H278522   5.233   0.326  15.224 -0.2125  0.4582 -0.5292
19011TIP3   OH278523   3.991   4.241   4.986 -0.1091 -0.2285  0.5202
19011TIP3    H178524   4.047   4.291   4.927 -0.6474 -0.4861 -0.2280
19011TIP3    H278525   4.050   4.174   5.023  0.0077 -0.7451 -0.5529
19012TIP3   OH278526   2.457   2.468  13.556  0.1577 -0.7297 -0.3270
19012TIP3    H178527   2.489   2.383  13.587 -0.0441 -0.8724 -0.5036
19012TIP3    H278528   2.494   2.477  13.468 -0.4134 -0.9751 -0.6027
19013TIP3   OH278529   6.420   0.280  10.862 -0.5516  0.2946  0.1735
19013TIP3    H178530   6.363   0.221  10.814 -2.4434  1.2864  1.1070
19013TIP3    H278531   6.421   0.361  10.811 -0.6846  0.5769  0.6149
19014TIP3   OH278532   3.997   5.406   2.306  0.0149  0.0914  0.5372
19014TIP3    H178533   4.044   5.358   2.375 -0.6972 -0.0675  0.9139
19014TIP3    H278534   3.905   5.388   2.322 -0.1946  0.5945 -0.0627
19015TIP3   OH278535   0.502   0.185  15.707  0.1188  0.4769 -0.0232
19015TIP3    H178536   0.555   0.126  15.760  1.1523  0.5106 -0.9857
19015TIP3    H278537   0.443   0.128  15.657  0.3253  0.3306 -0.0999
19016TIP3   OH278538   5.740   0.831   3.500  0.2868  0.0072  0.2564
19016TIP3    H178539   5.716   0.815   3.409  0.0930 -1.5491  0.5641
19016TIP3    H278540   5.657   0.834   3.547  0.2802  2.1053  0.2457
19017TIP3   OH278541   5.585   6.840   4.903 -0.1128  0.1262  0.0654
19017TIP3    H178542   5.631   6.775   4.956 -0.2469 -1.0046 -1.1667
19017TIP3    H278543   5.572   6.798   4.818 -1.5133  1.2212 -0.3028
19018TIP3   OH278544   3.009   2.365   3.840  0.0623  0.0809 -0.0062
19018TIP3    H178545   2.922   2.400   3.821 -0.4414 -1.7670 -1.4999
19018TIP3    H278546   3.010   2.350   3.934 -0.9631  0.8435  0.1340
19019TIP3   OH278547   0.820   4.007   0.566  0.0351  0.7139  0.5857
19019TIP3    H178548   0.841   3.926   0.612  0.4295  1.0715  1.0357
19019TIP3    H278549   0.770   4.058   0.630 -1.3713  0.2892 -0.1299
19020TIP3   OH278550   3.475   6.413  14.085 -0.0918  0.2478  1.0314
19020TIP3    H178551   3.481   6.380  14.175  0.5605 -0.4624  0.7366
19020TIP3    H278552   3.473   6.335  14.030 -1.4795  0.6590  0.4596
19021TIP3   OH278553   5.161   0.318   2.694  0.8993  0.2713  0.0621
19021TIP3    H178554   5.191   0.323   2.785 -1.3144  0.3320  0.8366
19021TIP3    H278555   5.164   0.408   2.662 -0.0709  0.5320  0.6866
19022TIP3   OH278556   3.728   5.311   0.251  0.5034  0.0071  0.4840
19022TIP3    H178557   3.703   5.323   0.342  1.5370 -3.1442  1.3121
19022TIP3    H278558   3.820   5.338   0.247  0.9610 -1.3927  0.8483
19023TIP3   OH278559   6.063   4.307  11.130 -0.0937  0.6263  0.5817
19023TIP3    H178560   6.152   4.278  11.149  0.6198  2.6056  0.4725
19023TIP3    H278561   6.045   4.273  11.043  0.8842  0.8886  0.2609
19024TIP3   OH278562   1.884   5.765   1.052 -0.2324  0.2169  0.3100
19024TIP3    H178563   1.950   5.831   1.031 -1.0325  1.0713  0.3957
19024TIP3    H278564   1.863   5.781   1.144 -0.4123 -0.1765  0.3369
19025TIP3   OH278565   3.073   3.027   6.399 -0.3221  0.2549  0.1723
19025TIP3    H178566   2.987   3.046   6.437  0.2086  0.3036  1.4197
19025TIP3    H278567   3.059   3.032   6.305 -1.3024  2.0366  0.3620
19026TIP3   OH278568   1.585   0.327  11.351  0.0072  0.1993  0.5295
19026TIP3    H178569   1.656   0.384  11.380  1.0613 -0.4672 -0.6722
19026TIP3    H278570   1.546   0.293  11.432  0.5346  1.1932  1.2113
19027TIP3   OH278571   5.731   5.204   5.228  0.0802 -0.5757  0.1544
19027TIP3    H178572   5.655   5.156   5.260  0.3245 -0.0807  1.5442
19027TIP3    H278573   5.766   5.149   5.157 -2.1144 -0.3219 -1.2100
19028TIP3   OH278574   0.137   0.391  15.218 -0.7416 -0.1898  0.0368
19028TIP3    H178575   0.194   0.391  15.141 -1.0979  1.1534 -0.2535
19028TIP3    H278576   0.048   0.395  15.182 -0.9326 -0.0667  0.5180
19029TIP3   OH278577   6.292   2.985   5.320 -0.2250  0.7102  0.0967
19029TIP3    H178578   6.314   3.075   5.296 -2.2688  1.8573  2.1372
19029TIP3    H278579   6.359   2.960   5.383  0.9078  0.3809 -1.1848
19030TIP3   OH278580   6.248   0.392  15.452  0.0375  0.4033  0.2784
19030TIP3    H178581   6.252   0.391  15.548 -1.4901  3.5789  0.5076
19030TIP3    H278582   6.259   0.300  15.427  0.5485 -0.5392  3.4590
19031TIP3   OH278583   4.448   2.134  15.727  0.2147  0.0129 -0.0461
19031TIP3    H178584   4.386   2.086  15.672  1.6842 -1.0386 -0.8284
19031TIP3    H278585   4.459   2.218  15.682 -1.6914  0.8033  0.8630
19032TIP3   OH278586   3.555   3.138  13.867  0.0812  0.4359 -0.2353
19032TIP3    H178587   3.466   3.115  13.891 -1.3248  2.5115 -2.8707
19032TIP3    H278588   3.565   3.229  13.898  0.7889  0.6523 -1.0612
19033TIP3   OH278589   0.019   0.459   1.665 -0.0816  0.0862 -0.5170
19033TIP3    H178590   0.059   0.476   1.750  0.1430 -0.4147 -0.5224
19033TIP3    H278591   0.084   0.489   1.601 -0.0116 -0.0696 -0.5185
19034TIP3   OH278592   3.293   5.957  11.322  0.1908 -0.0146 -0.0171
19034TIP3    H178593   3.365   5.980  11.380  2.1914 -1.5235 -1.7271
19034TIP3    H278594   3.290   6.028  11.258 -0.3637  0.4256  0.4928
19035TIP3   OH278595   4.387   2.134  11.671 -0.1661  0.2286 -0.1630
19035TIP3    H178596   4.398   2.229  11.661 -2.5088  0.4985 -0.6389
19035TIP3    H278597   4.304   2.124  11.718  1.4435 -1.5546  2.6130
19036TIP3   OH278598   5.066   5.831  15.244 -0.4491  0.3399  0.3624
19036TIP3    H178599   5.062   5.927  15.240  0.8726  0.4211  0.3443
19036TIP3    H278600   5.058   5.811  15.337 -1.9153  0.3738  0.2623
19037TIP3   OH278601   1.060   4.495  16.450 -0.1997  0.4489  0.3636
19037TIP3    H178602   0.981   4.487  16.503 -0.1265  0.4410  0.4735
19037TIP3    H278603   1.068   4.588  16.432  0.4909  0.6328  1.4880
19038TIP3   OH278604   6.567   2.013   1.584 -0.1605  0.5920  0.6400
19038TIP3    H178605   6.580   2.022   1.489 -0.4448  0.5805  0.5998
19038TIP3    H278606   6.472   2.011   1.595 -0.1292 -0.3048  0.8426
19039TIP3   OH278607   6.010   1.387  12.456 -0.1155  0.1505 -0.0374
19039TIP3    H178608   5.967   1.412  12.374  0.3519 -1.2204 -0.7347
19039TIP3    H278609   6.104   1.393  12.437 -0.0063  0.2388  0.5278
19040TIP3   OH278610   1.460   0.690   0.020 -0.0510 -0.1369 -0.4464
19040TIP3    H178611   1.504   0.753   0.077 -0.4236  0.7072 -1.0802
19040TIP3    H278612   1.510   0.693  -0.062 -1.3765  0.9845 -1.2511
19041TIP3   OH278613   2.810   2.442   1.996 -0.1649  0.1321  0.0066
19041TIP3    H178614   2.862   2.515   1.962  1.1430 -0.1998  1.1987
19041TIP3    H278615   2.729   2.483   2.029 -0.8454  0.6200 -2.1147
19042TIP3   OH278616   2.067   1.159   4.926  0.2861 -0.1527  0.1226
19042TIP3    H178617   2.160   1.167   4.906  0.2333  1.5792  0.4551
19042TIP3    H278618   2.047   1.235   4.981 -1.2013 -0.8107  0.5514
19043TIP3   OH278619   6.808   3.670  15.032 -0.3954  0.5487  0.2160
19043TIP3    H178620   6.880   3.619  15.071  1.1005  0.2922 -2.6113
19043TIP3    H278621   6.732   3.613  15.039  0.6188 -0.9570 -0.3352
19044TIP3   OH278622   1.332   4.399   5.031  0.3391 -0.4951  0.7467
19044TIP3    H178623   1.309   4.339   4.960  1.1576 -0.4746  0.4587
19044TIP3    H278624   1.248   4.433   5.061 -0.2014 -2.2573  1.3507
19045TIP3   OH278625   1.763   0.395  13.548 -0.1997  0.5444 -0.2262
19045TIP3    H178626   1.695   0.408  13.613 -1.6455  0.7081 -1.6967
19045TIP3    H278627   1.737   0.314  13.502  0.3376  0.8443 -1.0856
19046TIP3   OH278628   0.809   0.849   1.256  0.5408  0.2092 -0.3815
19046TIP3    H178629   0.739   0.795   1.221 -0.3520  0.6888  0.6193
19046TIP3    H278630   0.890   0.806   1.227 -0.1512 -1.0561 -0.4822
19047TIP3   OH278631   0.992   4.285   6.439 -0.1026 -0.4058  0.0210
19047TIP3    H178632   0.950   4.238   6.366  1.5580 -1.8986 -0.0511
19047TIP3    H278633   1.061   4.337   6.397  1.8553 -2.4109  0.5517
19048TIP3   OH278634   6.606   3.237   5.374 -0.4252  0.0491  0.0867
19048TIP3    H178635   6.630   3.146   5.354  0.3638  0.3965 -0.6242
19048TIP3    H278636   6.527   3.253   5.322  0.0981  0.1155 -0.7122
19049TIP3   OH278637   0.963   4.928   4.876 -0.3060  0.0137 -0.2232
19049TIP3    H178638   1.018   4.962   4.947 -2.4672  0.3842  1.3877
19049TIP3    H278639   0.959   4.834   4.892 -3.0736  0.3954  2.0098
19050TIP3   OH278640   5.065   1.239  15.925 -0.1606 -0.1492  0.0098
19050TIP3    H178641   5.097   1.154  15.894 -0.5213 -0.3422  0.1684
19050TIP3    H278642   5.044   1.226  16.017  0.5945  0.3413  0.2616
19051TIP3   OH278643   5.433   2.502  14.537  0.6321 -0.5043 -0.0342
19051TIP3    H178644   5.397   2.438  14.598 -1.0543 -0.2944 -0.7319
19051TIP3    H278645   5.368   2.573  14.536  0.7097 -0.4071 -1.8749
19052TIP3   OH278646   3.313   4.089  16.142 -0.1054  0.5715  0.2897
19052TIP3    H178647   3.402   4.125  16.139 -0.5234  1.7055 -2.8210
19052TIP3    H278648   3.257   4.165  16.155 -0.7547  0.4893 -1.6369
19053TIP3   OH278649   5.901   1.331   2.727 -0.1140 -0.0366 -0.2413
19053TIP3    H178650   5.860   1.375   2.652 -1.4283  1.9529  1.5399
19053TIP3    H278651   5.855   1.247   2.733 -0.0446 -0.2028 -1.5738
19054TIP3   OH278652   5.441   5.673   4.012 -0.1823  0.1451 -0.7448
19054TIP3    H178653   5.528   5.634   4.022 -0.6949 -0.4015  2.5375
19054TIP3    H278654   5.394   5.612   3.956  0.7261 -1.0326 -0.2623
19055TIP3   OH278655   5.211   0.691   0.483  0.4273  1.0693  0.3560
19055TIP3    H178656   5.194   0.784   0.495  0.2896  0.9407  1.2355
19055TIP3    H278657   5.300   0.678   0.516 -0.5339  0.4218  2.9113
19056TIP3   OH278658   6.707   1.284   5.273  0.0486  0.0777 -0.1513
19056TIP3    H178659   6.673   1.206   5.229  1.1172 -0.5517  0.0918
19056TIP3    H278660   6.770   1.249   5.337  1.3456  1.1859 -0.7712
19057TIP3   OH278661   3.638   4.500  16.564  0.4285 -0.2836 -0.0062
19057TIP3    H178662   3.569   4.453  16.517  1.6968 -0.3385 -1.9413
19057TIP3    H278663   3.597   4.583  16.589 -0.9888 -1.2326  0.9170
19058TIP3   OH278664   1.233   5.802  15.569 -0.2696 -0.5044 -0.2539
19058TIP3    H178665   1.221   5.897  15.572 -0.1542 -0.4014 -2.0001
19058TIP3    H278666   1.145   5.766  15.587 -0.3185 -0.0791  0.3726
19059TIP3   OH278667   5.009   5.191   4.660 -0.0118 -0.0803  0.0082
19059TIP3    H178668   4.946   5.149   4.602  0.6439 -0.1323 -0.6692
19059TIP3    H278669   5.019   5.280   4.625 -2.4938  1.2353  2.2588
19060TIP3   OH278670   6.364   1.488   5.196  0.1022  0.7915 -0.3376
19060TIP3    H178671   6.311   1.453   5.267  0.8014 -0.1802 -0.2826
19060TIP3    H278672   6.343   1.434   5.120  0.8225  0.5317 -0.3691
19061TIP3   OH278673   5.911   0.079   4.694 -0.1848 -0.3554 -0.1748
19061TIP3    H178674   5.935   0.008   4.754 -1.5623 -0.6004  0.1123
19061TIP3    H278675   5.819   0.098   4.714 -0.1896  0.6943 -1.0821
19062TIP3   OH278676   4.412   2.707   3.405  0.2126 -0.4418  0.3519
19062TIP3    H178677   4.484   2.753   3.447  1.2951 -0.1470 -1.7019
19062TIP3    H278678   4.349   2.691   3.476  1.2835  1.2568  1.7642
19063TIP3   OH278679   0.978   2.989   4.078 -0.0215  0.2038 -0.5402
19063TIP3    H178680   0.913   2.966   4.145 -0.7407  0.9056 -0.9819
19063TIP3    H278681   1.014   3.073   4.107 -1.5035  1.3510 -1.8134
19064TIP3   OH278682   1.446   3.171  11.761 -0.2454 -0.9062 -0.3641
19064TIP3    H178683   1.437   3.170  11.665 -1.3366 -1.5584 -0.2740
19064TIP3    H278684   1.356   3.176  11.793  0.1198 -0.4959  0.6337
19065TIP3   OH278685   3.362   5.761   2.595 -0.5589  0.4162  0.1769
19065TIP3    H178686   3.329   5.732   2.679 -0.6816  0.4010  0.1235
19065TIP3    H278687   3.313   5.709   2.531 -0.0590  0.0031  0.1131
19066TIP3   OH278688   1.957   1.701  14.436 -0.4499  0.0611  0.1105
19066TIP3    H178689   1.971   1.739  14.349 -1.0180  0.9059  0.3698
19066TIP3    H278690   1.891   1.633  14.422 -1.6168  1.1472  0.0756
19067TIP3   OH278691   2.943   5.300  13.577  0.3025  0.5008  0.2744
19067TIP3    H178692   2.935   5.310  13.672 -0.1481 -0.0885  0.3073
19067TIP3    H278693   2.945   5.205  13.563 -1.8366  0.5159 -0.4582
19068TIP3   OH278694   2.321   2.292  14.614 -0.2037  0.3765 -0.4469
19068TIP3    H178695   2.362   2.257  14.535  0.4575  1.1479 -0.4629
19068TIP3    H278696   2.391   2.339  14.659 -0.8859  1.1009 -0.1014
19069TIP3   OH278697   5.799   5.002  13.577 -0.6070  0.2383 -0.4107
19069TIP3    H178698   5.875   4.976  13.525  0.2407  1.6577  0.0675
19069TIP3    H278699   5.801   4.943  13.653  1.7563  2.0613  1.0720
19070TIP3   OH278700   5.942   2.303   4.107  0.4940  0.2390 -0.7378
19070TIP3    H178701   6.016   2.296   4.047  1.3449 -2.4333  0.4785
19070TIP3    H278702   5.894   2.380   4.076  2.9032  1.1736 -2.5033
19071TIP3   OH278703   0.748   5.961   3.988 -0.2777 -0.2049  0.1069
19071TIP3    H178704   0.714   6.031   3.933  1.5478  0.2253 -0.5703
19071TIP3    H278705   0.753   5.885   3.929 -0.2560 -0.3136  0.2496
19072TIP3   OH278706   0.243   3.133   1.401  0.2664  0.2411 -0.4855
19072TIP3    H178707   0.294   3.072   1.454 -0.8039  0.6458  1.0676
19072TIP3    H278708   0.307   3.171   1.341  1.1679 -1.5188 -0.6871
19073TIP3   OH278709   1.090   6.552   0.972  0.4807 -0.3144 -0.0755
19073TIP3    H178710   1.165   6.504   0.936 -0.5870 -1.1337 -1.3104
19073TIP3    H278711   1.061   6.499   1.046  0.2378 -0.7839 -0.4998
19074TIP3   OH278712   2.627   1.167   3.234  0.4033 -0.0427 -0.8734
19074TIP3    H178713   2.694   1.233   3.252  0.2413  0.1054 -0.8182
19074TIP3    H278714   2.601   1.135   3.321 -0.1320  0.4284 -0.8542
19075TIP3   OH278715   0.117   5.145  11.321  0.4034 -0.0105 -0.0720
19075TIP3    H178716   0.117   5.107  11.408 -0.3565 -1.5295 -0.7080
19075TIP3    H278717   0.208   5.173  11.307  1.0091 -1.6484  0.3967
19076TIP3   OH278718   3.645   3.200  10.088  0.6617 -0.5108 -0.0929
19076TIP3    H178719   3.695   3.230  10.163  1.4034 -1.0500 -0.3592
19076TIP3    H278720   3.708   3.151  10.035  0.6386  1.3522 -1.9848
19077TIP3   OH278721   0.277   4.856   2.090 -0.3205 -0.2237 -0.3369
19077TIP3    H178722   0.227   4.899   2.021 -1.0384 -1.3237 -0.5346
19077TIP3    H278723   0.283   4.921   2.160 -1.8961  0.0091 -0.3791
19078TIP3   OH278724   0.501   0.303  13.889 -0.2043 -0.1041  0.1045
19078TIP3    H178725   0.491   0.227  13.832  0.4607  0.1781 -0.3961
19078TIP3    H278726   0.510   0.377  13.829 -0.7344  0.3648  0.5850
19079TIP3   OH278727   6.439   0.156  11.769 -0.1377 -0.0123  0.3093
19079TIP3    H178728   6.421   0.168  11.862  0.7582 -0.0568  0.4970
19079TIP3    H278729   6.438   0.062  11.756 -2.2656  0.0209 -0.1583
19080TIP3   OH278730   5.402   0.829  15.365 -0.2987  0.5237  0.0526
19080TIP3    H178731   5.312   0.832  15.334 -0.1165  2.1543 -0.3896
19080TIP3    H278732   5.396   0.785  15.450 -1.1836 -1.3367 -0.9095
19081TIP3   OH278733   3.915   1.847  13.846 -0.1757 -0.1287 -0.1373
19081TIP3    H178734   3.991   1.801  13.881 -0.7411 -0.7524  0.2889
19081TIP3    H278735   3.953   1.920  13.795  0.6568  0.5997  1.4602
19082TIP3   OH278736   6.127   1.661  13.529  0.0397 -0.4491 -0.0504
19082TIP3    H178737   6.213   1.686  13.562  0.2833  0.0440 -1.0020
19082TIP3    H278738   6.066   1.718  13.576  0.5508  1.8171 -1.8843
19083TIP3   OH278739   3.370   5.263  12.896  0.6773 -0.4597  0.1836
19083TIP3    H178740   3.342   5.349  12.862 -1.1022 -1.3698 -0.8190
19083TIP3    H278741   3.339   5.262  12.986 -0.8144 -0.6543 -0.3021
19084TIP3   OH278742   6.735   4.365  16.183  0.0487  0.4247  0.1517
19084TIP3    H178743   6.718   4.407  16.268  0.8774  1.3210 -0.1016
19084TIP3    H278744   6.777   4.434  16.131 -1.1086  0.1203 -1.2424
19085TIP3   OH278745   5.417   4.104  14.746  0.1331  0.1701 -0.5357
19085TIP3    H178746   5.396   4.060  14.828 -0.9923  2.0237  0.2385
19085TIP3    H278747   5.468   4.182  14.773 -0.8998  1.2089 -1.4853
19086TIP3   OH278748   6.758   4.547   4.032 -0.3461 -0.3904  0.1594
19086TIP3    H178749   6.753   4.632   3.987 -0.6010 -0.8590 -0.7181
19086TIP3    H278750   6.673   4.539   4.076 -1.2045 -1.1533 -1.5610
19087TIP3   OH278751   1.668   2.723  14.599 -0.1016  0.4776  0.2033
19087TIP3    H178752   1.585   2.732  14.644 -0.1930  0.6167  0.0070
19087TIP3    H278753   1.697   2.633  14.619  0.6591  1.0647  1.8953
19088TIP3   OH278754   3.170   4.921   5.407  0.1698 -0.0852 -0.3454
19088TIP3    H178755   3.195   4.990   5.467  0.3222 -0.4212 -0.0165
19088TIP3    H278756   3.178   4.840   5.458 -1.3706 -0.2277 -0.3021
19089TIP3   OH278757   0.288   3.031  14.573 -0.0762 -0.1999 -0.5752
19089TIP3    H178758   0.244   3.043  14.489 -2.6303  0.5372  0.7463
19089TIP3    H278759   0.295   3.119  14.610  0.9577 -0.5113 -0.0008
19090TIP3   OH278760   2.336   5.618  16.081 -0.6337 -0.1708 -0.1373
19090TIP3    H178761   2.388   5.601  16.002  0.6435 -2.2882  1.0621
19090TIP3    H278762   2.281   5.693  16.058  1.9013  1.2928 -1.9992
19091TIP3   OH278763   0.430   6.535  16.886  0.3334  0.0922 -0.2278
19091TIP3    H178764   0.342   6.513  16.916  0.3732 -0.0882 -0.2402
19091TIP3    H278765   0.452   6.616  16.932  0.1568  0.1441 -0.2347
19092TIP3   OH278766   1.736   1.155   0.007  0.0096 -0.5993  0.1866
19092TIP3    H178767   1.692   1.240   0.001 -0.9526 -1.1132 -0.2054
19092TIP3    H278768   1.746   1.126  -0.084  0.5210 -0.8266  0.3075
19093TIP3   OH278769   5.585   3.042  16.738  0.5912 -0.0082 -0.0665
19093TIP3    H178770   5.532   3.036  16.817 -1.3435 -0.2967 -1.3088
19093TIP3    H278771   5.646   2.969  16.744  1.0334  0.4563  1.5110
19094TIP3   OH278772   5.250   4.058   2.797 -0.1707  0.1259 -0.0229
19094TIP3    H178773   5.319   4.041   2.733 -1.2356  0.9427 -1.4274
19094TIP3    H278774   5.242   4.154   2.799 -2.2951  0.0304 -1.0745
19095TIP3   OH278775   1.045   4.351   2.870 -0.0996  0.1159 -0.1297
19095TIP3    H178776   0.999   4.268   2.881  0.1003 -0.0035 -0.1882
19095TIP3    H278777   1.121   4.329   2.815 -0.1535  0.3729 -0.3089
19096TIP3   OH278778   1.174   3.722   2.819 -0.8172 -0.1544  0.0278
19096TIP3    H178779   1.194   3.636   2.857 -0.9057 -0.7591 -1.2633
19096TIP3    H278780   1.237   3.781   2.861  2.3398 -1.6139 -2.2628
19097TIP3   OH278781   3.918   3.242  11.842 -0.1117 -0.1661  0.0998
19097TIP3    H178782   3.981   3.188  11.890 -0.8615  0.3787  1.7710
19097TIP3    H278783   3.833   3.220  11.881 -0.8184  0.0046 -1.2844
19098TIP3   OH278784   4.217   0.173   5.425  0.0978  0.2334  0.1122
19098TIP3    H178785   4.238   0.220   5.505  0.5647  3.3028 -1.6516
19098TIP3    H278786   4.125   0.193   5.409 -0.0952 -0.6695  0.0523
19099TIP3   OH278787   1.054   0.879  12.208  0.2161  0.2012  0.1423
19099TIP3    H178788   0.989   0.862  12.141  0.2810  0.2800  0.0595
19099TIP3    H278789   1.112   0.944  12.170  0.3424  0.1331  0.2163
19100TIP3   OH278790   3.580   5.810   5.993 -0.1659 -0.5306  0.4167
19100TIP3    H178791   3.585   5.848   6.081  0.2605  0.2865  0.0515
19100TIP3    H278792   3.555   5.719   6.008  0.4701 -0.5543  1.4185
19101TIP3   OH278793   6.305   0.958  14.275 -0.2220 -0.1608  0.1687
19101TIP3    H178794   6.381   1.016  14.280 -0.0778 -0.2626 -0.7707
19101TIP3    H278795   6.232   1.015  14.250 -0.6132  0.0588  1.7128
19102TIP3   OH278796   6.391   4.616   0.913 -0.6116 -0.5291  0.0660
19102TIP3    H178797   6.323   4.663   0.961 -1.2731 -3.8346  2.7662
19102TIP3    H278798   6.436   4.565   0.980  0.5743 -3.0532 -2.4504
19103TIP3   OH278799   1.240   2.029   3.507 -0.2404  0.4649  0.0109
19103TIP3    H178800   1.223   1.980   3.587  0.1372  0.7854  0.2920
19103TIP3    H278801   1.333   2.049   3.510 -0.2164  0.4553 -0.5234
19104TIP3   OH278802   0.636   3.360  14.056 -0.4193  0.4307 -0.8692
19104TIP3    H178803   0.598   3.349  14.144  1.0480  1.5039 -0.0525
19104TIP3    H278804   0.563   3.392  14.003 -0.3687  4.4452  1.1216
19105TIP3   OH278805   0.231   0.600   5.456  0.9528 -0.4102  0.5940
19105TIP3    H178806   0.303   0.542   5.428 -0.6471 -1.2438 -2.2541
19105TIP3    H278807   0.267   0.688   5.447  1.0151 -0.6209 -3.6616
19106TIP3   OH278808   2.512   0.667   4.850 -0.6353  0.5745  0.3374
19106TIP3    H178809   2.471   0.712   4.924  1.2339  2.2697  0.4314
19106TIP3    H278810   2.458   0.692   4.775 -1.8174 -0.1353  0.9317
19107TIP3   OH278811   5.822   3.639   2.187  0.2828 -0.7706  0.1272
19107TIP3    H178812   5.913   3.658   2.212  0.1438  0.0605  0.0215
19107TIP3    H278813   5.770   3.678   2.257  0.0332 -2.6462  1.0615
19108TIP3   OH278814   1.126   3.849  11.888 -0.7339  0.3976 -0.3067
19108TIP3    H178815   1.179   3.845  11.967  0.0200 -1.9210 -0.8563
19108TIP3    H278816   1.039   3.821  11.917 -0.9318  1.3068  0.0177
19109TIP3   OH278817   5.374   5.030   2.804 -0.2406 -0.2815 -0.1032
19109TIP3    H178818   5.390   5.122   2.827 -0.7176 -0.4282  0.8524
19109TIP3    H278819   5.428   5.016   2.726  1.1993  0.3176  0.7409
19110TIP3   OH278820   2.205   0.992   3.356  0.4235  0.2047  0.5650
19110TIP3    H178821   2.179   1.083   3.368 -1.7495 -0.4267  1.0719
19110TIP3    H278822   2.286   0.983   3.406 -0.3510  1.4089  2.1237
19111TIP3   OH278823   1.247   3.849  13.486  0.0688 -0.7615 -0.4884
19111TIP3    H178824   1.300   3.928  13.488 -1.2649  0.1508  0.7126
19111TIP3    H278825   1.156   3.880  13.490 -0.4699 -2.3362  0.7915
19112TIP3   OH278826   2.602   4.122   0.180  0.1436  0.1711  0.9680
19112TIP3    H178827   2.668   4.173   0.133  0.0446 -0.6036 -0.0486
19112TIP3    H278828   2.593   4.166   0.265  1.4172  0.7233  0.8357
19113TIP3   OH278829   3.253   5.211   2.268 -0.7709 -0.0135 -0.5272
19113TIP3    H178830   3.205   5.294   2.264 -2.1965 -0.7895 -0.2501
19113TIP3    H278831   3.344   5.236   2.256 -1.1328  1.6255 -0.1825
19114TIP3   OH278832   0.215   5.013   4.716 -0.3328  0.1281  0.3835
19114TIP3    H178833   0.254   4.946   4.659  0.5722  1.4961 -0.6854
19114TIP3    H278834   0.274   5.089   4.708 -1.2308  1.0168  1.6722
19115TIP3   OH278835   2.576   6.052  10.730 -0.3911 -0.4834 -0.3014
19115TIP3    H178836   2.646   6.054  10.795  0.1002 -2.6333 -0.6744
19115TIP3    H278837   2.617   6.083  10.649  0.0583 -1.3919 -0.4335
19116TIP3   OH278838   1.824   3.158   2.755  0.4414  0.2475 -0.1667
19116TIP3    H178839   1.858   3.107   2.681  0.4116  0.5326 -0.3805
19116TIP3    H278840   1.734   3.129   2.765  0.3283  0.4848 -0.4922
19117TIP3   OH278841   5.283   4.092  16.291  0.2184  0.5906  0.2913
19117TIP3    H178842   5.320   4.084  16.203  0.8960 -0.4875  0.6595
19117TIP3    H278843   5.203   4.143  16.278 -1.3707 -2.1017 -1.4646
19118TIP3   OH278844   2.057   4.725   0.648 -0.5616 -0.4096  0.7015
19118TIP3    H178845   2.136   4.766   0.612 -1.3286 -1.5774 -2.6792
19118TIP3    H278846   2.084   4.691   0.733  1.4557  2.5801  1.4222
19119TIP3   OH278847   2.667   3.490  12.903 -0.1775 -0.1311 -0.0581
19119TIP3    H178848   2.685   3.584  12.910  0.3358 -0.1048 -1.3953
19119TIP3    H278849   2.590   3.484  12.846  0.8166 -0.5474 -1.4233
19120TIP3   OH278850   2.711   2.696   2.268 -0.3253 -0.1343 -0.3046
19120TIP3    H178851   2.782   2.746   2.307 -0.5079  0.7949 -1.1076
19120TIP3    H278852   2.720   2.608   2.304  1.3167 -0.0776 -0.5143
19121TIP3   OH278853   0.416   3.258   4.344  0.0571  0.0372 -0.2064
19121TIP3    H178854   0.373   3.225   4.423  1.0706 -1.1012 -0.1082
19121TIP3    H278855   0.368   3.339   4.323 -0.3464  0.2685  1.4522
19122TIP3   OH278856   3.162   4.923  12.642 -0.6973 -0.1830  0.0739
19122TIP3    H178857   3.214   4.877  12.576 -2.4902 -0.8142 -0.9742
19122TIP3    H278858   3.113   4.989  12.592  0.2353  1.4695  1.2555
19123TIP3   OH278859   0.194   5.588   0.878  0.6703  0.3802  0.1906
19123TIP3    H178860   0.102   5.604   0.857  1.1475 -0.2573 -2.7596
19123TIP3    H278861   0.243   5.627   0.806  2.7006 -0.1027  1.2230
19124TIP3   OH278862   1.247   3.079   4.652 -0.4538 -0.2041 -0.8506
19124TIP3    H178863   1.179   3.037   4.705  0.1507  0.2067  0.2923
19124TIP3    H278864   1.323   3.021   4.659  1.2944  2.1017  2.9403
19125TIP3   OH278865   5.118   6.006  14.567  0.2951  0.1495 -0.4094
19125TIP3    H178866   5.096   5.913  14.572  1.0233 -0.0994 -1.5948
19125TIP3    H278867   5.165   6.024  14.648 -1.1331 -0.1383  0.5264
19126TIP3   OH278868   3.901   2.529  13.767  0.1987 -0.1191 -0.0946
19126TIP3    H178869   3.986   2.492  13.745 -0.1785 -0.3694 -1.2109
19126TIP3    H278870   3.906   2.546  13.861  2.1599  1.6591 -0.4465
19127TIP3   OH278871   4.719   5.872  16.954  0.4293 -0.1666 -0.2755
19127TIP3    H178872   4.690   5.957  16.987  0.7502 -0.5812  1.1591
19127TIP3    H278873   4.811   5.866  16.979  0.4011 -0.9477 -0.3192
19128TIP3   OH278874   5.759   5.201  15.753  0.3968  0.3884 -0.1271
19128TIP3    H178875   5.833   5.257  15.774 -0.4589  1.1405  1.0182
19128TIP3    H278876   5.746   5.148  15.832 -0.5511  0.5797 -0.1490
19129TIP3   OH278877   1.592   0.770   4.046 -0.2527  0.1187  0.0345
19129TIP3    H178878   1.516   0.729   4.087 -0.6400  0.2918 -0.4862
19129TIP3    H278879   1.576   0.760   3.952 -0.3836  1.5081 -0.1073
19130TIP3   OH278880   6.319   5.530  14.419  0.2204 -0.1144 -0.1832
19130TIP3    H178881   6.354   5.595  14.480 -2.3282 -0.2331  1.5915
19130TIP3    H278882   6.348   5.446  14.454  0.7583 -0.0808 -0.5451
19131TIP3   OH278883   1.426   3.799   5.855 -0.7960 -0.1854  0.4103
19131TIP3    H178884   1.442   3.887   5.820 -1.2124  0.6396  2.1996
19131TIP3    H278885   1.384   3.752   5.783  0.3574  0.7337 -0.9247
19132TIP3   OH278886   3.673   1.986   1.158  0.7965 -0.0134 -0.2257
19132TIP3    H178887   3.738   1.929   1.200  1.6653  0.8168 -0.4014
19132TIP3    H278888   3.725   2.056   1.119 -0.3570  1.6740  1.1643
19133TIP3   OH278889   6.464   1.784  11.481  0.5137  0.2978  0.2769
19133TIP3    H178890   6.556   1.803  11.463  0.4436  1.5167  1.0906
19133TIP3    H278891   6.464   1.744  11.568  0.2446  0.6848  0.4595
19134TIP3   OH278892   3.375   1.422   2.819 -0.0506 -0.2161  0.3322
19134TIP3    H178893   3.466   1.410   2.793 -0.4976 -1.6104 -0.7458
19134TIP3    H278894   3.344   1.495   2.766  0.1776 -0.3857 -0.0418
19135TIP3   OH278895   3.760   2.908  16.807 -0.7267 -0.2543  0.3013
19135TIP3    H178896   3.708   2.828  16.819  2.0534 -2.6447 -1.8706
19135TIP3    H278897   3.713   2.958  16.740 -1.5368 -1.0511  0.2594
19136TIP3   OH278898   3.356   0.513   3.965 -0.6245  0.2432 -0.3421
19136TIP3    H178899   3.366   0.607   3.952 -1.5766  0.3798 -0.1812
19136TIP3    H278900   3.445   0.480   3.972 -0.2648  1.0655 -0.8618
19137TIP3   OH278901   4.897   6.588  15.964 -0.3042  0.0567 -0.4314
19137TIP3    H178902   4.962   6.518  15.968 -1.8447 -1.5090 -1.3338
19137TIP3    H278903   4.908   6.636  16.046  0.7092 -1.3212  0.2752
19138TIP3   OH278904   6.023   5.721   3.646 -0.0079 -0.1631 -0.1555
19138TIP3    H178905   5.998   5.772   3.723  0.8158 -1.5568  1.1037
19138TIP3    H278906   6.097   5.769   3.609  0.4427 -0.1647  0.7144
19139TIP3   OH278907   4.820   5.728  11.676  0.3061 -0.0646 -0.0057
19139TIP3    H178908   4.900   5.727  11.729  1.2535  2.6082 -1.1599
19139TIP3    H278909   4.846   5.692  11.591 -0.5680 -2.0212  0.5024
19140TIP3   OH278910   1.466   1.978   1.482 -0.1950 -0.8516 -0.4467
19140TIP3    H178911   1.382   2.017   1.456 -0.1882 -0.8869 -0.5242
19140TIP3    H278912   1.532   2.026   1.432 -0.1351 -0.5663 -0.0941
19141TIP3   OH278913   6.095   2.867   4.146 -0.7180  0.1946 -0.2685
19141TIP3    H178914   6.058   2.890   4.231 -1.2453  2.0209 -0.9606
19141TIP3    H278915   6.084   2.772   4.140 -1.2987  0.1310  1.3987
19142TIP3   OH278916   0.816   4.132  15.865  0.8457 -0.3552 -0.2409
19142TIP3    H178917   0.868   4.101  15.791 -1.3109 -0.4046 -1.8510
19142TIP3    H278918   0.747   4.185  15.825  0.8273  1.4361  1.9515
19143TIP3   OH278919   6.433   1.848  16.142 -0.1021 -0.5633 -0.2690
19143TIP3    H178920   6.514   1.799  16.155 -0.0323 -0.3192  0.2569
19143TIP3    H278921   6.413   1.885  16.229  0.7451  1.7067 -0.9553
19144TIP3   OH278922   4.051   3.862  12.615 -0.2403 -0.2075  0.5512
19144TIP3    H178923   4.075   3.866  12.522 -1.9612 -0.2433  0.0694
19144TIP3    H278924   3.998   3.940  12.630  1.3103  0.6266  1.9323
19145TIP3   OH278925   2.414   5.156  15.550  0.4577 -0.2817 -0.6508
19145TIP3    H178926   2.502   5.176  15.584 -0.5529  2.7087  0.4900
19145TIP3    H278927   2.360   5.149  15.629 -0.5667 -0.8670 -1.3931
19146TIP3   OH278928   2.765   2.718   5.149 -0.2311  0.0276 -0.7830
19146TIP3    H178929   2.679   2.679   5.164 -1.3316  2.4478 -0.2261
19146TIP3    H278930   2.824   2.669   5.206 -1.6873 -0.2684  0.5655
19147TIP3   OH278931   3.436   1.032  12.123 -0.5974  0.1259 -0.0589
19147TIP3    H178932   3.478   1.113  12.093 -0.3996 -0.5546 -1.7291
19147TIP3    H278933   3.505   0.986  12.171 -0.9127  1.2355  1.5174
19148TIP3   OH278934   0.563   3.409   2.371  0.1135 -0.2399  0.1975
19148TIP3    H178935   0.530   3.488   2.414  0.3478 -0.0975  0.1147
19148TIP3    H278936   0.624   3.441   2.305 -0.3923 -0.4507 -0.3794
19149TIP3   OH278937   1.403   0.612   3.525 -0.2480 -0.4111  0.1891
19149TIP3    H178938   1.418   0.606   3.619 -1.4727  1.5932  0.5839
19149TIP3    H278939   1.313   0.582   3.512 -0.0776 -0.7112 -0.3620
19150TIP3   OH278940   5.709   5.402   3.711  0.5984  0.1728  0.6128
19150TIP3    H178941   5.619   5.369   3.704  1.1929 -1.6996  1.2333
19150TIP3    H278942   5.719   5.423   3.804  0.1922  2.3762  0.2175
19151TIP3   OH278943   5.114   3.962  16.720  0.3318 -0.0349  0.3124
19151TIP3    H178944   5.056   4.023  16.675 -1.7625 -1.5152  0.8297
19151TIP3    H278945   5.079   3.958  16.809 -0.1925 -2.6126  0.0661
19152TIP3   OH278946   4.664   3.503  11.959  0.2058  0.2714  0.3692
19152TIP3    H178947   4.651   3.538  11.871 -2.0420  2.0223  1.3146
19152TIP3    H278948   4.636   3.412  11.952  2.1644 -0.2953 -1.1634
19153TIP3   OH278949   1.251   0.958   0.313  0.7053 -0.1955 -0.1948
19153TIP3    H178950   1.308   0.965   0.236  0.2828  0.6858 -0.4349
19153TIP3    H278951   1.219   1.047   0.327  0.2357 -0.4848  0.5880
19154TIP3   OH278952   1.042   1.855  15.611  0.3309 -0.4771  0.2643
19154TIP3    H178953   1.031   1.935  15.662 -1.3753 -0.9236  0.6437
19154TIP3    H278954   1.069   1.886  15.524  1.2324  0.3971  0.8337
19155TIP3   OH278955   5.049   1.969   2.872  0.6456  0.2162 -0.3074
19155TIP3    H178956   5.024   2.061   2.884  0.4446  0.4422 -2.1124
19155TIP3    H278957   4.983   1.934   2.813  0.8292 -1.0586  0.2188
19156TIP3   OH278958   1.942   2.663  16.332 -0.2121 -0.4481  0.0796
19156TIP3    H178959   1.977   2.606  16.401  1.8198 -0.5323 -0.9587
19156TIP3    H278960   1.970   2.621  16.250  2.5233  2.6444 -0.7442
19157TIP3   OH278961   2.150   4.058  11.358  0.0996  0.5561 -0.3390
19157TIP3    H178962   2.195   4.003  11.423  2.3675  1.8528 -0.7022
19157TIP3    H278963   2.158   4.147  11.392 -1.0027  0.9850 -1.1361
19158TIP3   OH278964   0.328   4.394   5.455 -0.1194  0.3206 -0.1238
19158TIP3    H178965   0.418   4.388   5.487  0.3466 -0.2628 -1.4886
19158TIP3    H278966   0.287   4.459   5.512  0.3395 -1.4406  2.3584
19159TIP3   OH278967   1.328   6.501   2.982 -0.0501 -0.2322 -0.3784
19159TIP3    H178968   1.338   6.488   3.077  1.0837 -0.2405 -0.4776
19159TIP3    H278969   1.264   6.571   2.974  0.3938  0.2838  0.4299
19160TIP3   OH278970   3.614   4.507  14.124  0.2940 -0.1509  0.1160
19160TIP3    H178971   3.682   4.523  14.058  0.3836  0.0071  0.2450
19160TIP3    H278972   3.639   4.562  14.198  1.6771 -2.3247  1.3530
19161TIP3   OH278973   3.154   4.883   1.913  0.3290  0.6636  0.1462
19161TIP3    H178974   3.123   4.842   1.994  1.3976  0.5149  0.4967
19161TIP3    H278975   3.157   4.976   1.932 -1.3480  0.8711 -0.3984
19162TIP3   OH278976   3.049   5.165   5.275 -0.1551 -0.1077 -0.3423
19162TIP3    H178977   3.001   5.223   5.335  2.0424  0.9049  0.5621
19162TIP3    H278978   3.092   5.102   5.332 -0.0721 -0.7325 -1.0871
19163TIP3   OH278979   2.564   6.278   3.925 -0.3003  0.2524 -0.1451
19163TIP3    H178980   2.651   6.317   3.924  0.0938 -0.5775 -2.2503
19163TIP3    H278981   2.572   6.199   3.872 -1.5746 -1.6473  2.2917
19164TIP3   OH278982   0.273   0.137   0.208  0.1260  0.0613 -0.5475
19164TIP3    H178983   0.354   0.180   0.237 -0.6823  1.6999 -0.5894
19164TIP3    H278984   0.242   0.191   0.136 -2.5488  1.3026  1.3573
19165TIP3   OH278985   4.939   0.107  13.403 -0.4119  0.0883  0.2952
19165TIP3    H178986   5.016   0.163  13.399 -0.7483  0.6720  1.4853
19165TIP3    H278987   4.920   0.086  13.311  1.6071 -0.7232  0.0081
19166TIP3   OH278988   5.806   0.121  13.207 -0.3159  0.5343  0.9296
19166TIP3    H178989   5.827   0.084  13.293  1.9964 -0.0374  0.2001
19166TIP3    H278990   5.853   0.205  13.205  1.1481 -0.2549 -0.3631
19167TIP3   OH278991   3.508   1.857  13.979  0.1478 -0.4002 -0.6313
19167TIP3    H178992   3.447   1.904  13.921  0.5605  1.3776  0.3234
19167TIP3    H278993   3.571   1.816  13.919  0.5239  1.3326 -1.4839
19168TIP3   OH278994   4.708   5.138   6.594  0.0267  0.2668  0.1138
19168TIP3    H178995   4.635   5.103   6.543  0.6741 -0.1840 -0.5258
19168TIP3    H278996   4.671   5.152   6.681 -0.9802  0.6046 -0.3436
19169TIP3   OH278997   0.938   4.097   3.010  0.1505 -0.2321 -0.3381
19169TIP3    H178998   0.847   4.090   3.041  0.0324 -2.6505 -1.0167
19169TIP3    H278999   0.971   4.008   3.015  2.3074  0.5001 -0.7603
19170TIP3   OH279000   1.956   2.626  13.481  0.1902 -0.0371 -0.0539
19170TIP3    H179001   1.993   2.711  13.456 -0.6842  0.2279 -0.4836
19170TIP3    H279002   1.861   2.637  13.471 -0.2567  0.0383  3.2561
19171TIP3   OH279003   5.252   5.821   2.577  0.6813  0.3945 -0.1997
19171TIP3    H179004   5.171   5.785   2.612  2.2551 -2.3651  0.9200
19171TIP3    H279005   5.252   5.913   2.605 -0.9294 -0.1799  1.9182
19172TIP3   OH279006   3.624   6.558  14.496 -0.6564  0.5414  0.2269
19172TIP3    H179007   3.532   6.561  14.472 -1.1695  1.2427  2.0660
19172TIP3    H279008   3.630   6.487  14.561  0.7139 -1.4913 -1.9652
19173TIP3   OH279009   4.761   0.098  16.277 -0.0199  0.0751 -0.1711
19173TIP3    H179010   4.728   0.038  16.344  0.6392 -0.7837 -0.5899
19173TIP3    H279011   4.702   0.086  16.202  0.4032 -0.4223 -0.4279
19174TIP3   OH279012   2.473   5.483   0.739 -0.2205 -0.3868  0.2706
19174TIP3    H179013   2.459   5.389   0.735 -0.8276 -0.2739 -0.8413
19174TIP3    H279014   2.399   5.520   0.690 -1.1060  0.7809  2.3509
19175TIP3   OH279015   0.626   3.404   1.639  0.1310 -0.2344  0.0784
19175TIP3    H179016   0.621   3.313   1.612  0.7753  0.3147 -2.1377
19175TIP3    H279017   0.609   3.454   1.558  2.7170  1.5645  0.5099
19176TIP3   OH279018   0.462   5.414  14.128 -0.3270  0.4451  0.0115
19176TIP3    H179019   0.402   5.399  14.056 -0.2755 -0.6377  0.1687
19176TIP3    H279020   0.520   5.337  14.127  0.9519  1.3676 -0.0375
19177TIP3   OH279021   2.543   1.078   4.078 -0.0231  0.4796  0.2552
19177TIP3    H179022   2.617   1.034   4.037 -1.0375 -1.3564  0.3000
19177TIP3    H279023   2.571   1.094   4.168  0.5156  0.3392  0.1152
19178TIP3   OH279024   0.304   1.459   3.858 -0.0212 -0.3199 -0.1136
19178TIP3    H179025   0.243   1.496   3.922  0.3401  3.2324 -1.6192
19178TIP3    H279026   0.247   1.415   3.794 -0.6305 -0.8100  0.7425
19179TIP3   OH279027   3.559   5.487   2.710  0.0876 -0.8802 -0.3981
19179TIP3    H179028   3.487   5.547   2.730  1.4318  1.7289 -2.6597
19179TIP3    H279029   3.536   5.447   2.627  1.5694  0.7909 -1.7052
19180TIP3   OH279030   0.772   2.436   3.426  0.5973  0.1278 -0.3191
19180TIP3    H179031   0.834   2.372   3.462  1.6421  1.2021 -0.1230
19180TIP3    H279032   0.711   2.385   3.374  1.6660 -0.9767 -0.5265
19181TIP3   OH279033   6.638   5.500   3.686  0.5636 -0.4565  0.1012
19181TIP3    H179034   6.621   5.489   3.592  0.6888  2.9759 -0.4538
19181TIP3    H279035   6.559   5.467   3.728 -0.1021 -0.7336 -1.2875
19182TIP3   OH279036   2.688   3.385   5.525 -0.1174 -0.0833 -0.2237
19182TIP3    H179037   2.666   3.476   5.506 -0.5611  0.0627  0.9269
19182TIP3    H279038   2.608   3.347   5.560  0.1276 -0.8637 -0.4837
19183TIP3   OH279039   0.613   3.043  15.071 -0.1047 -0.5424  0.0320
19183TIP3    H179040   0.654   2.981  15.011 -0.7347  0.1895 -1.1944
19183TIP3    H279041   0.685   3.098  15.102  0.1392 -0.5412 -0.5321
19184TIP3   OH279042   5.904   2.739   2.648  0.0801  0.5405 -0.6100
19184TIP3    H179043   5.904   2.651   2.687 -0.6300  1.9489  2.9065
19184TIP3    H279044   5.819   2.747   2.605  0.4455 -0.7023 -1.6250
19185TIP3   OH279045   1.780   5.664  11.426 -0.2559  0.9536  0.6289
19185TIP3    H179046   1.770   5.648  11.332  0.8328 -0.5650  0.7291
19185TIP3    H279047   1.868   5.702  11.434  0.3401 -0.4649  1.1556
19186TIP3   OH279048   2.928   0.699   4.715 -0.2911  0.6703  0.2461
19186TIP3    H179049   2.883   0.664   4.792 -1.4069 -0.9686 -1.0902
19186TIP3    H279050   3.021   0.684   4.733 -0.6560 -2.5257  0.0562
19187TIP3   OH279051   0.082   1.110   2.347 -0.0828  0.2412  0.3185
19187TIP3    H179052   0.104   1.026   2.307  0.1793  0.3824  0.1655
19187TIP3    H279053   0.043   1.087   2.431  2.4947  0.0080  1.5487
19188TIP3   OH279054   0.404   6.409   5.453 -0.4166  0.7491 -0.6559
19188TIP3    H179055   0.327   6.368   5.413 -0.4942  1.7004 -1.5115
19188TIP3    H279056   0.469   6.339   5.457 -0.7526  0.3749 -1.5276
19189TIP3   OH279057   6.496   2.243  12.294 -0.3566  0.0743 -0.1019
19189TIP3    H179058   6.488   2.190  12.214  0.3811 -1.4377  0.7896
19189TIP3    H279059   6.436   2.203  12.356  1.2873 -0.7197  1.0681
19190TIP3   OH279060   5.035   5.248   0.825 -0.3555 -0.7471 -0.4361
19190TIP3    H179061   5.006   5.304   0.897 -1.8524 -3.3180  1.1122
19190TIP3    H279062   4.961   5.246   0.765 -1.0371 -2.3365  0.3887
19191TIP3   OH279063   2.768   1.337   0.103  0.1661  0.0158  0.4725
19191TIP3    H179064   2.733   1.257   0.065 -0.6636  0.6280 -0.0962
19191TIP3    H279065   2.692   1.393   0.116  0.7505  0.7853  0.6862
19192TIP3   OH279066   6.044   0.071  12.293  0.0537 -0.6885  0.1119
19192TIP3    H179067   6.042   0.029  12.207  0.4996 -0.0684 -0.2099
19192TIP3    H279068   6.130   0.050  12.329 -0.4287 -1.6085  0.7529
19193TIP3   OH279069   1.418   2.027  13.624  0.4066  0.2229 -0.2975
19193TIP3    H179070   1.513   2.022  13.634  0.4467 -1.9324 -1.1147
19193TIP3    H279071   1.406   2.055  13.533  0.3855 -2.5483 -1.2543
19194TIP3   OH279072   1.332   4.281  11.661 -0.2562  0.2896  0.0387
19194TIP3    H179073   1.335   4.186  11.654 -1.3383  0.3066 -0.9597
19194TIP3    H279074   1.238   4.302  11.660 -0.0127  1.4177 -0.5723
19195TIP3   OH279075   0.627   1.266   3.682 -0.2154 -0.0449 -0.0326
19195TIP3    H179076   0.585   1.180   3.683 -0.0228 -0.1951  2.5250
19195TIP3    H279077   0.719   1.248   3.703  0.1125  0.6952 -0.7756
19196TIP3   OH279078   3.861   6.593   6.366 -0.0610  0.1713 -0.4437
19196TIP3    H179079   3.787   6.543   6.402  0.3298 -1.1854 -1.4271
19196TIP3    H279080   3.824   6.636   6.288  0.3538 -1.2179 -1.4457
19197TIP3   OH279081   3.958   0.367   4.146  0.5565 -0.2921  0.3712
19197TIP3    H179082   4.016   0.291   4.147  0.6123 -0.2498  0.7362
19197TIP3    H279083   4.008   0.435   4.192  0.1849 -0.2817  0.7630
19198TIP3   OH279084   5.665   1.202   1.165  0.1380  0.0884  0.2162
19198TIP3    H179085   5.632   1.287   1.135 -1.5229 -0.4288  0.4875
19198TIP3    H279086   5.638   1.141   1.097  0.6640 -0.3391  0.3882
19199TIP3   OH279087   4.895   5.738  12.600  0.1908  1.4609  0.3987
19199TIP3    H179088   4.833   5.762  12.531  0.3459 -0.3559 -0.4524
19199TIP3    H279089   4.850   5.670  12.651  1.0338  0.9252  0.4585
19200TIP3   OH279090   1.509   0.619  15.041 -0.4839 -0.3129  0.4546
19200TIP3    H179091   1.594   0.577  15.028 -1.0330 -0.9913 -1.2302
19200TIP3    H279092   1.514   0.699  14.988 -0.6787 -0.0404  0.8444
19201TIP3   OH279093   5.464   5.890   4.193 -0.3309  0.0146  0.4578
19201TIP3    H179094   5.423   5.827   4.134  2.3080 -0.5801 -0.9295
19201TIP3    H279095   5.505   5.836   4.261  0.7865  0.2849  0.0273
19202TIP3   OH279096   1.047   6.026  15.415 -0.4779  0.2241  0.1063
19202TIP3    H179097   1.044   6.037  15.510  1.4259  0.9102  0.1359
19202TIP3    H279098   0.982   6.088  15.382 -0.6625  0.4892  0.9257
19203TIP3   OH279099   0.823   5.755  13.242  0.1009  0.3053 -0.7928
19203TIP3    H179100   0.870   5.811  13.181  0.3991 -0.4899 -1.3189
19203TIP3    H279101   0.821   5.669  13.199 -1.1532  0.1319 -0.4206
19204TIP3   OH279102   0.018   5.837  15.374 -0.4384 -0.5647  0.9432
19204TIP3    H179103  -0.009   5.877  15.457  1.0246  0.5506  0.9214
19204TIP3    H279104   0.056   5.753  15.400 -0.8027 -0.6225  1.3062
19205TIP3   OH279105   6.285   1.001  16.469  0.4856  0.6532  0.1424
19205TIP3    H179106   6.327   0.929  16.514 -1.5253 -0.5330  0.2357
19205TIP3    H279107   6.270   1.067  16.537  1.6119  0.8642  0.2128
19206TIP3   OH279108   3.849   0.432   2.143 -0.4197  0.2962 -0.1240
19206TIP3    H179109   3.897   0.351   2.165 -0.2434  0.4738  0.1571
19206TIP3    H279110   3.875   0.494   2.211 -0.0770  0.7812 -0.6852
19207TIP3   OH279111   6.638   0.861  14.058 -0.0612  0.3404 -0.0121
19207TIP3    H179112   6.627   0.954  14.080  0.8787  0.2817  0.7946
19207TIP3    H279113   6.578   0.846  13.985  0.2927  1.7596 -0.6245
19208TIP3   OH279114   4.852   1.471  15.184 -0.0100 -0.4401  0.1369
19208TIP3    H179115   4.927   1.445  15.238 -0.4984 -0.8079  0.6472
19208TIP3    H279116   4.778   1.470  15.244 -0.2164  1.2169 -0.0480
19209TIP3   OH279117   3.175   6.219  14.021  0.6508  0.4043  0.0588
19209TIP3    H179118   3.085   6.219  13.989  0.1743 -0.6304  1.3054
19209TIP3    H279119   3.172   6.269  14.103  1.1453  0.1096  0.2637
19210TIP3   OH279120   5.412   2.828   2.458 -0.1041  0.7455 -0.0034
19210TIP3    H179121   5.317   2.811   2.458 -0.6408  3.2420  1.3973
19210TIP3    H279122   5.432   2.852   2.368 -0.5056 -1.0224 -0.6067
19211TIP3   OH279123   5.978   2.865   1.111 -0.3277 -0.0165 -0.5505
19211TIP3    H179124   5.958   2.864   1.017 -1.8387  1.4769 -0.2976
19211TIP3    H279125   5.961   2.775   1.140 -2.3348  0.0756 -1.2718
19212TIP3   OH279126   1.898   4.725   3.301  0.3614  0.3255  0.2535
19212TIP3    H179127   1.895   4.630   3.310  2.8212  0.1226 -0.5141
19212TIP3    H279128   1.806   4.750   3.289 -0.2899 -2.0169 -0.2057
19213TIP3   OH279129   3.585   5.626  12.822 -0.2277  0.4401 -0.4311
19213TIP3    H179130   3.599   5.687  12.894 -1.2230 -0.4624  0.5629
19213TIP3    H279131   3.545   5.679  12.753 -2.0768  0.7366  0.8050
19214TIP3   OH279132   1.508   3.318  15.636  0.0971  0.2368  0.4288
19214TIP3    H179133   1.501   3.238  15.687 -1.9470  0.2030  0.1785
19214TIP3    H279134   1.467   3.297  15.552 -0.2924  1.4546  0.2852
19215TIP3   OH279135   3.071   2.052  15.768  0.0807  0.4688 -0.0409
19215TIP3    H179136   3.112   2.032  15.853 -0.3854 -0.5096 -0.0369
19215TIP3    H279137   3.010   2.123  15.787 -2.4125 -1.8172  1.1738
19216TIP3   OH279138   5.539   5.306  13.340 -0.4241 -0.2834 -0.0303
19216TIP3    H179139   5.476   5.367  13.379 -1.7431  1.2132 -3.9802
19216TIP3    H279140   5.485   5.240  13.297  0.8985 -1.5570  0.1881
19217TIP3   OH279141   6.066   5.496   3.925 -0.1111  0.4587 -0.3314
19217TIP3    H179142   6.089   5.436   3.995  1.8942  1.2166 -0.2659
19217TIP3    H279143   5.980   5.529   3.948  1.0029  1.6827  2.5238
19218TIP3   OH279144   5.779   3.754  14.733  0.6600 -0.2070 -0.3732
19218TIP3    H179145   5.806   3.735  14.643 -2.1002  1.9387 -1.8324
19218TIP3    H279146   5.691   3.717  14.740  0.1110  1.2075  0.7862
19219TIP3   OH279147   5.465   6.395   4.350  0.3138 -0.4375  0.0583
19219TIP3    H179148   5.399   6.460   4.375 -1.1270 -1.0021 -1.9724
19219TIP3    H279149   5.437   6.315   4.396 -0.8646 -0.8388 -1.2774
19220TIP3   OH279150   4.468   1.081   5.128  0.3639 -0.2250  0.7394
19220TIP3    H179151   4.448   1.130   5.048 -1.2485  0.1419  1.3291
19220TIP3    H279152   4.478   0.991   5.099  0.4495  0.0031  0.0332
19221TIP3   OH279153   6.061   4.946  14.351 -0.0438  0.3177  0.3413
19221TIP3    H179154   6.115   5.025  14.356  1.4109 -0.4879 -1.5081
19221TIP3    H279155   5.986   4.971  14.297  0.4229  0.4601 -0.2536
19222TIP3   OH279156   4.829   4.804   0.689 -0.0153  0.1086  0.0384
19222TIP3    H179157   4.751   4.821   0.636  0.2260  0.3331 -0.2499
19222TIP3    H279158   4.890   4.874   0.665  0.5739 -0.5234 -0.3331
19223TIP3   OH279159   1.724   3.653   2.475  0.6347 -0.0613  0.0111
19223TIP3    H179160   1.749   3.567   2.508  1.0865  0.3943  0.8777
19223TIP3    H279161   1.806   3.695   2.451  0.4594  0.3296  0.0879
19224TIP3   OH279162   1.292   3.483   2.893 -0.1720 -0.6485  0.2296
19224TIP3    H179163   1.338   3.474   2.809 -1.5269  1.2559 -0.7859
19224TIP3    H279164   1.217   3.424   2.885 -0.3195 -0.4429  0.0633
19225TIP3   OH279165   2.311   2.015  13.336  0.0482 -0.5341 -0.0482
19225TIP3    H179166   2.321   2.106  13.363  2.0187 -0.1593 -1.7442
19225TIP3    H279167   2.282   2.020  13.245 -1.3571 -1.6442  0.3187
19226TIP3   OH279168   0.809   3.467  16.760 -0.3690 -0.3881 -0.6285
19226TIP3    H179169   0.745   3.398  16.743 -1.0295  0.3269 -1.0958
19226TIP3    H279170   0.784   3.502  16.845 -0.7736  0.0623 -0.9241
19227TIP3   OH279171   2.180   3.999  15.102  0.6135 -0.4986  0.3945
19227TIP3    H179172   2.100   3.982  15.151 -0.0669 -0.6186 -0.7140
19227TIP3    H279173   2.207   4.087  15.129  0.0448 -0.4127  0.6976
19228TIP3   OH279174   1.542   2.424   2.996  0.5435 -0.2249 -0.5498
19228TIP3    H179175   1.496   2.508   3.000  0.9552 -0.0065 -0.3008
19228TIP3    H279176   1.621   2.442   2.945 -0.1835 -0.8609 -1.9417
19229TIP3   OH279177   0.326   6.408   6.524 -0.3298 -0.1575 -0.2059
19229TIP3    H179178   0.268   6.358   6.580 -0.9533  0.3031 -0.4302
19229TIP3    H279179   0.324   6.497   6.559 -1.3809  0.3293 -1.4247
19230TIP3   OH279180   4.050   3.636  14.310  0.6948 -0.1706 -0.3556
19230TIP3    H179181   4.104   3.697  14.260  0.6746  0.8558  0.8293
19230TIP3    H279182   4.109   3.565  14.334  1.2039  0.3168 -0.1513
19231TIP3   OH279183   1.300   6.341   4.268 -0.1857 -0.4092 -0.4040
19231TIP3    H179184   1.278   6.253   4.299 -2.6260 -0.4796 -2.0289
19231TIP3    H279185   1.251   6.350   4.186  1.0377  2.0094 -0.9612
19232TIP3   OH279186   0.650   6.828   4.230  0.4765 -0.5704  0.0834
19232TIP3    H179187   0.714   6.856   4.165 -0.2422  1.1608  0.0812
19232TIP3    H279188   0.634   6.905   4.284 -0.9225 -1.2219  0.6593
19233TIP3   OH279189   6.005   0.153  13.759 -0.4692 -0.2856  0.5608
19233TIP3    H179190   5.944   0.206  13.809  0.1630  0.5858  0.4304
19233TIP3    H279191   5.958   0.071  13.743 -2.0479  0.7558 -0.5008
19234TIP3   OH279192   0.555   4.398   2.254  0.1809 -0.0079 -0.1246
19234TIP3    H179193   0.539   4.492   2.239  1.2070  0.0778 -0.7276
19234TIP3    H279194   0.649   4.392   2.268 -0.1138 -0.7268  1.7156
19235TIP3   OH279195   5.787   1.581   5.300  0.0622  0.4295 -0.4777
19235TIP3    H179196   5.706   1.581   5.250  0.1922  2.4501 -0.7816
19235TIP3    H279197   5.840   1.651   5.260  1.5012 -0.1002  0.4110
19236TIP3   OH279198   3.850   3.765  11.519 -0.0079 -0.5492 -0.1187
19236TIP3    H179199   3.819   3.855  11.520  1.6317  0.0599 -0.4870
19236TIP3    H279200   3.790   3.719  11.459  0.3655  0.7828 -1.5707
19237TIP3   OH279201   4.498   3.525   4.955  0.2026  0.1840  0.1817
19237TIP3    H179202   4.486   3.483   5.040  1.0817  0.5818  0.5136
19237TIP3    H279203   4.416   3.508   4.908 -0.2218 -0.1916  1.0363
19238TIP3   OH279204   3.660   4.084  15.602 -0.1383  0.3794 -0.3311
19238TIP3    H179205   3.579   4.041  15.573  0.6193 -0.3370 -1.4302
19238TIP3    H279206   3.653   4.173  15.568 -0.2393  0.1732 -0.8632
19239TIP3   OH279207   6.182   5.046  11.103 -0.1767  0.5349  0.1393
19239TIP3    H179208   6.156   5.088  11.021  0.8328  0.4855 -0.2151
19239TIP3    H279209   6.100   5.033  11.150 -0.8370  0.0565 -1.0981
19240TIP3   OH279210   2.932   4.634   0.963  0.3068 -0.1916  0.3901
19240TIP3    H179211   2.891   4.561   1.010  2.1676 -1.6432 -0.1378
19240TIP3    H279212   2.928   4.707   1.025  0.1406 -1.2594  1.6935
19241TIP3   OH279213   2.756   0.852  13.264  0.3707  0.2287 -0.3667
19241TIP3    H179214   2.683   0.905  13.298 -1.0776 -1.0481 -1.3353
19241TIP3    H279215   2.825   0.861  13.330 -1.8600 -1.2003  2.3874
19242TIP3   OH279216   5.462   5.241  16.308  0.2602  0.5354 -0.6519
19242TIP3    H179217   5.372   5.208  16.305  0.0154  1.1760 -0.5239
19242TIP3    H279218   5.469   5.283  16.394  0.7219  0.3782 -0.6091
19243TIP3   OH279219   6.195   5.373  17.073 -0.5895  0.3481  0.2118
19243TIP3    H179220   6.244   5.415  17.145 -0.9239 -0.4722  0.9355
19243TIP3    H279221   6.123   5.327  17.117  0.3013 -1.7846 -0.4231
19244TIP3   OH279222   4.722   2.401   1.210 -0.0067  0.5119  0.3379
19244TIP3    H179223   4.704   2.431   1.121 -0.1185  2.1784  0.9035
19244TIP3    H279224   4.816   2.416   1.221  0.3034 -1.0118  0.0478
19245TIP3   OH279225   1.128   1.131   2.556 -0.4337 -1.0002  0.0515
19245TIP3    H179226   1.106   1.061   2.494  1.4856  0.3421 -2.3274
19245TIP3    H279227   1.221   1.118   2.575  0.1094  1.0995 -0.8481
19246TIP3   OH279228   3.058   0.177  12.167 -0.1149 -0.4376  0.6026
19246TIP3    H179229   2.963   0.176  12.162 -0.1396  1.8986 -1.2344
19246TIP3    H279230   3.086   0.134  12.085  0.2612  2.3573 -0.8435
19247TIP3   OH279231   5.068   6.846   3.229  0.0897 -0.8035 -0.7337
19247TIP3    H179232   5.009   6.882   3.163  0.4170 -0.3154 -0.7579
19247TIP3    H279233   5.133   6.797   3.179 -0.0682 -1.0254 -0.7275
19248TIP3   OH279234   4.771   2.497   4.283 -0.3699  0.0973 -0.5745
19248TIP3    H179235   4.765   2.408   4.249 -1.2820  0.1122 -0.4807
19248TIP3    H279236   4.711   2.499   4.357  0.6981  0.4057  0.3096
19249TIP3   OH279237   6.437   0.218   2.724  0.0284 -0.4811 -0.6612
19249TIP3    H179238   6.364   0.249   2.778  1.0741  0.2895  0.3489
19249TIP3    H279239   6.456   0.291   2.665  0.1671 -0.5678 -0.7242
19250TIP3   OH279240   0.605   4.891   2.962 -0.1513 -0.1659 -0.3336
19250TIP3    H179241   0.617   4.797   2.974  0.6746  0.1814  2.1319
19250TIP3    H279242   0.694   4.926   2.960 -0.4382  0.5685 -1.5630
19251TIP3   OH279243   1.819   6.033  11.268  0.2963  0.0869  0.0959
19251TIP3    H179244   1.738   6.016  11.220  0.7365 -0.3574 -0.5095
19251TIP3    H279245   1.880   5.966  11.237  1.0886  0.7951  0.0616
19252TIP3   OH279246   3.356   2.580   3.322  0.5776  0.2995 -0.1643
19252TIP3    H179247   3.288   2.527   3.365  0.1244  1.2084  0.2778
19252TIP3    H279248   3.418   2.516   3.287  1.1612 -0.5075  2.1405
19253TIP3   OH279249   0.736   1.688   2.835  0.3606 -0.0654  0.3380
19253TIP3    H179250   0.802   1.652   2.776  0.5865 -1.1229  1.2069
19253TIP3    H279251   0.730   1.780   2.810  1.2535 -0.2336 -0.5851
19254TIP3   OH279252   2.560   4.056  15.575 -0.8011 -0.5090 -0.7005
19254TIP3    H179253   2.525   4.107  15.648 -2.8256 -2.3314 -0.2876
19254TIP3    H279254   2.583   3.972  15.614  1.8430 -0.2311 -1.4767
19255TIP3   OH279255   1.994   4.272  15.974  0.4056  0.7618  0.1828
19255TIP3    H179256   1.934   4.346  15.971  0.6887  0.9985  0.3102
19255TIP3    H279257   2.005   4.253  16.067 -1.7214 -1.1382  0.1293
19256TIP3   OH279258   2.698   2.890  16.129  0.3915  0.1007 -0.2506
19256TIP3    H179259   2.700   2.820  16.194 -1.2086 -0.1745 -0.4579
19256TIP3    H279260   2.699   2.844  16.045 -0.9378  0.2922 -0.3857
19257TIP3   OH279261   0.154   4.592  16.315  0.1424 -0.7032 -0.2102
19257TIP3    H179262   0.197   4.506  16.311  0.3436 -0.6111 -0.0576
19257TIP3    H279263   0.102   4.590  16.394  0.1720 -0.6745 -0.1893
19258TIP3   OH279264   2.451   6.176  14.396 -0.0676 -0.0836 -0.2204
19258TIP3    H179265   2.427   6.091  14.434 -1.9893 -0.8983 -2.9026
19258TIP3    H279266   2.396   6.239  14.441 -0.4165 -0.6236  0.1248
19259TIP3   OH279267   5.891   5.534   2.740 -0.1822 -0.4630 -0.5826
19259TIP3    H179268   5.963   5.527   2.803  0.8168  2.6839 -1.2022
19259TIP3    H279269   5.920   5.484   2.664  2.2351  1.9609 -1.4268
19260TIP3   OH279270   4.288   3.893   5.388  0.3890  0.0850  0.8187
19260TIP3    H179271   4.360   3.951   5.413  0.0527  0.2373  1.4419
19260TIP3    H279272   4.210   3.948   5.392  0.2910  0.0397 -0.3179
19261TIP3   OH279273   4.186   6.228  13.474 -0.4868 -0.2100  0.2244
19261TIP3    H179274   4.135   6.250  13.552  0.0176  0.0491  0.4882
19261TIP3    H279275   4.180   6.133  13.468 -2.6288 -0.0556 -0.8839
19262TIP3   OH279276   4.277   4.993   6.176 -0.3066 -0.0398 -0.2769
19262TIP3    H179277   4.313   5.066   6.126  0.8281  0.6152  1.4115
19262TIP3    H279278   4.208   5.032   6.230  0.1027 -0.2452  0.4148
19263TIP3   OH279279   4.474   4.602   0.905 -0.1150  0.3052  0.0388
19263TIP3    H179280   4.559   4.632   0.871 -0.2751  1.5166  0.6438
19263TIP3    H279281   4.484   4.605   1.000 -0.0536 -1.9370  0.1358
19264TIP3   OH279282   2.208   1.036  13.372  0.1770 -0.2195 -0.4200
19264TIP3    H179283   2.294   0.992  13.376  1.1847  1.4991 -1.6028
19264TIP3    H279284   2.209   1.097  13.445  0.2011  0.1760 -0.7460
19265TIP3   OH279285   3.486   4.328  14.969 -0.6307  0.6555 -0.2020
19265TIP3    H179286   3.551   4.396  14.949 -0.8038  0.8237 -0.1891
19265TIP3    H279287   3.402   4.370  14.955 -0.7398  0.1942 -1.0201
19266TIP3   OH279288   6.437   0.666  15.114 -0.1606  0.0581 -0.2126
19266TIP3    H179289   6.366   0.623  15.066 -0.7749 -0.4863  1.1485
19266TIP3    H279290   6.455   0.745  15.064 -2.7782  1.0140  0.2047
19267TIP3   OH279291   2.877   1.041   1.163  0.1146  0.1483 -0.5946
19267TIP3    H179292   2.925   0.968   1.125  0.6507 -0.1938  0.6876
19267TIP3    H279293   2.898   1.038   1.256 -2.8036 -0.3749  0.1624
19268TIP3   OH279294   0.037   1.268   1.703  0.0551 -0.1343 -0.5520
19268TIP3    H179295  -0.032   1.302   1.646 -0.0869 -0.8045 -0.7948
19268TIP3    H279296   0.079   1.200   1.650  1.1008  0.4627 -0.5192
19269TIP3   OH279297   4.864   1.067   4.324  0.4278  0.0687  0.4917
19269TIP3    H179298   4.897   1.157   4.331  1.9831 -0.5740  2.0936
19269TIP3    H279299   4.780   1.070   4.370  1.3305  0.3535  2.2251
19270TIP3   OH279300   0.331   3.773   0.831 -0.0793 -0.0903 -0.6618
19270TIP3    H179301   0.346   3.703   0.895  1.9183  0.2060 -0.7384
19270TIP3    H279302   0.237   3.790   0.836 -0.3173 -1.5219  0.6663
19271TIP3   OH279303   6.321   0.722  14.142 -0.3804 -0.0374  0.2749
19271TIP3    H179304   6.370   0.670  14.206 -0.8451 -0.3037  0.4222
19271TIP3    H279305   6.304   0.805  14.186 -2.5965 -0.9823  1.3908
19272TIP3   OH279306   5.452   2.958   4.769  0.0243  0.0904  0.0703
19272TIP3    H179307   5.458   3.012   4.848 -1.4742 -0.4185  0.5786
19272TIP3    H279308   5.473   2.869   4.799 -0.1455 -0.0351 -0.1759
19273TIP3   OH279309   3.036   0.680  11.446 -0.0188  0.0986 -0.7805
19273TIP3    H179310   2.947   0.670  11.480  0.0174 -0.7784 -0.9288
19273TIP3    H279311   3.086   0.713  11.521 -0.7193  1.9194 -1.0531
19274TIP3   OH279312   1.947   3.321  13.882  0.0018 -0.7183 -0.1408
19274TIP3    H179313   1.909   3.248  13.931  0.0853 -0.2980  0.5550
19274TIP3    H279314   1.877   3.350  13.823 -0.1091 -1.1987 -0.2473
19275TIP3   OH279315   0.746   0.850  12.741  0.5322  0.0529  0.3489
19275TIP3    H179316   0.771   0.794  12.814  0.4940 -0.0755  0.2624
19275TIP3    H279317   0.809   0.830  12.672  0.8584  0.5165  0.5106
19276TIP3   OH279318   3.942   6.009  16.758  0.1608 -0.6370  0.3267
19276TIP3    H179319   3.896   6.040  16.836 -1.4676  0.6112 -1.0635
19276TIP3    H279320   4.035   6.017  16.780 -0.2531 -0.5765  2.2139
19277TIP3   OH279321   0.268   2.878   3.106 -0.5338  0.0274  0.6854
19277TIP3    H179322   0.326   2.811   3.140 -1.0139 -0.5150  0.4603
19277TIP3    H279323   0.193   2.879   3.166 -0.2647  0.7804  1.0249
19278TIP3   OH279324   1.901   0.423   5.228 -0.1591 -0.3904  0.4172
19278TIP3    H179325   1.923   0.501   5.177 -0.3715  0.3187  1.3838
19278TIP3    H279326   1.977   0.410   5.285 -0.4181 -0.4727  0.7446
19279TIP3   OH279327   5.985   3.507  12.434  0.3199 -0.0967 -0.0840
19279TIP3    H179328   5.918   3.458  12.387  0.5810 -0.2959 -0.2513
19279TIP3    H279329   5.956   3.505  12.526  0.3126 -0.5394 -0.0946
19280TIP3   OH279330   6.665   1.030   3.774  0.0432  0.2105 -0.3594
19280TIP3    H179331   6.691   0.985   3.855  1.6915  0.4343 -0.7303
19280TIP3    H279332   6.680   0.965   3.705  2.0684  1.1109 -0.8549
19281TIP3   OH279333   1.049   3.762  16.707  0.4277  0.0320 -0.8895
19281TIP3    H179334   1.042   3.758  16.612  0.8643 -2.1643 -0.8852
19281TIP3    H279335   1.075   3.852  16.726  1.1478  0.2860 -2.8977
19282TIP3   OH279336   4.989   6.368   3.715  0.4824  0.1367 -0.5306
19282TIP3    H179337   5.030   6.442   3.761  2.4080 -1.8250  1.1196
19282TIP3    H279338   4.908   6.352   3.763  0.3039  0.8622 -0.5809
19283TIP3   OH279339   5.115   4.137  14.403  0.3849  0.8507  0.3846
19283TIP3    H179340   5.089   4.045  14.412 -1.5719  1.4501  1.5551
19283TIP3    H279341   5.210   4.137  14.412  0.6304 -1.2371 -1.4998
19284TIP3   OH279342   4.687   4.474   5.896 -0.3022 -0.7613 -0.0335
19284TIP3    H179343   4.615   4.455   5.956  1.2268 -1.8133  1.5360
19284TIP3    H279344   4.757   4.508   5.952  0.4262  0.3211 -1.5309
19285TIP3   OH279345   4.378   1.318  15.169  0.2873  0.4344  0.2499
19285TIP3    H179346   4.428   1.317  15.250  0.8428  2.8399  0.0213
19285TIP3    H279347   4.443   1.336  15.101 -0.3112 -0.5957 -0.6281
19286TIP3   OH279348   3.627   4.038  14.540  0.1245 -0.2493 -0.3116
19286TIP3    H179349   3.571   4.114  14.532 -0.3610 -0.6757 -1.0952
19286TIP3    H279350   3.578   3.977  14.596  0.0857 -0.3668 -0.4724
19287TIP3   OH279351   6.412   1.253   4.363  0.1652  0.1153 -0.0672
19287TIP3    H179352   6.427   1.283   4.274  0.2187  2.0451  0.5435
19287TIP3    H279353   6.375   1.329   4.408  2.0764 -0.1141  2.0758
19288TIP3   OH279354   2.295   0.445   4.933  0.3046  0.5495  0.5331
19288TIP3    H179355   2.251   0.519   4.891  0.1439  0.5066  0.6215
19288TIP3    H279356   2.343   0.401   4.863 -0.1999  0.3052  0.3361
19289TIP3   OH279357   1.449   5.878  14.279 -0.0231  0.8604  0.3732
19289TIP3    H179358   1.475   5.953  14.225  1.4144  1.0686  1.2882
19289TIP3    H279359   1.502   5.806  14.247 -1.5965  0.1237 -0.6823
19290TIP3   OH279360   4.369   4.718   2.602 -0.5451 -0.2195  0.4521
19290TIP3    H179361   4.284   4.735   2.563 -0.0803 -0.3472 -0.6500
19290TIP3    H279362   4.428   4.781   2.561  0.2682 -1.4032 -0.2473
19291TIP3   OH279363   3.186   2.069   4.989  0.2911 -0.3640  0.0890
19291TIP3    H179364   3.122   2.062   5.060  1.0705 -1.0508  0.7430
19291TIP3    H279365   3.137   2.044   4.911 -0.0583 -1.6742  0.6933
19292TIP3   OH279366   2.888   3.839  12.276  0.3058  0.1108  0.3555
19292TIP3    H179367   2.936   3.764  12.311  0.8993  1.0011  1.5169
19292TIP3    H279368   2.938   3.865  12.198  2.4439  1.6730  2.1097
19293TIP3   OH279369   4.703   4.738   3.589  0.0024 -0.8325  0.1062
19293TIP3    H179370   4.625   4.747   3.644 -2.0438  1.0875 -2.8237
19293TIP3    H279371   4.683   4.666   3.530  0.2221 -0.0551 -0.9504
19294TIP3   OH279372   5.097   4.178   2.126  0.3398 -0.4132  0.6200
19294TIP3    H179373   5.071   4.095   2.088 -0.5182  0.3200 -0.4740
19294TIP3    H279374   5.137   4.155   2.210 -0.1396 -1.8871  0.4717
19295TIP3   OH279375   5.580   1.352  15.806  0.1468  0.9557 -0.6704
19295TIP3    H179376   5.554   1.305  15.726  0.5529 -0.8129  0.1917
19295TIP3    H279377   5.509   1.414  15.821 -0.2308  0.9021 -2.0679
19296TIP3   OH279378   4.774   2.829   0.905  0.0873  0.1483  0.4396
19296TIP3    H179379   4.757   2.919   0.877 -0.2042  0.2368  0.8901
19296TIP3    H279380   4.816   2.787   0.829  0.2568  0.6710  0.2429
19297TIP3   OH279381   3.620   1.632   6.395  0.1429  0.4053 -0.5155
19297TIP3    H179382   3.715   1.634   6.409  0.1731  1.8099 -0.8023
19297TIP3    H279383   3.603   1.545   6.360  1.5693  0.7010 -2.0956
19298TIP3   OH279384   0.969   1.541  16.140  0.3179 -0.0703  0.2971
19298TIP3    H179385   0.911   1.530  16.065 -1.5987  1.1691  1.5002
19298TIP3    H279386   0.913   1.527  16.216  0.9993  3.1389  1.5936
19299TIP3   OH279387   5.333   0.876   2.548  0.2097 -0.6132  0.0043
19299TIP3    H179388   5.316   0.809   2.613 -1.8781  0.0892  0.2534
19299TIP3    H279389   5.427   0.868   2.529  0.1960 -2.9603  0.6757
19300TIP3   OH279390   6.280   1.835   4.541 -0.3729  0.6074 -0.7987
19300TIP3    H179391   6.191   1.865   4.557 -0.4897 -0.0506 -0.1565
19300TIP3    H279392   6.324   1.849   4.625  0.2346  1.2696 -1.2126
19301TIP3   OH279393   2.783   4.290   3.055  0.3802 -0.0858 -0.2499
19301TIP3    H179394   2.816   4.240   2.981  1.5362  0.3030 -0.0292
19301TIP3    H279395   2.862   4.322   3.099 -0.2247 -1.2813  1.8270
19302TIP3   OH279396   3.888   4.647   2.607  0.5617  0.4937 -0.0060
19302TIP3    H179397   3.846   4.647   2.693 -0.6924  0.3542 -0.5967
19302TIP3    H279398   3.826   4.601   2.550  1.3169  0.6863 -1.0143
19303TIP3   OH279399   2.389   2.937   1.974  0.2027  0.3332 -0.3022
19303TIP3    H179400   2.344   2.996   2.035  0.8237 -0.1131  0.6154
19303TIP3    H279401   2.410   2.860   2.027  0.7261 -0.0868 -1.1047
19304TIP3   OH279402   6.684   4.111  14.790 -0.2659  0.2066 -0.1888
19304TIP3    H179403   6.707   4.054  14.864  2.1349 -0.3905 -1.2900
19304TIP3    H279404   6.591   4.096  14.777 -0.1837 -1.7934  1.0010
19305TIP3   OH279405   3.975   6.237   6.229  0.2219  0.2324  0.7362
19305TIP3    H179406   3.884   6.212   6.248  0.7925 -1.4661  1.3860
19305TIP3    H279407   4.026   6.158   6.246  1.5971  0.5121 -1.6345
19306TIP3   OH279408   1.056   0.476   0.601  0.0083 -0.4827  0.0903
19306TIP3    H179409   1.065   0.431   0.685 -2.6083 -3.8824 -1.2099
19306TIP3    H279410   0.987   0.541   0.615  0.2539 -0.3620  0.7725
19307TIP3   OH279411   6.268   3.569  12.261  0.1715 -0.2258  0.0238
19307TIP3    H179412   6.220   3.510  12.320  0.4384  0.0044  0.4752
19307TIP3    H279413   6.232   3.550  12.174  0.1366 -0.9434  0.1824
19308TIP3   OH279414   4.949   5.224   6.452  0.7796 -0.0330 -0.2046
19308TIP3    H179415   5.032   5.271   6.442  0.2121  1.1940  0.6701
19308TIP3    H279416   4.903   5.271   6.521 -1.4609  0.4266 -1.9053
19309TIP3   OH279417   0.700   3.355   0.101  0.0186 -0.1131  0.4681
19309TIP3    H179418   0.618   3.390   0.135 -0.7975 -0.1222 -1.3738
19309TIP3    H279419   0.679   3.266   0.074  0.5172  0.0213 -0.4023
19310TIP3   OH279420   1.088   5.087   2.994 -0.5687  0.2418 -0.5528
19310TIP3    H179421   1.151   5.019   2.970  0.8391  1.4912 -0.5332
19310TIP3    H279422   1.116   5.116   3.080 -2.5957 -0.7397  0.5165
19311TIP3   OH279423   3.196   3.162  12.890  0.1342  0.2715  0.4850
19311TIP3    H179424   3.207   3.071  12.861 -0.5237  0.6439 -1.0265
19311TIP3    H279425   3.142   3.203  12.822 -0.8417  1.4203  1.8794
19312TIP3   OH279426   3.310   4.239  14.731 -0.3551  0.0803 -0.2594
19312TIP3    H179427   3.307   4.335  14.722 -3.4574 -0.0558 -2.2617
19312TIP3    H279428   3.277   4.222  14.819 -0.6948  0.8338 -0.2279
19313TIP3   OH279429   5.404   1.593   1.305 -0.8431  0.1806  0.1793
19313TIP3    H179430   5.336   1.525   1.312 -0.8227 -0.0043 -1.1421
19313TIP3    H279431   5.389   1.632   1.219 -0.5240  1.5100  0.7112
19314TIP3   OH279432   5.069   0.225  12.831  0.1105  0.3293 -0.7145
19314TIP3    H179433   5.014   0.298  12.859  0.7084  1.2975 -1.9444
19314TIP3    H279434   5.019   0.182  12.761  0.1135  0.0666 -0.5558
19315TIP3   OH279435   2.073   3.864   5.601  0.4348 -0.5086  0.0558
19315TIP3    H179436   2.046   3.886   5.690  0.5224  1.3774 -0.3477
19315TIP3    H279437   2.021   3.787   5.579 -0.5823 -0.2027  1.2402
19316TIP3   OH279438   0.844   4.310   5.500  0.0077  0.2491  0.6171
19316TIP3    H179439   0.875   4.388   5.545 -0.3106  0.6745  0.1161
19316TIP3    H279440   0.898   4.239   5.534 -2.2507 -0.0383  4.0595
19317TIP3   OH279441   1.043   6.264   5.478  0.3263 -0.3096  0.1328
19317TIP3    H179442   1.071   6.312   5.556 -0.0904 -0.0387  0.1205
19317TIP3    H279443   1.110   6.284   5.412  0.4312 -0.1647  0.2845
19318TIP3   OH279444   0.783   2.842   2.876 -0.4507  0.0799 -0.2506
19318TIP3    H179445   0.744   2.927   2.898  1.5363  0.9623  0.0950
19318TIP3    H279446   0.720   2.801   2.817 -0.5815  2.6734 -2.0682
19319TIP3   OH279447   1.017   5.252   0.439  0.1178 -0.5635  0.6921
19319TIP3    H179448   0.980   5.176   0.395 -0.1459  0.3403 -0.7346
19319TIP3    H279449   1.111   5.247   0.421 -0.1258  0.4396 -1.1046
19320TIP3   OH279450   0.096   4.815  12.976  0.1687  0.4577 -0.4258
19320TIP3    H179451   0.051   4.799  13.059 -0.9834  1.5630 -0.8018
19320TIP3    H279452   0.027   4.849  12.918  1.4326  2.0310 -1.0783
19321TIP3   OH279453   4.765   4.912   0.231 -0.1168 -0.7298 -0.1765
19321TIP3    H179454   4.754   5.006   0.241 -0.1517 -0.6786 -0.6741
19321TIP3    H279455   4.816   4.885   0.307  0.1598 -0.2572 -0.1917
19322TIP3   OH279456   2.143   5.409  16.590 -0.2083  0.2302  0.4352
19322TIP3    H179457   2.068   5.406  16.650  0.3460 -1.6886  1.0768
19322TIP3    H279458   2.105   5.391  16.504 -0.7544  1.2668  0.4408
19323TIP3   OH279459   1.231   1.566   4.280 -0.1052  0.3593 -0.0648
19323TIP3    H179460   1.170   1.631   4.316 -0.9794  0.0919 -1.0161
19323TIP3    H279461   1.261   1.604   4.198  0.4764  0.1702  0.0562
19324TIP3   OH279462   2.685   5.762  14.622 -0.2769 -0.6576 -1.1157
19324TIP3    H179463   2.653   5.715  14.545  2.5880 -1.8475 -1.7010
19324TIP3    H279464   2.727   5.695  14.675 -0.2251  0.5199  0.3966
19325TIP3   OH279465   0.952   1.265  14.498 -0.0862 -0.1180  0.2633
19325TIP3    H179466   0.896   1.193  14.526 -2.0566  0.9429 -0.6836
19325TIP3    H279467   1.005   1.229  14.427 -0.2740 -0.9139  0.5233
19326TIP3   OH279468   4.938   5.742  15.732  0.2374 -0.1566  0.5078
19326TIP3    H179469   4.999   5.743  15.658  0.3799 -0.7495  0.6192
19326TIP3    H279470   4.855   5.771  15.693  0.7075  1.2546  0.4851
19327TIP3   OH279471   4.499   0.909  15.126  0.4493 -0.2433 -0.5996
19327TIP3    H179472   4.547   0.879  15.048 -1.0345  0.0684 -1.6799
19327TIP3    H279473   4.410   0.876  15.113  0.1385 -0.0241  0.8963
19328TIP3   OH279474   0.172   1.092  13.273  0.1016 -0.1501 -0.2907
19328TIP3    H179475   0.137   1.069  13.359  1.6802 -1.1321  0.1191
19328TIP3    H279476   0.249   1.145  13.291  0.3423 -0.2071 -1.1148
19329TIP3   OH279477   1.077   4.583  13.901  0.0955  0.4395 -0.0837
19329TIP3    H179478   1.146   4.582  13.968  0.5335  1.1490 -0.5095
19329TIP3    H279479   1.004   4.629  13.943  0.5826  1.4206 -0.2881
19330TIP3   OH279480   5.037   4.576  13.634  0.4776 -0.1668  0.0852
19330TIP3    H179481   5.053   4.495  13.682  0.7660 -0.1124  0.0839
19330TIP3    H279482   5.074   4.645  13.689 -2.1046  0.2956  1.3770
19331TIP3   OH279483   4.792   1.559  10.374 -0.3695  0.5145  0.2105
19331TIP3    H179484   4.813   1.638  10.424  0.3260  1.0712 -0.9283
19331TIP3    H279485   4.847   1.491  10.414  0.4114  1.0205  0.0306
19332TIP3   OH279486   4.563   1.692  16.361  0.9755  0.4407  0.2441
19332TIP3    H179487   4.474   1.680  16.329 -0.1676  2.6162  2.3591
19332TIP3    H279488   4.569   1.637  16.438  0.7930  1.6521  1.1568
19333TIP3   OH279489   1.026   0.293  14.923  0.1065 -0.0550 -0.1225
19333TIP3    H179490   1.082   0.369  14.907 -2.0829  1.8274  0.4458
19333TIP3    H279491   1.015   0.252  14.838  0.0932  1.2533 -0.7831
19334TIP3   OH279492   3.803   3.961   4.668  0.5512  0.1485  0.2102
19334TIP3    H179493   3.721   3.937   4.625  0.2047  2.7335 -0.7684
19334TIP3    H279494   3.869   3.903   4.629 -0.6429 -1.3072  0.3095
19335TIP3   OH279495   0.442   5.592  10.862  0.0168 -0.1331  0.2181
19335TIP3    H179496   0.530   5.593  10.824  0.7499 -1.7754  1.6974
19335TIP3    H279497   0.385   5.568  10.789  0.9687 -0.2220 -0.5198
19336TIP3   OH279498   3.748   2.810   5.728 -0.1156 -0.4085  0.6197
19336TIP3    H179499   3.775   2.869   5.798 -0.6154  0.7144 -0.0838
19336TIP3    H279500   3.675   2.857   5.685 -0.0142 -1.1891 -0.4461
19337TIP3   OH279501   5.345   4.859  14.912  0.3571  0.2907 -0.3855
19337TIP3    H179502   5.416   4.809  14.870 -0.3258  0.2418 -1.5186
19337TIP3    H279503   5.271   4.798  14.912  0.1731  0.5155  0.3391
19338TIP3   OH279504   6.015   5.793  14.891 -0.2042 -0.4877  0.6134
19338TIP3    H179505   5.944   5.733  14.868 -0.4087 -1.1116  2.7309
19338TIP3    H279506   5.972   5.872  14.924  0.0976  0.0047 -0.1202
19339TIP3   OH279507   0.451   4.551   3.566  0.7744 -0.0160  0.4844
19339TIP3    H179508   0.519   4.533   3.500  1.4334 -1.1635  1.4337
19339TIP3    H279509   0.395   4.474   3.564  1.5847 -0.7101  2.1599
19340TIP3   OH279510   3.855   4.534  15.879  1.0854  0.8413  0.1888
19340TIP3    H179511   3.856   4.630  15.884  1.6297  0.9606 -1.4987
19340TIP3    H279512   3.773   4.514  15.834 -0.4227  0.2952  2.9711
19341TIP3   OH279513   2.852   1.903  15.069 -0.1982 -0.0137  0.6761
19341TIP3    H179514   2.919   1.860  15.121 -2.2484 -0.8618  2.8009
19341TIP3    H279515   2.787   1.835  15.052 -1.5149  1.2243  0.5013
19342TIP3   OH279516   6.716   1.336   4.438 -0.1846  0.2677  0.5730
19342TIP3    H179517   6.711   1.431   4.429 -0.0812  0.1233 -1.3547
19342TIP3    H279518   6.807   1.319   4.465  0.0005  0.6799  0.2205
19343TIP3   OH279519   6.169   6.029   2.575  0.1131  0.7015 -0.1657
19343TIP3    H179520   6.194   6.010   2.485 -0.6636 -0.6425 -0.1116
19343TIP3    H279521   6.079   6.060   2.569 -0.4287 -0.7434  0.2694
19344TIP3   OH279522   0.941   5.471  16.630 -0.5017  0.1317  0.2332
19344TIP3    H179523   0.957   5.521  16.709  0.1146  0.0368  0.1697
19344TIP3    H279524   0.857   5.503  16.598  0.7065  2.4740 -0.8290
19345TIP3   OH279525   1.445   0.001   2.547 -0.0341 -0.5346  0.6996
19345TIP3    H179526   1.409  -0.048   2.473 -1.7485 -0.5421  1.4894
19345TIP3    H279527   1.387   0.077   2.555  2.2211  1.4067 -0.1586
19346TIP3   OH279528   6.173   1.264  15.385  0.0102 -0.5240  0.1555
19346TIP3    H179529   6.192   1.337  15.443  0.6090 -1.7530  1.5619
19346TIP3    H279530   6.232   1.276  15.311 -1.0162  1.2618 -0.4240
19347TIP3   OH279531   3.922   2.287  11.207 -0.4363 -0.2098  0.7535
19347TIP3    H179532   3.945   2.194  11.197 -0.2175 -0.1673  0.8502
19347TIP3    H279533   3.878   2.291  11.292  1.3863  0.1007  1.7548
19348TIP3   OH279534   6.616   2.008  13.924  0.1870 -0.2790 -0.0032
19348TIP3    H179535   6.579   2.000  14.012 -0.6548 -2.3886 -0.5011
19348TIP3    H279536   6.622   1.918  13.892 -0.8135  0.5041 -2.6342
19349TIP3   OH279537   6.118   3.819  15.281 -0.2337  0.1481  0.0443
19349TIP3    H179538   6.148   3.889  15.338 -0.7873  0.5754 -0.1863
19349TIP3    H279539   6.163   3.741  15.313  1.1309  0.7735 -0.3060
19350TIP3   OH279540   1.509   0.095  10.718 -0.1373 -0.4171  0.2024
19350TIP3    H179541   1.567   0.169  10.734 -1.6391  0.9738 -0.4312
19350TIP3    H279542   1.549   0.021  10.764  1.3016  0.8360  1.0254
19351TIP3   OH279543   1.986   2.820  16.709 -0.0523 -0.1380 -0.3510
19351TIP3    H179544   1.911   2.870  16.674  1.8563  2.8243 -0.5987
19351TIP3    H279545   2.016   2.767  16.635 -2.3650 -2.1190  0.0132
19352TIP3   OH279546   0.284   5.447  14.541 -0.4449  0.4807 -0.5784
19352TIP3    H179547   0.369   5.410  14.567 -0.9806 -0.5217 -0.2019
19352TIP3    H279548   0.253   5.389  14.472 -0.4511  1.3480 -1.3261
19353TIP3   OH279549   4.612   2.022   5.358 -0.0470 -0.2389  1.2880
19353TIP3    H179550   4.596   2.071   5.277 -0.2486 -0.4101  1.2233
19353TIP3    H279551   4.616   1.931   5.329  2.6376 -0.1262  1.0284
19354TIP3   OH279552   5.112   4.376  15.878 -0.3386 -0.6654 -0.1225
19354TIP3    H179553   5.071   4.421  15.804 -1.5680 -2.2450 -0.4478
19354TIP3    H279554   5.076   4.419  15.955  1.6011  1.5795 -0.3485
19355TIP3   OH279555   3.951   0.320  13.167 -0.0372  0.0038  0.3837
19355TIP3    H179556   3.938   0.302  13.260 -1.9164 -1.5011 -0.1057
19355TIP3    H279557   3.901   0.400  13.151  1.0180  0.7682  0.8179
19356TIP3   OH279558   4.730   0.657  12.293  0.1278  0.0456  0.4401
19356TIP3    H179559   4.694   0.569  12.303  1.8365 -0.5486  2.3597
19356TIP3    H279560   4.825   0.644  12.302  0.6928  1.7517 -2.2321
19357TIP3   OH279561   1.001   2.353  11.233 -0.1072  0.0821 -0.1220
19357TIP3    H179562   1.056   2.411  11.181 -1.0623  1.1967  0.0630
19357TIP3    H279563   0.934   2.323  11.173  0.8593 -1.5375 -0.4315
19358TIP3   OH279564   3.275   1.030   2.714  0.4840  0.0521  0.0240
19358TIP3    H179565   3.286   0.984   2.631 -2.5855  1.1536 -1.1408
19358TIP3    H279566   3.244   1.117   2.690  1.7430  1.2311  2.3025
19359TIP3   OH279567   0.675   4.701   4.231  0.4305 -0.8402  0.0521
19359TIP3    H179568   0.616   4.634   4.264 -0.1013 -0.7439 -0.6843
19359TIP3    H279569   0.647   4.782   4.274  0.6996 -0.9797  0.4953
19360TIP3   OH279570   4.073   2.490   2.938  0.3537 -0.1095 -0.3911
19360TIP3    H179571   4.158   2.478   2.896  0.2638 -0.6310 -0.4212
19360TIP3    H279572   4.027   2.408   2.924 -0.1297  0.1412 -0.3068
19361TIP3   OH279573   2.499   2.187  15.792 -0.4354  0.4824 -0.2508
19361TIP3    H179574   2.543   2.224  15.716  0.1282  3.3587  1.3729
19361TIP3    H279575   2.471   2.262  15.843 -1.6506 -1.3432  1.9533
19362TIP3   OH279576   1.952   0.390   0.978  0.0629 -0.2651  0.1283
19362TIP3    H179577   2.012   0.425   0.913 -2.6578  1.7792 -1.5088
19362TIP3    H279578   1.926   0.466   1.030 -0.2728 -1.2880  1.5181
19363TIP3   OH279579   5.604   3.234  15.762  0.4825 -0.6017 -0.5074
19363TIP3    H179580   5.526   3.289  15.762  0.5795 -0.4594 -1.5976
19363TIP3    H279581   5.570   3.145  15.769  0.3611 -0.4748  4.5347
19364TIP3   OH279582   4.407   2.524   1.005 -0.4006 -0.0512  0.2470
19364TIP3    H179583   4.352   2.499   1.079 -0.3314  0.9553  0.6522
19364TIP3    H279584   4.446   2.442   0.975 -3.0202 -1.0335 -0.8073
19365TIP3   OH279585   4.755   6.508  10.755  0.1065 -0.1873  0.3728
19365TIP3    H179586   4.780   6.416  10.763  0.2904 -0.4431 -2.2576
19365TIP3    H279587   4.837   6.554  10.743 -0.0013  0.3286  1.4942
19366TIP3   OH279588   3.613   3.123  16.695 -0.0093  0.1257 -0.0947
19366TIP3    H179589   3.579   3.213  16.690  0.1128  0.4671  3.2501
19366TIP3    H279590   3.592   3.085  16.610 -0.3611  3.1926 -1.5265
19367TIP3   OH279591   3.818   5.146   0.513  0.4296 -0.2713 -0.1956
19367TIP3    H179592   3.871   5.084   0.563  0.2782  0.4421  0.8910
19367TIP3    H279593   3.789   5.210   0.578  0.2605  0.7201 -1.2204
19368TIP3   OH279594   2.073   1.796   4.629  0.7225 -0.1848 -0.0238
19368TIP3    H179595   2.051   1.851   4.553 -1.1072 -0.5127  0.2265
19368TIP3    H279596   2.156   1.832   4.661  0.2246  1.6342 -0.6346
19369TIP3   OH279597   3.215   1.128   5.768  0.6810 -0.1879 -0.4161
19369TIP3    H179598   3.224   1.142   5.862  1.9728 -1.6349 -0.2734
19369TIP3    H279599   3.287   1.069   5.746 -0.8105 -1.5583 -1.9240
19370TIP3   OH279600   0.149   2.317  10.729  0.1803 -0.1026  0.5038
19370TIP3    H179601   0.138   2.406  10.761 -0.2867 -0.0840  0.3026
19370TIP3    H279602   0.154   2.326  10.634 -0.3683 -0.3310  0.4473
19371TIP3   OH279603   3.377   2.034  10.700  0.1596  1.0445  0.5739
19371TIP3    H179604   3.408   1.948  10.670 -1.3847  1.3693 -2.2482
19371TIP3    H279605   3.297   2.014  10.750 -0.8442  0.8548 -1.0495
19372TIP3   OH279606   3.333   6.620  11.680 -0.5810  0.1636 -0.1283
19372TIP3    H179607   3.334   6.712  11.651  2.1025 -0.1035 -1.1505
19372TIP3    H279608   3.369   6.571  11.606  0.0576 -1.4304  1.1763
19373TIP3   OH279609   4.891   3.139  13.994  0.9403  0.0902 -0.3573
19373TIP3    H179610   4.983   3.138  13.967  0.6308  0.4759 -1.4616
19373TIP3    H279611   4.863   3.229  13.979  0.1825 -0.2036 -0.7306
19374TIP3   OH279612   0.656   0.560   3.096 -0.5006  0.0530 -0.0867
19374TIP3    H179613   0.725   0.545   3.032  0.5534 -1.0611  1.2427
19374TIP3    H279614   0.664   0.654   3.117 -0.4322  0.2783 -1.0851
19375TIP3   OH279615   0.367   4.854   2.805 -0.4295 -0.8551 -0.0593
19375TIP3    H179616   0.388   4.765   2.774  1.3103 -0.2182 -0.7995
19375TIP3    H279617   0.440   4.878   2.862 -0.0112  0.7303 -1.2075
19376TIP3   OH279618   0.476   5.788   2.321  0.3128 -0.1426 -0.1436
19376TIP3    H179619   0.396   5.779   2.374 -1.2813  1.3000 -2.1662
19376TIP3    H279620   0.487   5.703   2.279  0.9682 -0.9455  1.5570
19377TIP3   OH279621   1.042   4.149  12.501  0.3453 -0.4509  0.4379
19377TIP3    H179622   1.077   4.237  12.496  1.2548 -0.8607 -0.9794
19377TIP3    H279623   0.947   4.161  12.495  0.4655  0.4271  0.1155
19378TIP3   OH279624   3.670   5.404  15.790  0.4639 -0.0288  0.2526
19378TIP3    H179625   3.732   5.477  15.781  0.0200  0.5710  1.6507
19378TIP3    H279626   3.710   5.347  15.856  1.2864 -1.6232 -1.5431
19379TIP3   OH279627   3.455   4.871   6.111  0.1973  0.1742  0.0813
19379TIP3    H179628   3.391   4.851   6.179 -0.0539 -1.3218 -0.5459
19379TIP3    H279629   3.535   4.892   6.158 -0.4998  1.1560  0.8625
19380TIP3   OH279630   4.107   5.912   4.528 -0.7522 -0.3585  0.0153
19380TIP3    H179631   4.099   6.000   4.565  0.3988 -0.2528  0.0708
19380TIP3    H279632   4.174   5.870   4.582  1.0157 -0.1982 -1.9065
19381TIP3   OH279633   2.984   6.020   1.144  0.6087  0.1994 -0.3343
19381TIP3    H179634   2.999   6.074   1.067 -0.5585  1.4145  0.2596
19381TIP3    H279635   2.973   5.931   1.109  1.8825  0.4189 -1.3757
19382TIP3   OH279636   2.903   2.144   4.572  0.5359  0.2788  1.0375
19382TIP3    H179637   2.934   2.184   4.491  0.6309 -1.3243  0.2446
19382TIP3    H279638   2.816   2.181   4.586  0.2413  0.0852 -0.1681
19383TIP3   OH279639   6.037   4.801  12.489 -0.1969  0.0833  0.5191
19383TIP3    H179640   5.974   4.774  12.422 -0.2917  0.8709  0.2849
19383TIP3    H279641   5.988   4.862  12.545  0.2857  0.5069  0.4813
19384TIP3   OH279642   3.325   3.644   2.525 -0.2920 -0.4305 -0.2458
19384TIP3    H179643   3.336   3.610   2.614  0.1548  0.3206 -0.0080
19384TIP3    H279644   3.257   3.711   2.533  0.2426  0.1343 -0.3285
19385TIP3   OH279645   1.556   6.140   3.669  0.0206 -0.4507 -0.3368
19385TIP3    H179646   1.567   6.209   3.603  0.4718 -0.9902 -0.8456
19385TIP3    H279647   1.629   6.153   3.729  0.0759 -0.4489 -0.4038
19386TIP3   OH279648   4.383   6.370  13.582  0.7796 -0.4431 -0.2719
19386TIP3    H179649   4.321   6.321  13.528 -0.2770 -0.1453  0.6348
19386TIP3    H279650   4.451   6.306  13.604 -0.2283 -1.3389  0.3405
19387TIP3   OH279651   5.867   0.120  15.037 -0.9454  0.8387  0.1570
19387TIP3    H179652   5.892   0.071  15.115 -0.6173  0.1957 -0.3390
19387TIP3    H279653   5.926   0.196  15.036  0.2122 -0.0389 -0.3609
19388TIP3   OH279654   3.848   5.062  12.671 -0.1798 -0.1938 -0.2069
19388TIP3    H179655   3.785   5.135  12.669  1.6196  1.4181 -1.5155
19388TIP3    H279656   3.932   5.102  12.649  0.9687 -2.6206 -0.5306
19389TIP3   OH279657   4.146   2.692  14.810 -0.1252 -0.3698  0.4612
19389TIP3    H179658   4.187   2.612  14.842 -0.6296 -0.4440  0.9296
19389TIP3    H279659   4.093   2.723  14.883  0.9829  1.0385  0.7189
19390TIP3   OH279660   2.599   4.805   4.093 -0.4392  0.0329  0.3018
19390TIP3    H179661   2.677   4.769   4.051  1.0426  3.0455  0.2052
19390TIP3    H279662   2.633   4.850   4.171 -2.4068 -0.4931  1.5331
19391TIP3   OH279663   0.729   3.391  12.106 -0.0234  0.3201 -1.0604
19391TIP3    H179664   0.739   3.304  12.067 -3.2693 -0.0833 -1.2261
19391TIP3    H279665   0.713   3.448  12.031  2.1054  1.1246 -0.9505
19392TIP3   OH279666   6.703   5.663  11.528 -0.1096 -0.0007 -0.4434
19392TIP3    H179667   6.772   5.618  11.478 -0.1158  0.3593 -0.7775
19392TIP3    H279668   6.726   5.648  11.619  0.5482  0.3166 -0.5521
19393TIP3   OH279669   2.404   0.438   4.091 -0.1450  0.8499  0.4287
19393TIP3    H179670   2.352   0.454   4.012 -1.0189  0.3939  0.9017
19393TIP3    H279671   2.351   0.473   4.162  1.5903  3.2910  0.6423
19394TIP3   OH279672   1.871   4.304   3.080 -0.0001  0.2226  0.1449
19394TIP3    H179673   1.796   4.247   3.062 -0.3568  0.8712 -0.5092
19394TIP3    H279674   1.945   4.261   3.036  0.1327 -0.6802  1.2183
19395TIP3   OH279675   3.240   3.496  14.205 -0.1514  0.1123  0.5152
19395TIP3    H179676   3.171   3.495  14.272  1.0998 -0.4578  1.8655
19395TIP3    H279677   3.195   3.520  14.124 -2.0283 -0.8573  1.2165
19396TIP3   OH279678   3.129   5.011  14.238 -0.0255 -0.2575  0.9660
19396TIP3    H179679   3.177   5.017  14.156 -0.3872  1.8125  0.8444
19396TIP3    H279680   3.121   4.917  14.255  0.6123 -0.7149 -1.0221
19397TIP3   OH279681   1.197   4.457   1.020 -0.6365  0.1141  0.5886
19397TIP3    H179682   1.129   4.427   0.960  1.5963 -2.4681 -0.9121
19397TIP3    H279683   1.278   4.451   0.970  1.0388  0.4426  3.0497
19398TIP3   OH279684   6.572   4.896   4.358  0.1989 -0.0122 -0.0880
19398TIP3    H179685   6.642   4.944   4.313  0.8611 -1.7424 -0.9762
19398TIP3    H279686   6.498   4.898   4.297 -0.1135  0.6950  0.2991
19399TIP3   OH279687   3.327   6.268   3.950 -0.2127 -0.0901  0.2634
19399TIP3    H179688   3.423   6.271   3.958 -0.1326  2.6683 -0.7352
19399TIP3    H279689   3.312   6.225   3.865  0.2418  0.8401 -0.3101
19400TIP3   OH279690   3.901   2.959  14.119 -0.1082 -0.1026  0.0129
19400TIP3    H179691   3.847   2.990  14.191 -0.4013  1.3809 -0.8044
19400TIP3    H279692   3.845   2.965  14.042  0.5718 -0.5039 -0.5299
19401TIP3   OH279693   5.572   4.440  11.990 -0.4542  0.2219 -0.6558
19401TIP3    H179694   5.499   4.463  12.046  0.1703 -0.7818  0.6337
19401TIP3    H279695   5.542   4.362  11.942 -0.7911  0.7635 -1.3522
19402TIP3   OH279696   2.180   1.342   0.843  0.1810  0.9836 -0.2188
19402TIP3    H179697   2.265   1.353   0.886 -0.2870  0.8906  0.7567
19402TIP3    H279698   2.196   1.278   0.774  1.6631  3.3245 -2.2526
19403TIP3   OH279699   3.969   3.061   2.312  0.5460 -0.2274  0.0191
19403TIP3    H179700   3.972   3.056   2.408  0.5391 -0.8393 -0.0047
19403TIP3    H279701   4.050   3.020   2.284 -0.6309 -2.5362 -0.2771
19404TIP3   OH279702   5.485   2.913   1.780 -0.1091  0.5226  0.1506
19404TIP3    H179703   5.489   2.991   1.835 -0.6792 -0.1148  1.1284
19404TIP3    H279704   5.558   2.923   1.718  1.6001  0.4943  2.0615
19405TIP3   OH279705   1.442   4.658  15.854  0.1227 -0.0936  0.1436
19405TIP3    H179706   1.382   4.674  15.782 -0.4722 -2.2454  0.0919
19405TIP3    H279707   1.495   4.583  15.826 -0.0793 -0.9542  1.8764
19406TIP3   OH279708   1.256   3.541  12.816 -0.3644 -0.3231  0.1125
19406TIP3    H179709   1.205   3.461  12.827  0.4639 -0.9228 -0.2731
19406TIP3    H279710   1.347   3.510  12.811 -0.1557  0.4661 -1.8525
19407TIP3   OH279711   1.278   1.902   4.256 -0.4406 -0.1495 -0.4509
19407TIP3    H179712   1.323   1.875   4.176 -0.3586 -0.6018 -0.2557
19407TIP3    H279713   1.272   1.997   4.249  2.6027  0.2400  0.5734
19408TIP3   OH279714   6.307   2.040  11.568  0.2679  0.3416  0.0581
19408TIP3    H179715   6.283   2.097  11.494  1.3380  1.2414  0.3818
19408TIP3    H279716   6.363   1.973  11.529  0.0330  0.2479 -0.1174
19409TIP3   OH279717   0.103   3.519   3.079 -0.2695  0.3551  0.4931
19409TIP3    H179718   0.082   3.529   2.986  0.8243  1.2571  0.3222
19409TIP3    H279719   0.151   3.437   3.084  2.1748  1.6563 -0.2356
19410TIP3   OH279720   4.663   1.597  15.995  0.5555  0.0694  0.0719
19410TIP3    H179721   4.661   1.642  16.079 -0.3055 -0.9474  0.6328
19410TIP3    H279722   4.685   1.506  16.018 -0.7618 -0.4620 -0.6604
19411TIP3   OH279723   0.996   2.134   6.276 -0.2694 -0.3340  0.4615
19411TIP3    H179724   0.960   2.054   6.237 -2.2812  0.3688  0.7313
19411TIP3    H279725   1.008   2.193   6.201  0.4967 -0.6093  0.3561
19412TIP3   OH279726   1.482   5.699   1.687 -0.0407 -0.5188 -0.1514
19412TIP3    H179727   1.402   5.655   1.715 -0.1315  0.0452  0.5090
19412TIP3    H279728   1.453   5.773   1.634  0.0085 -0.0898  0.4014
19413TIP3   OH279729   2.788   3.574   5.194  0.9422 -0.5305 -0.8655
19413TIP3    H179730   2.785   3.609   5.106 -0.2935 -2.1608 -1.5269
19413TIP3    H279731   2.697   3.554   5.216  0.9578  1.6290  1.5813
19414TIP3   OH279732   4.444   5.775  15.477  0.3936  0.0871  0.3775
19414TIP3    H179733   4.357   5.776  15.438  0.8847  0.2877 -0.7555
19414TIP3    H279734   4.434   5.824  15.559 -0.4785  0.4125  0.0863
19415TIP3   OH279735   4.176   2.626   5.026 -0.2859 -0.2014  0.2422
19415TIP3    H179736   4.194   2.664   4.940  0.3667 -0.5035  0.2371
19415TIP3    H279737   4.261   2.625   5.070 -0.6146 -0.0689  0.8836
19416TIP3   OH279738   0.596   5.764  16.338 -0.3317 -0.1179  0.2319
19416TIP3    H179739   0.640   5.771  16.254  1.8383 -0.1120  1.2964
19416TIP3    H279740   0.650   5.816  16.398 -2.3877  0.7746  1.4390
19417TIP3   OH279741   6.010   1.809  15.332  0.1412  0.5197 -0.1810
19417TIP3    H179742   6.045   1.898  15.322 -0.6904  0.7813 -0.8887
19417TIP3    H279743   6.052   1.759  15.262 -0.1704  0.6094 -0.4355
19418TIP3   OH279744   3.867   1.685  11.601  0.1064 -0.2214 -0.0029
19418TIP3    H179745   3.834   1.709  11.687  2.0825 -1.3808  1.1605
19418TIP3    H279746   3.923   1.758  11.575 -0.7590  0.2822 -0.4828
19419TIP3   OH279747   6.801   3.248   1.228 -0.5841  0.2570 -0.0270
19419TIP3    H179748   6.714   3.226   1.195 -0.8224 -0.9616  1.2999
19419TIP3    H279749   6.784   3.292   1.311  0.0421  1.7272 -0.6441
19420TIP3   OH279750   2.904   4.385  13.161 -0.6347  0.6329 -0.0516
19420TIP3    H179751   2.942   4.412  13.245  0.9624  0.4363 -0.6777
19420TIP3    H279752   2.848   4.458  13.136 -1.5074  0.5039  1.3907
19421TIP3   OH279753   3.514   0.871  14.958  0.3156 -0.1409  0.2317
19421TIP3    H179754   3.422   0.878  14.983 -0.1583 -2.5858 -0.5797
19421TIP3    H279755   3.514   0.815  14.881  2.2757  2.1017 -1.5725
19422TIP3   OH279756   2.984   0.952  16.016  0.1987  0.2218 -0.4498
19422TIP3    H179757   3.024   0.918  16.096 -1.2468  0.5646  0.4651
19422TIP3    H279758   3.017   1.041  16.008  3.4749 -1.0139 -2.4845
19423TIP3   OH279759   5.386   2.771  12.975  0.6158  0.1459  0.2677
19423TIP3    H179760   5.421   2.682  12.971  0.7854  0.1911  0.7005
19423TIP3    H279761   5.392   2.803  12.885  1.5413  0.0957  0.3016
19424TIP3   OH279762   1.723   0.285  15.625  0.0677  0.0102 -0.6577
19424TIP3    H179763   1.738   0.258  15.535  0.8142 -0.8444 -0.2875
19424TIP3    H279764   1.684   0.372  15.618  0.5094  0.1225 -1.7880
19425TIP3   OH279765   0.488   1.578   2.857 -0.1767 -0.3936  0.0933
19425TIP3    H179766   0.575   1.618   2.850  0.5008 -1.8213 -0.0884
19425TIP3    H279767   0.430   1.650   2.881  1.1556  0.4886  0.8072
19426TIP3   OH279768   0.454   0.956  13.140 -0.1746  0.1462  0.2786
19426TIP3    H179769   0.368   0.961  13.101  0.2295 -2.1819 -1.1070
19426TIP3    H279770   0.513   0.995  13.075 -0.0228  0.6336  0.6978
19427TIP3   OH279771   3.662   4.023  11.242  0.1379  0.0927  0.5249
19427TIP3    H179772   3.626   3.939  11.213 -0.0520  0.4524 -0.2914
19427TIP3    H279773   3.651   4.021  11.337 -1.5567 -0.0411  0.3571
19428TIP3   OH279774   6.799   1.847  13.304 -0.1042 -0.8272 -0.5775
19428TIP3    H179775   6.872   1.866  13.245 -0.1568 -1.2296 -0.7734
19428TIP3    H279776   6.733   1.806  13.249 -0.2815 -0.9154 -0.3018
19429TIP3   OH279777   6.255   0.806   4.079  0.5743  0.3804  0.1835
19429TIP3    H179778   6.261   0.816   4.174  1.3155  0.4344  0.1353
19429TIP3    H279779   6.345   0.819   4.048  0.6345 -1.2199 -0.3854
19430TIP3   OH279780   0.628   4.714   0.788 -0.5102 -0.7766 -0.4593
19430TIP3    H179781   0.670   4.647   0.842 -0.4590 -0.8899 -0.6379
19430TIP3    H279782   0.609   4.786   0.848  0.8059 -0.3267 -0.5571
19431TIP3   OH279783   0.473   3.514   0.155 -0.3880 -0.1004 -0.1352
19431TIP3    H179784   0.380   3.533   0.169  0.0872  0.3535  3.2366
19431TIP3    H279785   0.519   3.587   0.197  1.5495 -0.4497 -1.5024
19432TIP3   OH279786   5.156   6.172  14.166  0.3049  0.4653  0.3875
19432TIP3    H179787   5.195   6.085  14.159 -2.6586 -1.1682  1.9315
19432TIP3    H279788   5.196   6.211  14.244 -0.1284 -0.6089  1.1709
19433TIP3   OH279789   1.462   2.473   3.697  0.1206 -0.2058  0.0547
19433TIP3    H179790   1.485   2.485   3.604  0.4829  0.5555  0.2318
19433TIP3    H279791   1.462   2.561   3.733 -0.0321 -0.4963  0.7846
19434TIP3   OH279792   5.377   6.728   6.006  0.2849  0.4653 -0.3004
19434TIP3    H179793   5.447   6.743   6.069  0.1730 -0.9708  0.2100
19434TIP3    H279794   5.301   6.774   6.042 -0.6009 -2.6306  2.2403
19435TIP3   OH279795   6.750   3.987   3.913  0.1159 -0.0768  0.6201
19435TIP3    H179796   6.824   4.045   3.933  0.1233 -0.3524  1.4610
19435TIP3    H279797   6.749   3.981   3.818  0.8195  0.4004  0.5735
19436TIP3   OH279798   1.706   2.094  15.648 -0.7361 -0.1524  0.3767
19436TIP3    H179799   1.644   2.046  15.703 -0.4133 -1.8217 -0.6631
19436TIP3    H279800   1.744   2.028  15.590  0.0524  1.2906 -0.8293
19437TIP3   OH279801   5.537   1.356  12.331  0.3069 -0.1106 -0.3385
19437TIP3    H179802   5.566   1.266  12.347  0.8937 -0.0929 -1.1825
19437TIP3    H279803   5.608   1.394  12.279  1.6234  1.8430  2.6306
19438TIP3   OH279804   0.104   6.058   2.065 -0.2639 -0.1725 -0.9008
19438TIP3    H179805   0.183   6.015   2.031  0.1059 -0.3706  0.1637
19438TIP3    H279806   0.078   6.119   1.997  0.5847 -0.3936 -1.4332
19439TIP3   OH279807   4.032   0.001  13.452  0.2080  0.4007  0.7074
19439TIP3    H179808   4.005  -0.053  13.526  0.7779  0.6651  1.1097
19439TIP3    H279809   3.975  -0.027  13.380 -0.4898  0.2871  1.2911
19440TIP3   OH279810   2.851   2.857   6.679  0.2382  0.0508  0.6646
19440TIP3    H179811   2.809   2.792   6.622  2.4113 -0.3376 -0.6079
19440TIP3    H279812   2.885   2.807   6.752  1.7720 -0.2786 -0.2360
19441TIP3   OH279813   3.216   1.967   3.303  0.1334 -0.1799  0.0117
19441TIP3    H179814   3.290   1.910   3.281 -0.7273 -2.0677  1.6240
19441TIP3    H279815   3.141   1.908   3.303 -1.1801  1.4480 -0.4049
19442TIP3   OH279816   5.861   4.054   1.304 -0.0275 -0.3263  0.5841
19442TIP3    H179817   5.769   4.075   1.317 -0.0963  0.4558 -1.0072
19442TIP3    H279818   5.893   4.034   1.392 -1.4816  0.3012  1.2919
19443TIP3   OH279819   6.386   3.381  16.877  0.2274 -0.2305 -0.0885
19443TIP3    H179820   6.480   3.396  16.865 -0.0740  0.9567 -1.2179
19443TIP3    H279821   6.356   3.458  16.925 -0.0662 -0.9441  0.8931
19444TIP3   OH279822   1.889   3.036   3.207  0.6176 -0.1058  0.5293
19444TIP3    H179823   1.884   3.118   3.159 -0.0146 -0.5606 -0.1983
19444TIP3    H279824   1.831   2.976   3.160 -0.2816 -0.4801  2.0273
19445TIP3   OH279825   4.790   5.878  14.344 -0.5557  0.0639 -0.2270
19445TIP3    H179826   4.755   5.790  14.362 -0.7777  0.3086  0.5345
19445TIP3    H279827   4.884   5.864  14.334 -0.6808 -0.3746 -0.8642
19446TIP3   OH279828   4.084   1.644   3.179  0.2674 -0.0325 -0.4687
19446TIP3    H179829   4.089   1.556   3.139 -1.7828 -0.0998 -0.7214
19446TIP3    H279830   4.068   1.627   3.272 -2.4664 -0.0646 -0.8451
19447TIP3   OH279831   4.684   1.301   0.385 -0.3190  0.1336  0.3769
19447TIP3    H179832   4.687   1.240   0.312  0.5443 -0.5983  0.9963
19447TIP3    H279833   4.644   1.251   0.456  1.4577 -0.1535  1.2444
19448TIP3   OH279834   6.450   3.167   4.296 -0.0456 -0.0793 -0.1673
19448TIP3    H179835   6.493   3.249   4.268 -0.9255  0.3701 -0.2370
19448TIP3    H279836   6.364   3.170   4.254 -1.0522  0.1520  1.8168
19449TIP3   OH279837   4.227   3.008   2.060  0.1091 -0.1246 -0.4337
19449TIP3    H179838   4.204   2.917   2.079 -0.9469 -0.0036 -1.0594
19449TIP3    H279839   4.157   3.039   2.003  0.4723  1.0804 -0.2467
19450TIP3   OH279840   5.319   3.291  16.808 -0.0381 -0.2421  0.0920
19450TIP3    H179841   5.382   3.240  16.756 -1.9596 -0.7515 -1.8689
19450TIP3    H279842   5.288   3.359  16.749 -0.3447  0.8461  1.4645
19451TIP3   OH279843   5.718   5.125  12.387 -0.2916 -0.3020 -0.2052
19451TIP3    H179844   5.766   5.182  12.326 -1.4367  0.4539 -0.4323
19451TIP3    H279845   5.749   5.152  12.474  0.8678 -0.9365 -0.4082
19452TIP3   OH279846   6.284   3.529   3.949 -0.5842 -0.0475  0.0603
19452TIP3    H179847   6.352   3.463   3.965 -1.3087 -0.9713 -0.5948
19452TIP3    H279848   6.315   3.577   3.873 -0.5420 -0.3032 -0.0855
19453TIP3   OH279849   1.686   1.603  16.009  0.0353  0.2511  0.2771
19453TIP3    H179850   1.660   1.513  16.029 -0.8987  0.8072  1.7294
19453TIP3    H279851   1.663   1.615  15.917  1.7397 -1.4984 -0.4702
19454TIP3   OH279852   1.772   4.369   1.022  0.0068  0.1674  0.0885
19454TIP3    H179853   1.677   4.373   1.028  0.0510 -0.7992  2.4169
19454TIP3    H279854   1.797   4.454   0.985 -1.5752  2.1605  3.1171
19455TIP3   OH279855   3.996   3.433   0.578 -0.3333  0.1556 -0.3904
19455TIP3    H179856   4.032   3.462   0.662 -0.5878 -0.7002  0.0252
19455TIP3    H279857   3.906   3.463   0.579 -0.3967 -0.0362 -0.2622
19456TIP3   OH279858   1.873   4.676  12.657 -0.3248  0.0148 -0.1141
19456TIP3    H179859   1.784   4.642  12.650  0.1724 -1.6491  0.9902
19456TIP3    H279860   1.862   4.768  12.682 -1.7528 -0.6160  1.8157
19457TIP3   OH279861   0.975   3.463   1.974  0.4865 -0.1621 -0.0817
19457TIP3    H179862   0.925   3.506   1.905 -0.4461  0.3130  0.8636
19457TIP3    H279863   0.963   3.369   1.958  3.3396 -0.2250 -2.7516
19458TIP3   OH279864   2.297   2.123  15.020 -0.5233 -0.4237  0.1346
19458TIP3    H179865   2.230   2.178  14.979  0.8233  1.8653  0.8133
19458TIP3    H279866   2.312   2.052  14.956 -0.0522  1.8026 -2.4323
19459TIP3   OH279867   5.777   0.520  15.873  0.3507  0.0200  0.7322
19459TIP3    H179868   5.814   0.517  15.961 -1.1990  1.0791  1.4536
19459TIP3    H279869   5.733   0.435  15.863  3.4505 -1.6153 -0.4488
19460TIP3   OH279870   6.028   0.702  12.974 -0.5392  0.7667  0.2461
19460TIP3    H179871   6.035   0.633  12.908 -0.8553  0.9800 -0.0185
19460TIP3    H279872   5.943   0.742  12.956  0.0087  1.7897 -0.1632
19461TIP3   OH279873   6.107   3.756   4.700  0.3507 -0.3856  0.6413
19461TIP3    H179874   6.025   3.707   4.695  0.9290 -1.3414  0.2330
19461TIP3    H279875   6.127   3.778   4.609  0.1310  0.5853  0.8115
19462TIP3   OH279876   6.375   2.299   2.255  0.4906 -0.1429 -0.7367
19462TIP3    H179877   6.417   2.282   2.339  0.8392  1.3234 -0.5839
19462TIP3    H279878   6.281   2.300   2.275  0.5395 -0.3740 -0.4858
19463TIP3   OH279879   4.040   4.213   2.497 -0.1798  0.7225 -0.0247
19463TIP3    H179880   3.993   4.133   2.524  0.8814  0.0079 -0.2429
19463TIP3    H279881   4.010   4.229   2.408  0.8494 -0.4270 -0.6083
19464TIP3   OH279882   0.933   4.289   0.585  0.4015  0.1191 -0.2277
19464TIP3    H179883   0.885   4.213   0.619 -0.1243  0.5717  0.0494
19464TIP3    H279884   0.951   4.343   0.662  1.0518  0.1323 -0.3790
19465TIP3   OH279885   0.145   0.178   4.624  0.0157 -0.0638 -0.3595
19465TIP3    H179886   0.055   0.176   4.656  1.1563  1.9543  3.6129
19465TIP3    H279887   0.171   0.086   4.621 -1.2123 -0.5356  1.7440
19466TIP3   OH279888   6.418   4.621   0.549 -0.1522  0.6238  0.1252
19466TIP3    H179889   6.487   4.677   0.584 -0.3689  1.4208 -0.6777
19466TIP3    H279890   6.344   4.680   0.533 -0.5188  0.0487 -0.3877
19467TIP3   OH279891   5.763   5.059   2.956 -0.0675 -0.3055 -0.3091
19467TIP3    H179892   5.677   5.095   2.976  0.2678  0.2190  0.2409
19467TIP3    H279893   5.823   5.106   3.015  0.3505 -2.0653  0.7420
19468TIP3   OH279894   5.859   0.145   5.293 -0.0549  0.6870  0.0047
19468TIP3    H179895   5.806   0.065   5.291 -2.0443  1.7518  2.6776
19468TIP3    H279896   5.938   0.121   5.340 -0.5813  0.1951  0.6645
19469TIP3   OH279897   5.933   4.391   1.526  0.6484  0.0992 -0.1720
19469TIP3    H179898   5.993   4.419   1.596  0.7173 -1.0927  0.2680
19469TIP3    H279899   5.949   4.297   1.518  0.6674  0.2230 -1.8308
19470TIP3   OH279900   3.000   4.839  14.507  0.2689 -0.0430 -0.3193
19470TIP3    H179901   2.977   4.882  14.590  0.3966 -0.6347  0.0272
19470TIP3    H279902   3.095   4.829  14.511  0.2195 -0.5272 -0.3105
19471TIP3   OH279903   0.229   4.087   6.076  0.0568 -1.1274  0.1612
19471TIP3    H179904   0.236   4.179   6.100 -0.1036 -1.4276  1.4052
19471TIP3    H279905   0.282   4.041   6.140  2.0137 -1.7394 -1.7813
19472TIP3   OH279906   1.021   5.161   2.367 -0.2527 -1.1570  0.2522
19472TIP3    H179907   0.927   5.176   2.375  0.1205  1.3858  0.4422
19472TIP3    H279908   1.059   5.200   2.445  1.1645  0.1594 -1.0343
19473TIP3   OH279909   2.946   5.308  16.341  0.0948 -0.2300  0.2333
19473TIP3    H179910   2.963   5.402  16.335  0.5685 -0.3432 -0.2263
19473TIP3    H279911   3.019   5.274  16.393 -1.1371 -0.0621  2.2046
19474TIP3   OH279912   0.420   0.894   3.267 -0.7412 -0.0400  0.3692
19474TIP3    H179913   0.434   0.981   3.304  2.1115 -0.5777  0.7772
19474TIP3    H279914   0.482   0.888   3.194 -1.4614 -1.4459 -0.1745
19475TIP3   OH279915   0.164   6.621   2.646 -0.5163 -0.3246  0.5530
19475TIP3    H179916   0.227   6.618   2.574 -1.6589 -0.3080 -0.4801
19475TIP3    H279917   0.165   6.532   2.682 -1.1410 -0.8041 -0.5744
19476TIP3   OH279918   3.326   3.364  16.814 -0.6204  0.2071 -0.0247
19476TIP3    H179919   3.391   3.325  16.872 -0.2159  0.2290 -0.4598
19476TIP3    H279920   3.297   3.291  16.759  1.0513  0.7361 -1.6935
19477TIP3   OH279921   0.239   3.239  16.742 -0.0242 -0.7398  0.4249
19477TIP3    H179922   0.306   3.197  16.797  0.1541 -1.5119 -0.3600
19477TIP3    H279923   0.255   3.205  16.654  0.0804  0.9434 -0.2411
19478TIP3   OH279924   4.545   5.623  16.568  0.2148 -0.4596  0.0724
19478TIP3    H179925   4.601   5.623  16.646 -0.4012  1.4428  0.5527
19478TIP3    H279926   4.456   5.629  16.601 -0.0441  0.7192 -0.7565
19479TIP3   OH279927   5.866   3.583   0.257  0.1378 -0.0279  0.4090
19479TIP3    H179928   5.944   3.535   0.229  0.0742  0.3191 -0.4017
19479TIP3    H279929   5.810   3.584   0.180  0.2722  1.6104  0.2891
19480TIP3   OH279930   5.584   5.922   0.522  0.0055 -0.1585 -0.5260
19480TIP3    H179931   5.560   5.893   0.434 -0.5028 -0.8946 -0.1545
19480TIP3    H279932   5.518   5.883   0.579  0.6843 -0.1872  0.2545
19481TIP3   OH279933   0.039   0.046  16.799 -0.1214  0.5201 -0.3797
19481TIP3    H179934   0.018   0.048  16.892  0.0211  1.0340 -0.3583
19481TIP3    H279935   0.124   0.003  16.794 -0.1472  0.4578 -0.2768
19482TIP3   OH279936   4.327   3.382   3.599  0.1701  0.2785 -0.0314
19482TIP3    H179937   4.286   3.369   3.514 -0.2844 -0.6159  0.3065
19482TIP3    H279938   4.274   3.329   3.659  1.4133 -0.3615  0.5310
19483TIP3   OH279939   2.762   5.105  13.306 -0.3186  0.2750  0.7135
19483TIP3    H179940   2.711   5.169  13.355 -0.2564 -0.8476  2.2943
19483TIP3    H279941   2.843   5.095  13.356 -0.6453 -1.5828  0.9119
19484TIP3   OH279942   2.888   6.539   0.694  0.6917 -0.1237 -0.3469
19484TIP3    H179943   2.915   6.457   0.735 -0.9259  0.7974  2.8579
19484TIP3    H279944   2.956   6.601   0.717 -0.0108  0.2993  0.6559
19485TIP3   OH279945   0.228   1.640   1.884 -0.0090  0.0524 -0.1502
19485TIP3    H179946   0.274   1.556   1.887 -0.4069 -0.1844 -0.4727
19485TIP3    H279947   0.148   1.621   1.835  0.5233  0.9231 -1.3876
19486TIP3   OH279948   2.680   1.650  11.672  0.0629  0.1981 -0.3545
19486TIP3    H179949   2.628   1.587  11.623 -0.8248  1.1872 -0.7311
19486TIP3    H279950   2.758   1.602  11.699 -0.5965 -1.0470 -0.6146
19487TIP3   OH279951   3.534   2.121  14.550  0.3159 -0.3589  0.1445
19487TIP3    H179952   3.512   2.034  14.583 -3.5342  0.0576 -0.8245
19487TIP3    H279953   3.495   2.124  14.463  0.3115  2.3225  0.1553
19488TIP3   OH279954   2.920   1.530  12.012  0.4852  0.1950  0.4258
19488TIP3    H179955   2.867   1.459  12.047  0.7572 -0.4520 -0.4478
19488TIP3    H279956   2.998   1.532  12.067  0.4266 -0.1153  0.5189
19489TIP3   OH279957   0.247   1.430  16.832  0.0530  0.4567  0.5840
19489TIP3    H179958   0.210   1.343  16.846  0.0860  0.4239  0.4747
19489TIP3    H279959   0.329   1.429  16.880 -0.0783  0.5222  0.8110
19490TIP3   OH279960   0.682   6.689   2.858 -1.3854 -0.0965  0.1183
19490TIP3    H179961   0.622   6.750   2.900  0.1242  0.4780  1.5441
19490TIP3    H279962   0.712   6.632   2.928  0.1574  0.0087 -0.4101
19491TIP3   OH279963   3.821   5.154   3.816 -0.9785 -0.0875  0.4956
19491TIP3    H179964   3.783   5.076   3.856  0.4818 -1.1019 -0.0127
19491TIP3    H279965   3.839   5.128   3.726 -0.4419  0.8334  0.3247
19492TIP3   OH279966   1.144   1.210  15.251  0.2830  0.1876 -0.4012
19492TIP3    H179967   1.091   1.249  15.181  0.5334  0.3717 -0.4923
19492TIP3    H279968   1.097   1.232  15.332  0.6760  1.1140 -0.4139
19493TIP3   OH279969   6.719   0.732  10.880  0.2124  0.4440  0.1814
19493TIP3    H179970   6.814   0.735  10.866  0.3009  1.2630  0.8722
19493TIP3    H279971   6.684   0.688  10.803  1.2126 -0.4291  0.2000
19494TIP3   OH279972   5.484   4.933  12.781  0.0230 -0.1300 -0.2524
19494TIP3    H179973   5.545   4.888  12.839  0.4594  1.0115  0.2091
19494TIP3    H279974   5.397   4.906  12.810  0.2252  0.5765  1.0970
19495TIP3   OH279975   3.097   0.912  13.109 -0.5200 -0.1696 -0.3090
19495TIP3    H179976   3.141   0.988  13.072  1.3386 -0.5477  0.9694
19495TIP3    H279977   3.141   0.897  13.193 -2.2532 -1.3897  0.4430
19496TIP3   OH279978   3.622   4.903  13.212 -0.5854  0.1771 -0.1895
19496TIP3    H179979   3.607   4.993  13.239 -1.7806  0.0340 -0.3317
19496TIP3    H279980   3.599   4.900  13.119  1.5935  0.2081 -0.7897
19497TIP3   OH279981   3.223   3.033   2.747 -0.4751  0.5494  0.5811
19497TIP3    H179982   3.253   3.031   2.838 -2.5138 -0.9826  1.2745
19497TIP3    H279983   3.221   3.126   2.725 -0.6550  1.0096  2.3601
19498TIP3   OH279984   3.343   5.236   5.148 -0.0653  0.1262  0.9368
19498TIP3    H179985   3.366   5.273   5.233  0.2593 -0.0624  0.9321
19498TIP3    H279986   3.422   5.245   5.095 -0.3984  0.6265  0.5176
19499TIP3   OH279987   4.063   1.893  16.322  0.1768  0.8203  0.2227
19499TIP3    H179988   3.989   1.853  16.275  0.0310  0.6727  0.5728
19499TIP3    H279989   4.044   1.877  16.414  1.0999 -0.0117  0.2883
19500TIP3   OH279990   0.351   2.786  15.045  0.0184 -0.2292  0.1713
19500TIP3    H179991   0.320   2.699  15.069  1.1901 -0.7552 -0.1133
19500TIP3    H279992   0.338   2.791  14.950 -0.2886  0.0189  0.2231
19501TIP3   OH279993   2.824   4.312   5.882 -0.2624  0.3772  0.1266
19501TIP3    H179994   2.829   4.339   5.974 -0.8108 -1.8565  0.8993
19501TIP3    H279995   2.911   4.329   5.847 -0.5424  2.9369  0.4871
19502TIP3   OH279996   0.953   3.124   5.284  0.2172 -0.1196 -0.0733
19502TIP3    H179997   1.028   3.091   5.233 -1.3732 -0.4921 -2.3344
19502TIP3    H279998   0.953   3.071   5.363  2.1753 -0.2854 -0.1381
19503TIP3   OH279999   5.243   0.443   1.344 -0.2364 -0.0286 -0.6673
19503TIP3    H180000   5.261   0.352   1.320  0.9027  0.0818 -0.2669
19503TIP3    H280001   5.147   0.448   1.346 -0.4378 -1.9971  2.0737
19504TIP3   OH280002   1.592   3.525  12.664 -0.2985  0.5404  0.1133
19504TIP3    H180003   1.588   3.607  12.615  0.6291 -0.7384 -2.2941
19504TIP3    H280004   1.665   3.537  12.724  1.3056  0.7846 -1.7727
19505TIP3   OH280005   1.102   5.315   1.694 -0.2825  0.2445 -0.3167
19505TIP3    H180006   1.066   5.305   1.782 -0.3343  0.2651 -0.3354
19505TIP3    H280007   1.121   5.226   1.665 -0.8112  0.1927 -0.5130
19506TIP3   OH280008   1.353   5.430   4.722  0.5196 -0.1685 -0.2985
19506TIP3    H180009   1.437   5.413   4.764  0.8957  0.6137 -0.7116
19506TIP3    H280010   1.328   5.346   4.682  1.5234 -0.1864 -0.9076
19507TIP3   OH280011   2.437   0.185   3.405  0.4510 -0.1261  0.0578
19507TIP3    H180012   2.453   0.113   3.344  1.0466 -0.3577  0.4838
19507TIP3    H280013   2.465   0.263   3.358 -2.4843  0.1989 -1.3978
19508TIP3   OH280014   3.613   6.464   1.538 -0.1989 -0.2573  0.1020
19508TIP3    H180015   3.695   6.468   1.489 -0.4587  1.4280 -0.2369
19508TIP3    H280016   3.627   6.393   1.601  1.8761  0.5795  0.6808
19509TIP3   OH280017   2.244   3.073  11.160  0.0939 -0.2145  0.1625
19509TIP3    H180018   2.148   3.063  11.162 -0.0182  0.8219  0.2765
19509TIP3    H280019   2.274   3.022  11.235 -0.2932 -1.1787 -0.3077
19510TIP3   OH280020   4.380   4.180  11.204 -0.6807  0.6729 -0.4387
19510TIP3    H180021   4.453   4.219  11.156  0.1058 -0.9105 -0.5942
19510TIP3    H280022   4.313   4.164  11.137 -0.1957 -0.0953 -0.7589
19511TIP3   OH280023   5.941   0.050  15.858  0.7395  0.2488  0.7346
19511TIP3    H180024   5.965   0.084  15.772 -0.1003  1.1290  0.8218
19511TIP3    H280025   5.970   0.119  15.919 -2.3682  1.6700  0.8003
19512TIP3   OH280026   3.289   3.068   0.992 -0.4463 -0.2925  0.2475
19512TIP3    H180027   3.377   3.097   1.017  1.0152 -1.4682 -2.9956
19512TIP3    H280028   3.282   3.091   0.900 -4.3124  1.2803  0.7374
19513TIP3   OH280029   3.458   6.611   3.596 -0.2175 -0.0182 -0.0103
19513TIP3    H180030   3.546   6.591   3.563 -0.0937 -0.5957  0.6613
19513TIP3    H280031   3.470   6.626   3.689 -0.9123 -0.6767  0.1978
19514TIP3   OH280032   4.099   4.467  13.452  0.5558  0.2363 -0.1747
19514TIP3    H180033   4.103   4.427  13.366  1.4255  0.3853 -0.2117
19514TIP3    H280034   4.086   4.394  13.513  0.2347  0.1025 -0.4045
19515TIP3   OH280035   1.182   6.676   3.707 -0.3784 -0.2075 -0.2754
19515TIP3    H180036   1.124   6.668   3.783  0.7176  2.6522  1.0308
19515TIP3    H280037   1.252   6.613   3.723 -1.2490 -1.1174  0.0063
19516TIP3   OH280038   5.526   1.814   6.110  0.2225 -0.5946 -0.4229
19516TIP3    H180039   5.532   1.721   6.085 -1.3460 -0.5498 -1.0735
19516TIP3    H280040   5.432   1.833   6.110  0.4705  0.7938  0.5100
19517TIP3   OH280041   1.610   1.248  16.656  0.2705  0.1786 -0.3437
19517TIP3    H180042   1.683   1.217  16.710 -0.0404  0.8368  0.4823
19517TIP3    H280043   1.567   1.168  16.625  0.7102 -0.2140  0.0454
19518TIP3   OH280044   3.159   4.307  16.160  1.2102  0.5786 -0.3034
19518TIP3    H180045   3.166   4.344  16.247 -0.9547 -0.3229  0.3356
19518TIP3    H280046   3.144   4.382  16.103 -1.7485  0.9426  0.7750
19519TIP3   OH280047   3.295   4.664   1.616  0.1343 -0.0764 -0.0546
19519TIP3    H180048   3.390   4.652   1.608  0.3245  0.1518  1.5918
19519TIP3    H280049   3.286   4.744   1.668 -0.9748  0.1285 -0.5444
19520TIP3   OH280050   3.044   3.012   2.417 -0.0024 -0.3537  0.1541
19520TIP3    H180051   2.972   3.024   2.355 -0.4853 -0.7066  0.6469
19520TIP3    H280052   3.061   3.100   2.451  1.9556  0.3525 -2.2977
19521TIP3   OH280053   5.664   3.180  11.402 -0.7717 -0.2819  0.7353
19521TIP3    H180054   5.638   3.090  11.385  3.4668 -1.4942 -0.4494
19521TIP3    H280055   5.733   3.173  11.469  0.4122  1.9262 -0.1385
19522TIP3   OH280056   1.020   5.870  11.749  0.2670 -0.0551  0.2594
19522TIP3    H180057   1.024   5.940  11.685  0.2102 -0.3228 -0.0414
19522TIP3    H280058   1.034   5.790  11.697 -1.6484 -0.4402  0.2901
19523TIP3   OH280059   5.441   3.271   1.068 -0.1729 -0.1269  0.0531
19523TIP3    H180060   5.530   3.243   1.046  0.3916  1.0719  0.7244
19523TIP3    H280061   5.449   3.313   1.153 -0.8304  2.5743 -1.1145
19524TIP3   OH280062   4.239   1.885  12.524  0.0024  0.2456  0.0553
19524TIP3    H180063   4.235   1.910  12.432 -1.0075  1.9005  0.5082
19524TIP3    H280064   4.275   1.962  12.568 -0.8987  0.0219  1.2218
19525TIP3   OH280065   1.487   2.060   5.045 -0.3669  0.8924 -0.1633
19525TIP3    H180066   1.469   2.064   4.951  0.3913 -1.3976 -0.4844
19525TIP3    H280067   1.581   2.040   5.051 -0.9013 -1.8174  0.8915
19526TIP3   OH280068   2.394   6.647   3.939 -0.1623 -0.3479 -0.0710
19526TIP3    H180069   2.485   6.632   3.917 -0.0814 -1.3427  0.8266
19526TIP3    H280070   2.381   6.741   3.927  1.2250 -0.0350  0.6260
19527TIP3   OH280071   6.704   5.544  12.705  0.5127  0.9242  0.3315
19527TIP3    H180072   6.680   5.536  12.797 -2.9853 -0.7484 -0.5446
19527TIP3    H280073   6.658   5.621  12.674  0.9739  0.9874 -0.2237
19528TIP3   OH280074   3.250   4.756   5.620  0.0357 -0.3332 -0.4606
19528TIP3    H180075   3.333   4.779   5.663 -0.6756  2.0542 -0.2325
19528TIP3    H280076   3.207   4.695   5.681 -0.3257  1.8860  1.6427
19529TIP3   OH280077   5.475   2.900  11.365  0.2211  0.1807  0.3537
19529TIP3    H180078   5.515   2.850  11.437 -0.5487 -0.6842  0.1901
19529TIP3    H280079   5.480   2.842  11.289 -0.9413  0.2216  0.2268
19530TIP3   OH280080   4.742   0.602   5.578 -0.3263 -0.7786  0.2769
19530TIP3    H180081   4.751   0.515   5.617  1.4542 -0.4918  0.6005
19530TIP3    H280082   4.655   0.602   5.538 -1.3044 -1.8741  2.2776
19531TIP3   OH280083   1.914   4.863  12.397 -0.3825  0.2427  0.1601
19531TIP3    H180084   2.005   4.837  12.387 -0.8497 -1.2289 -0.5593
19531TIP3    H280085   1.880   4.807  12.466 -0.6893  0.9626  0.6040
19532TIP3   OH280086   2.696   1.437  11.840  0.0246  0.1393  0.8362
19532TIP3    H180087   2.781   1.420  11.800 -1.2148 -0.1961 -1.8432
19532TIP3    H280088   2.698   1.387  11.922  1.9322 -0.9197  0.1944
19533TIP3   OH280089   0.374   1.698  14.616 -0.0492  0.5210 -0.2630
19533TIP3    H180090   0.429   1.668  14.543 -1.2083 -0.6586 -0.6749
19533TIP3    H280091   0.325   1.772  14.580 -2.2163 -1.3874 -1.4180
19534TIP3   OH280092   2.031   4.804   4.356  0.7212  0.1584 -0.1686
19534TIP3    H180093   2.017   4.898   4.354  0.1829  0.0843 -0.0583
19534TIP3    H280094   1.995   4.771   4.274  0.2148 -0.0370  0.1250
19535TIP3   OH280095   5.997   1.881   4.566 -0.0118  0.4448  0.3980
19535TIP3    H180096   5.981   1.975   4.578 -0.2308  0.3468  0.8861
19535TIP3    H280097   5.946   1.839   4.635  0.1997 -0.0296  0.2681
19536TIP3   OH280098   6.679   2.581  12.233 -0.8199  0.2180  0.3019
19536TIP3    H180099   6.617   2.602  12.303 -0.0651  0.2452  0.9810
19536TIP3    H280100   6.763   2.573  12.278 -0.0974  1.4660 -0.7670
19537TIP3   OH280101   2.298   1.458  14.975  0.2341  0.4100 -0.2719
19537TIP3    H180102   2.341   1.508  15.044  0.5500 -0.3673  0.1027
19537TIP3    H280103   2.369   1.411  14.931  0.2801  2.2639 -2.3103
19538TIP3   OH280104   2.935   1.838   2.532 -0.2231  0.0055 -0.1289
19538TIP3    H180105   3.019   1.830   2.578 -0.2666 -0.2422 -0.0913
19538TIP3    H280106   2.942   1.778   2.458  0.2650  1.1991 -1.0895
19539TIP3   OH280107   0.862   3.318   1.305  0.5314  0.5888 -0.4331
19539TIP3    H180108   0.880   3.247   1.366  0.9000 -0.1069 -1.3160
19539TIP3    H280109   0.949   3.351   1.281  0.3651  1.3034 -0.0805
19540TIP3   OH280110   6.532   0.409  10.489 -0.3066  0.5975 -0.0529
19540TIP3    H180111   6.469   0.428  10.558 -1.7653 -2.6579 -0.2901
19540TIP3    H280112   6.519   0.478  10.425 -1.9799  1.3145  0.9952
19541TIP3   OH280113   2.266   6.450   3.797  0.3412 -0.6183 -0.3306
19541TIP3    H180114   2.302   6.527   3.841 -0.1745 -0.0063 -0.9581
19541TIP3    H280115   2.204   6.413   3.860  1.7208 -1.4420  0.5944
19542TIP3   OH280116   5.181   0.125  15.023  0.5509  0.0882 -0.1452
19542TIP3    H180117   5.172   0.220  15.027 -1.9500  0.0449 -1.9472
19542TIP3    H280118   5.246   0.109  14.954  1.8425  0.4470  0.9530
19543TIP3   OH280119   5.884   0.736  15.490 -0.1621 -0.3323  0.0646
19543TIP3    H180120   5.801   0.699  15.458  0.2225 -0.9811 -0.2063
19543TIP3    H280121   5.902   0.688  15.571 -0.9900  1.1163  1.1491
19544TIP3   OH280122   6.582   2.308   0.490  0.1242 -0.1491 -0.0783
19544TIP3    H180123   6.674   2.301   0.465  0.0891 -2.4033  0.2442
19544TIP3    H280124   6.584   2.348   0.577  0.9797 -1.9787  0.7945
19545TIP3   OH280125   4.648   5.049  15.512  0.5709  0.1907  0.1821
19545TIP3    H180126   4.673   5.137  15.543 -1.5419  0.7311  0.5704
19545TIP3    H280127   4.559   5.061  15.477 -0.3785 -2.0451  1.5915
19546TIP3   OH280128   2.108   0.515   0.779  0.1909  0.2683 -0.0520
19546TIP3    H180129   2.193   0.542   0.745  0.2858  1.8571  1.3120
19546TIP3    H280130   2.073   0.456   0.712  1.7870  0.6121 -1.2503
19547TIP3   OH280131   1.045   4.567  15.590 -0.9828  0.3113  0.0726
19547TIP3    H180132   0.959   4.609  15.575  0.2787  3.0400 -0.2183
19547TIP3    H280133   1.047   4.551  15.684 -1.4993  1.0135  0.2172
19548TIP3   OH280134   3.536   5.011  12.965 -0.1590  0.2019  0.2769
19548TIP3    H180135   3.623   5.040  12.937 -0.0020 -0.0263  0.5337
19548TIP3    H280136   3.479   5.087  12.948 -0.0663  0.0742 -0.6562
19549TIP3   OH280137   1.133   0.051   2.171 -0.3290  0.1518  0.5010
19549TIP3    H180138   1.062   0.061   2.107 -1.4375 -0.3517  1.6072
19549TIP3    H280139   1.090   0.061   2.256  0.4669 -2.4720  1.3176
19550TIP3   OH280140   1.646   5.817  16.737  0.2303  0.0737 -0.0137
19550TIP3    H180141   1.716   5.794  16.797  1.0006  0.6385 -0.6616
19550TIP3    H280142   1.591   5.878  16.786  0.5616  0.1250  0.2990
19551TIP3   OH280143   3.733   6.846   5.240  0.3913 -0.6991 -0.1290
19551TIP3    H180144   3.774   6.931   5.257 -1.2039  0.1405 -0.3092
19551TIP3    H280145   3.694   6.821   5.324 -1.4295  0.0638 -0.6962
19552TIP3   OH280146   6.484   3.467   1.762  0.6366 -0.0044  0.0137
19552TIP3    H180147   6.556   3.404   1.757  0.9137  0.2846  0.2736
19552TIP3    H280148   6.421   3.436   1.698  0.9116 -0.3666 -0.0901
19553TIP3   OH280149   2.026   0.499  13.875  0.2950 -0.0283  0.1432
19553TIP3    H180150   2.024   0.482  13.781  0.1229 -2.4846  0.5206
19553TIP3    H280151   2.114   0.473  13.902  0.1299  0.0291  0.7500
19554TIP3   OH280152   6.258   6.717   3.461  0.1335  0.0847 -0.3554
19554TIP3    H180153   6.214   6.794   3.496  0.8483  0.4042 -0.1413
19554TIP3    H280154   6.258   6.654   3.533 -1.7283 -0.6847 -0.9663
19555TIP3   OH280155   1.599   0.310  13.169 -0.0285 -0.7308  0.1970
19555TIP3    H180156   1.569   0.328  13.079 -2.5738  3.8985  1.6328
19555TIP3    H280157   1.524   0.270  13.212 -1.0585  2.2701  1.4784
19556TIP3   OH280158   4.269   1.580  11.494  0.3770  0.3015  0.8622
19556TIP3    H180159   4.217   1.575  11.413  2.0976 -0.7027 -0.2497
19556TIP3    H280160   4.226   1.648  11.546 -1.0250  0.6994 -0.7186
19557TIP3   OH280161   5.454   4.150   6.464  0.2743  0.4042  0.1058
19557TIP3    H180162   5.359   4.151   6.464  0.2736  0.3021  0.1488
19557TIP3    H280163   5.478   4.115   6.378  0.2735  0.4694  0.0790
19558TIP3   OH280164   4.923   6.260   5.028 -0.0564  0.0929 -0.3454
19558TIP3    H180165   4.947   6.182   5.077 -2.4348 -1.8101 -1.9991
19558TIP3    H280166   4.841   6.289   5.067 -1.5452 -0.9683 -2.4760
19559TIP3   OH280167   5.223   3.601   1.083  0.6990  0.0470  0.2712
19559TIP3    H180168   5.214   3.696   1.083  1.3745  0.2228 -2.8727
19559TIP3    H280169   5.132   3.569   1.087  0.4919  0.6883  2.4071
19560TIP3   OH280170   3.952   6.666   3.368 -0.0727  0.3206  0.5917
19560TIP3    H180171   3.884   6.709   3.420  0.4589  1.3597  0.4656
19560TIP3    H280172   4.033   6.705   3.399  0.4960 -1.0446  0.8732
19561TIP3   OH280173   5.657   0.045   1.821 -0.3444 -0.0248  0.4092
19561TIP3    H180174   5.746   0.072   1.797  0.1897 -2.6693 -0.9578
19561TIP3    H280175   5.667   0.006   1.908 -0.1707 -0.3064  0.2632
19562TIP3   OH280176   1.084   1.274   6.372 -0.7420  0.2728 -0.3105
19562TIP3    H180177   1.092   1.335   6.299 -1.7763  2.8557  1.5958
19562TIP3    H280178   1.138   1.312   6.441 -1.3483 -1.0426  0.9386
19563TIP3   OH280179   5.057   0.600   5.638  0.5418  0.0053  0.2229
19563TIP3    H180180   4.969   0.613   5.604  0.4523 -2.8531 -0.8840
19563TIP3    H280181   5.066   0.665   5.708 -2.0608  0.9898 -0.2602
19564TIP3   OH280182   0.151   5.438  14.258 -0.6594 -0.9577 -0.1368
19564TIP3    H180183   0.135   5.443  14.164 -0.6556 -2.1601 -0.2158
19564TIP3    H280184   0.155   5.530  14.287 -0.7403 -0.5804 -1.2846
19565TIP3   OH280185   6.312   3.006  15.468  1.1831  0.4770 -0.1173
19565TIP3    H180186   6.248   2.935  15.469  3.0564 -1.3782  2.2509
19565TIP3    H280187   6.288   3.062  15.541  1.9947 -0.0288  0.5577
19566TIP3   OH280188   2.554   3.920   2.885 -0.1870 -0.0588 -0.0849
19566TIP3    H180189   2.596   3.850   2.836  1.8816  1.7196 -1.0476
19566TIP3    H280190   2.616   3.942   2.954 -0.6076  1.0433 -0.0303
19567TIP3   OH280191   2.673   2.338  13.844 -0.6017 -0.1098 -0.1190
19567TIP3    H180192   2.609   2.396  13.885 -1.6692 -0.8019 -0.7675
19567TIP3    H280193   2.621   2.276  13.794  0.6317  0.3380 -2.0501
19568TIP3   OH280194   6.491   5.247   4.246  0.9227  0.2243 -0.4637
19568TIP3    H180195   6.494   5.263   4.341 -1.2003 -0.7799 -0.1680
19568TIP3    H280196   6.398   5.235   4.227  1.4598 -1.5349 -2.3329
19569TIP3   OH280197   2.616   2.424  11.795  0.4235  0.2467 -0.4891
19569TIP3    H180198   2.544   2.484  11.776  1.4597  1.2585 -1.2987
19569TIP3    H280199   2.666   2.467  11.864 -1.1165 -1.6273  1.9494
19570TIP3   OH280200   0.486   4.192  13.397  0.1281 -0.0623 -0.3285
19570TIP3    H180201   0.570   4.237  13.408  0.0400 -0.1487  0.8223
19570TIP3    H280202   0.421   4.262  13.398 -0.0686 -0.1953  2.1624
19571TIP3   OH280203   1.509   5.679  13.672  0.1515  0.3188 -0.5443
19571TIP3    H180204   1.510   5.589  13.640 -0.5312  0.1367 -0.0784
19571TIP3    H280205   1.569   5.679  13.747 -0.1925  0.1377 -0.2650
19572TIP3   OH280206   2.018   1.883  12.139  0.1345 -0.1095 -0.3585
19572TIP3    H180207   1.967   1.946  12.190  0.1907 -1.0660  0.9327
19572TIP3    H280208   2.020   1.919  12.051 -2.7608 -0.0343 -0.4723
19573TIP3   OH280209   0.632   6.447   4.982  0.3575  0.1903 -0.0967
19573TIP3    H180210   0.614   6.440   5.075 -1.1492 -0.8630 -0.4380
19573TIP3    H280211   0.722   6.481   4.977  0.3541  0.5363  1.7095
19574TIP3   OH280212   5.539   4.668   2.878 -0.4810 -0.3067  0.1888
19574TIP3    H180213   5.601   4.596   2.861 -0.4148  0.0992 -1.4165
19574TIP3    H280214   5.457   4.624   2.901  0.3129 -0.8551  2.2685
19575TIP3   OH280215   3.316   4.368   1.577  0.4156  0.0298  0.0177
19575TIP3    H180216   3.306   4.350   1.483 -0.2873 -1.6021  0.3697
19575TIP3    H280217   3.267   4.449   1.591  1.2224  0.7618 -1.1482
19576TIP3   OH280218   3.265   6.040   1.731  0.0052 -0.3701  0.3452
19576TIP3    H180219   3.233   5.950   1.739 -1.2162  0.0472  0.2499
19576TIP3    H280220   3.210   6.091   1.790  1.0710  0.2389  0.8474
19577TIP3   OH280221   6.509   4.401  11.408 -0.6006 -0.5150  0.4835
19577TIP3    H180222   6.490   4.437  11.321  2.7490  0.1021 -0.1341
19577TIP3    H280223   6.514   4.307  11.394  1.3606 -0.3195 -0.3827
19578TIP3   OH280224   3.205   4.859  15.849 -0.1659 -0.0687  0.6078
19578TIP3    H180225   3.183   4.941  15.805  0.0952  0.4375  1.3996
19578TIP3    H280226   3.238   4.886  15.935  0.9508 -0.9467  0.4673
19579TIP3   OH280227   5.271   0.286  14.259 -0.1799 -1.1890  0.0431
19579TIP3    H180228   5.185   0.327  14.259 -0.9592 -2.7683 -0.0304
19579TIP3    H280229   5.324   0.341  14.317 -1.3907 -0.5508  0.5617
19580TIP3   OH280230   5.532   3.342  11.118 -0.2117  0.2288 -0.2613
19580TIP3    H180231   5.480   3.275  11.162  0.9228  1.4695  3.3148
19580TIP3    H280232   5.467   3.408  11.090 -0.9174 -0.2297  0.2676
19581TIP3   OH280233   1.887   2.043   2.748  0.4668  0.0179 -0.2230
19581TIP3    H180234   1.874   1.991   2.827 -1.0210 -0.1594 -0.5394
19581TIP3    H280235   1.843   2.126   2.767 -0.9444 -0.4479 -1.2412
19582TIP3   OH280236   6.614   5.698  10.351  0.0515  0.3895 -0.2402
19582TIP3    H180237   6.629   5.657  10.436 -1.0428 -0.2620 -0.3451
19582TIP3    H280238   6.640   5.632  10.288  0.8274  0.8600 -0.4319
19583TIP3   OH280239   4.433   1.336   3.971 -0.4231  0.2489  0.2278
19583TIP3    H180240   4.490   1.292   4.034 -2.1683  0.6117  2.1699
19583TIP3    H280241   4.390   1.265   3.924  1.0359 -0.0257 -0.7706
19584TIP3   OH280242   0.781   0.616   2.387 -0.1669 -0.2262  0.4240
19584TIP3    H180243   0.772   0.559   2.463 -1.4085  1.8074  1.8848
19584TIP3    H280244   0.698   0.662   2.381  1.1167  2.2080 -0.0284
19585TIP3   OH280245   5.560   6.405  12.922 -0.0509  0.4769 -0.4381
19585TIP3    H180246   5.510   6.460  12.862 -0.0054 -1.0075 -1.8837
19585TIP3    H280247   5.494   6.361  12.975 -0.2368 -0.4743 -1.4441
19586TIP3   OH280248   2.999   3.074  17.080  0.4244  0.0255  0.2247
19586TIP3    H180249   2.994   3.048  16.988 -0.0280 -2.6284  0.9074
19586TIP3    H280250   2.909   3.094  17.105  0.3878 -0.2486  0.3218
19587TIP3   OH280251   4.743   6.659  15.541 -0.0235 -0.0537 -0.1960
19587TIP3    H180252   4.689   6.619  15.473 -2.0924  1.7652  0.2622
19587TIP3    H280253   4.707   6.747  15.552  2.6142  1.0026  0.7023
19588TIP3   OH280254   6.001   6.685  12.894 -0.3744 -0.1475 -0.5039
19588TIP3    H180255   6.020   6.630  12.818  0.3583 -0.7475  0.0972
19588TIP3    H280256   5.926   6.643  12.936 -0.7154  0.1270 -0.8357
19589TIP3   OH280257   6.543   2.869   0.058 -0.2665 -0.1097  0.7168
19589TIP3    H180258   6.504   2.938   0.113  0.5448 -0.1460  1.3567
19589TIP3    H280259   6.469   2.834   0.008 -0.5004  2.2023 -0.7478
19590TIP3   OH280260   3.887   6.476  14.662 -0.5138  0.5296  0.4441
19590TIP3    H180261   3.868   6.383  14.667  2.0185 -0.2465 -1.8717
19590TIP3    H280262   3.829   6.510  14.594 -0.9495  0.4954  0.7992
19591TIP3   OH280263   4.282   2.207   5.883  0.2366 -0.2938  0.3423
19591TIP3    H180264   4.190   2.232   5.892 -0.2169 -1.4825 -0.7953
19591TIP3    H280265   4.311   2.250   5.803  0.0475 -1.6105 -0.4619
19592TIP3   OH280266   2.991   4.537   6.338 -0.5625  0.2826  0.7531
19592TIP3    H180267   2.968   4.623   6.374  0.5705  0.3905  1.2796
19592TIP3    H280268   3.063   4.555   6.278  1.0222 -0.4698  2.3189
19593TIP3   OH280269   1.728   6.543   0.102 -0.1238  0.3617  0.6099
19593TIP3    H180270   1.650   6.538   0.045  0.0879 -0.0307  0.3459
19593TIP3    H280271   1.693   6.536   0.191 -0.4295  0.6155  0.5114
19594TIP3   OH280272   4.767   6.317   5.920  0.8890  0.4708  0.2051
19594TIP3    H180273   4.779   6.383   5.988  1.4942 -0.1028  0.6585
19594TIP3    H280274   4.831   6.339   5.853  0.3731  0.9649 -0.1346
19595TIP3   OH280275   0.666   4.276  14.920  0.4212  0.2408  0.4548
19595TIP3    H180276   0.709   4.203  14.876  0.5835  0.7167 -0.1806
19595TIP3    H280277   0.585   4.290  14.871  0.4044  0.5021  0.5540
19596TIP3   OH280278   0.803   4.879   1.252  0.2217 -0.0910  0.1186
19596TIP3    H180279   0.772   4.789   1.239  0.0829  0.1047 -1.0570
19596TIP3    H280280   0.799   4.893   1.346 -2.1047 -0.5058  0.1419
19597TIP3   OH280281   4.167   4.317  13.830 -0.2065 -0.3714 -0.4094
19597TIP3    H180282   4.171   4.412  13.832 -2.9721 -0.1442 -1.0275
19597TIP3    H280283   4.182   4.291  13.921  2.9951  0.3863 -0.6022
19598TIP3   OH280284   3.269   4.177  12.453 -0.0111 -0.2274 -0.2682
19598TIP3    H180285   3.295   4.107  12.394  1.2146  0.8710 -1.0898
19598TIP3    H280286   3.299   4.148  12.539  0.4836 -0.7187 -0.5978
19599TIP3   OH280287   0.381   1.572  16.041  0.4953  0.2765 -0.5669
19599TIP3    H180288   0.466   1.617  16.042  0.0196  1.3034 -2.3936
19599TIP3    H280289   0.358   1.562  16.134  2.1782  0.7681 -0.0547
19600TIP3   OH280290   4.024   6.652  14.848 -0.1420  0.2128 -0.3828
19600TIP3    H180291   3.991   6.584  14.788 -0.4407 -0.2654  0.3174
19600TIP3    H280292   4.065   6.716  14.790 -1.4234  0.3316 -1.2040
19601TIP3   OH280293   0.157   3.138  15.466 -0.0679  0.3895  0.1030
19601TIP3    H180294   0.116   3.196  15.401 -0.4655 -0.5276 -0.4901
19601TIP3    H280295   0.083   3.091  15.505  0.1752  0.8921  1.1982
19602TIP3   OH280296   3.250   3.729  10.499 -0.3035 -0.6081  0.2102
19602TIP3    H180297   3.284   3.818  10.508  0.0994 -0.6720 -0.5224
19602TIP3    H280298   3.281   3.682  10.576  0.9798 -0.5622 -0.2568
19603TIP3   OH280299   2.450   4.255   6.389 -0.3411 -0.1397  0.2470
19603TIP3    H180300   2.357   4.231   6.389 -0.3353 -0.2048  0.9933
19603TIP3    H280301   2.492   4.188   6.444  0.2762 -0.5576 -0.7100
19604TIP3   OH280302   3.429   1.297   3.331  0.3277 -0.6969 -0.0655
19604TIP3    H180303   3.484   1.230   3.371 -0.1646 -0.2364  1.4489
19604TIP3    H280304   3.359   1.247   3.288  0.1688 -1.1735  0.7307
19605TIP3   OH280305   5.623   3.431  15.114 -0.1000 -0.0109 -0.2372
19605TIP3    H180306   5.545   3.487  15.115 -2.3902 -2.9695 -0.0035
19605TIP3    H280307   5.692   3.488  15.080 -2.8271  2.1796 -2.6557
19606TIP3   OH280308   4.324   4.122   0.342  0.3561  0.3698 -0.2828
19606TIP3    H180309   4.387   4.105   0.412  0.5897 -0.5017 -0.6914
19606TIP3    H280310   4.322   4.041   0.291 -2.5763 -0.3772  0.8204
19607TIP3   OH280311   0.784   1.692  13.847 -0.1217  0.3483  0.1912
19607TIP3    H180312   0.854   1.747  13.881  0.3880  1.5170 -2.4930
19607TIP3    H280313   0.704   1.735  13.877  0.1321 -1.5720  4.1629
19608TIP3   OH280314   6.161   6.507  15.034  0.5051 -0.2545  0.1267
19608TIP3    H180315   6.138   6.600  15.037 -0.1956 -0.2530 -2.5095
19608TIP3    H280316   6.236   6.503  14.975  1.2036 -1.2839  1.0489
19609TIP3   OH280317   4.890   0.792  13.673 -0.0321 -0.3938 -0.4251
19609TIP3    H180318   4.849   0.816  13.590 -0.0973  0.7244 -0.0871
19609TIP3    H280319   4.820   0.802  13.738  0.6210  1.0449  0.0842
19610TIP3   OH280320   0.055   2.037  12.097 -0.1169  0.3214 -0.3496
19610TIP3    H180321   0.077   1.944  12.094  0.2638  0.3762  0.6820
19610TIP3    H280322   0.031   2.054  12.188  2.0306  1.7268  0.0240
19611TIP3   OH280323   1.512   6.844  13.014  0.1721 -0.0840 -0.1556
19611TIP3    H180324   1.508   6.932  12.975  1.4865  0.4310  0.7872
19611TIP3    H280325   1.494   6.785  12.942 -1.8257  0.9819 -0.5933
19612TIP3   OH280326   0.947   0.880  13.312 -0.3908  0.1936  0.2621
19612TIP3    H180327   0.984   0.956  13.358  0.4075 -1.1599  1.9667
19612TIP3    H280328   1.023   0.827  13.288 -0.9984 -0.6819  0.2377
19613TIP3   OH280329   6.831   5.028  14.857  0.0154  0.4714  0.1729
19613TIP3    H180330   6.860   5.090  14.790  1.2853 -0.3448 -0.0655
19613TIP3    H280331   6.901   4.962  14.861 -1.6876 -1.4955 -0.2710
19614TIP3   OH280332   1.413   3.735  13.853  0.0195  0.0433  0.1716
19614TIP3    H180333   1.397   3.645  13.882 -0.2177  0.0636  0.1071
19614TIP3    H280334   1.418   3.785  13.934  0.5443 -0.0904  0.2231
19615TIP3   OH280335   3.159   6.328   3.010  0.5616 -0.0935 -0.3988
19615TIP3    H180336   3.102   6.265   3.055  2.9541 -1.3920  1.0480
19615TIP3    H280337   3.172   6.398   3.074  1.2071 -0.1989 -0.4131
19616TIP3   OH280338   1.184   1.262   4.710 -0.0367  0.0556  0.4131
19616TIP3    H180339   1.205   1.306   4.628  0.1846  1.2790  1.0927
19616TIP3    H280340   1.127   1.189   4.685 -1.5471  1.5339 -0.6322
19617TIP3   OH280341   2.702   0.310  16.703  0.3102  0.3159 -0.1750
19617TIP3    H180342   2.710   0.268  16.789  0.6405  0.0910 -0.3118
19617TIP3    H280343   2.697   0.403  16.722 -0.2881  0.2271  0.1251
19618TIP3   OH280344   0.364   0.827  15.954 -0.1654 -0.3560  0.2717
19618TIP3    H180345   0.384   0.914  15.990 -0.5088 -0.3026  0.3317
19618TIP3    H280346   0.449   0.795  15.921 -0.2478  0.4787 -0.7932
19619TIP3   OH280347   3.551   2.374   0.905  0.2492 -0.5796 -0.3197
19619TIP3    H180348   3.494   2.389   0.830 -0.4772 -0.6523  0.2104
19619TIP3    H280349   3.510   2.302   0.952  0.6365 -0.4508  0.2215
19620TIP3   OH280350   5.103   3.068   2.453  0.3064 -0.2400 -1.2262
19620TIP3    H180351   5.151   3.108   2.526 -0.4837 -0.9047 -0.3262
19620TIP3    H280352   5.080   3.142   2.397 -0.3199  0.4736 -0.0594
19621TIP3   OH280353   5.087   5.010  11.932  0.1996 -0.4700  0.0623
19621TIP3    H180354   5.080   5.077  12.000 -0.2932 -0.1046 -0.3338
19621TIP3    H280355   5.172   4.968  11.948  1.2329  1.2670 -0.5811
19622TIP3   OH280356   3.628   2.410  12.679 -0.1923 -0.0613 -0.1192
19622TIP3    H180357   3.627   2.504  12.697 -0.2401 -0.1409  0.3152
19622TIP3    H280358   3.553   2.396  12.621 -1.1258 -0.0515  1.0301
19623TIP3   OH280359   4.656   2.939  16.876 -0.2874  0.1078  0.4114
19623TIP3    H180360   4.587   2.987  16.922  0.3637  1.1619  0.3373
19623TIP3    H280361   4.734   2.953  16.929  0.8108  2.4992 -1.6193
19624TIP3   OH280362   1.705   5.329  12.220 -0.9677  0.3521 -0.0152
19624TIP3    H180363   1.725   5.396  12.285  1.7063  1.0021 -1.3773
19624TIP3    H280364   1.763   5.256  12.241  1.3391  1.2570 -2.5449
19625TIP3   OH280365   3.485   1.383   1.525 -0.1450  0.0537 -0.1117
19625TIP3    H180366   3.503   1.437   1.602  0.5730  1.3846 -1.1681
19625TIP3    H280367   3.483   1.445   1.452  0.2814 -1.2913 -1.3203
19626TIP3   OH280368   6.133   2.731   0.807  0.1176  0.5181  0.2440
19626TIP3    H180369   6.192   2.663   0.773 -1.0691  0.0544 -0.9833
19626TIP3    H280370   6.147   2.730   0.901 -0.6990 -2.2673  0.4213
19627TIP3   OH280371   5.161   0.072   4.218 -0.6613 -0.5397  0.7106
19627TIP3    H180372   5.080   0.121   4.202  0.6250  1.5558  0.1864
19627TIP3    H280373   5.132  -0.015   4.243 -3.0606 -0.0285 -0.0432
19628TIP3   OH280374   4.397   6.273   5.530  0.6094  0.4097  0.4755
19628TIP3    H180375   4.482   6.289   5.571  1.6581 -1.4383 -0.8298
19628TIP3    H280376   4.382   6.350   5.475  0.8742  1.2522  1.5471
19629TIP3   OH280377   5.806   0.401   4.737  0.1538 -0.5297  0.5594
19629TIP3    H180378   5.766   0.485   4.760  0.0260 -0.0673 -1.1880
19629TIP3    H280379   5.867   0.422   4.666  0.3477 -1.8684  0.2960
19630TIP3   OH280380   1.717   2.842   2.667 -0.9309  0.1440  0.1199
19630TIP3    H180381   1.813   2.842   2.658 -0.8277  2.9361  0.2867
19630TIP3    H280382   1.685   2.806   2.584  0.2752  1.6496 -1.0615
19631TIP3   OH280383   2.876   6.667  13.057 -0.4276 -0.5489 -0.0570
19631TIP3    H180384   2.891   6.662  13.151 -2.9082 -1.5406  0.3536
19631TIP3    H280385   2.898   6.757  13.034  0.6616 -0.4173  1.3577
19632TIP3   OH280386   1.282   0.528   0.958 -0.0068  0.6172  0.1501
19632TIP3    H180387   1.298   0.606   0.905  1.8610 -1.1715 -2.1485
19632TIP3    H280388   1.193   0.502   0.937  0.0320  1.0583 -0.5831
19633TIP3   OH280389   1.020   5.477   1.016 -0.3238 -0.1306 -0.1379
19633TIP3    H180390   0.981   5.509   0.935 -0.6034 -0.6116 -0.1948
19633TIP3    H280391   0.952   5.491   1.083 -1.0593 -2.0101 -0.4395
19634TIP3   OH280392   5.961   6.554   2.160  0.3411  0.2765  0.0371
19634TIP3    H180393   5.890   6.503   2.199 -1.1239  0.7257 -1.8962
19634TIP3    H280394   6.034   6.543   2.221 -0.0390 -3.6117  0.0650
19635TIP3   OH280395   0.488   0.896  12.232  0.8568 -0.0838  0.1897
19635TIP3    H180396   0.527   0.981  12.214  0.1560  0.3228  0.5546
19635TIP3    H280397   0.517   0.875  12.322 -0.5517  0.6820  0.8457
19636TIP3   OH280398   3.958   5.476   6.584 -0.7021  0.0914 -0.0600
19636TIP3    H180399   4.031   5.418   6.562  0.2835  1.7764 -1.4680
19636TIP3    H280400   3.940   5.524   6.503 -0.0199  3.2769  1.5363
19637TIP3   OH280401   0.212   5.703  16.902  0.0635  0.4333  0.4411
19637TIP3    H180402   0.285   5.649  16.932 -1.0491 -0.3591  1.8325
19637TIP3    H280403   0.156   5.644  16.851 -0.7258  0.4657  1.2472
19638TIP3   OH280404   1.072   3.712  12.928 -0.1211  0.3745 -0.6869
19638TIP3    H180405   1.095   3.703  13.021  0.4981  0.7522 -0.7915
19638TIP3    H280406   1.140   3.662  12.883  0.5360  1.5361 -1.0120
19639TIP3   OH280407   1.589   5.491  14.445  0.7179 -0.1517  0.1289
19639TIP3    H180408   1.588   5.451  14.532 -1.0203 -0.6034 -0.0671
19639TIP3    H280409   1.569   5.584  14.461 -0.1088 -0.3300  0.1965
19640TIP3   OH280410   6.542   2.454  16.915 -0.0083 -0.1212  0.5460
19640TIP3    H180411   6.618   2.492  16.959  0.0629 -0.6300  0.8673
19640TIP3    H280412   6.577   2.376  16.870  0.1666  0.9917 -1.3743
19641TIP3   OH280413   2.360   6.092  13.898 -0.1851 -0.2490  0.8456
19641TIP3    H180414   2.289   6.129  13.845  0.7034  0.9640  0.4478
19641TIP3    H280415   2.320   6.070  13.981 -1.3450 -1.0021  0.1158
19642TIP3   OH280416   4.941   4.423  14.224 -0.0004  0.0220  0.2483
19642TIP3    H180417   4.933   4.369  14.302 -0.9341  0.3495  0.3891
19642TIP3    H280418   4.858   4.470  14.218  1.7340  3.7444  1.8458
19643TIP3   OH280419   0.452   1.534   5.285 -0.2855  0.2635 -0.1797
19643TIP3    H180420   0.490   1.622   5.285 -2.1586  1.1342  1.4404
19643TIP3    H280421   0.372   1.543   5.234 -1.2487 -0.1149  1.2279
19644TIP3   OH280422   4.644   6.464  15.746 -0.0881 -0.3197 -0.1059
19644TIP3    H180423   4.611   6.422  15.825  0.5799 -0.6397  0.0081
19644TIP3    H280424   4.573   6.456  15.683 -1.2178  1.2506  0.8920
19645TIP3   OH280425   0.092   3.224  11.462 -0.8782 -0.0604 -0.0293
19645TIP3    H180426   0.025   3.204  11.528 -0.0721  0.5456  1.0127
19645TIP3    H280427   0.102   3.319  11.466  0.4335 -0.1810  0.2677
19646TIP3   OH280428   1.268   4.893   2.564  0.2636 -0.0533 -0.3331
19646TIP3    H180429   1.224   4.865   2.644  0.1015  1.0981 -0.0008
19646TIP3    H280430   1.214   4.964   2.531  1.7500  1.2809 -0.0079
19647TIP3   OH280431   5.250   0.423  15.917 -0.0898  0.1163 -0.5289
19647TIP3    H180432   5.253   0.391  15.826  2.2374  0.8330 -0.7759
19647TIP3    H280433   5.339   0.451  15.935 -0.3615 -0.5526  2.2263
19648TIP3   OH280434   2.559   1.774  12.108 -0.2604  0.0248 -0.3281
19648TIP3    H180435   2.515   1.731  12.181  0.8813  0.4767  0.6627
19648TIP3    H280436   2.527   1.728  12.030  0.2081 -2.0008  0.6064
19649TIP3   OH280437   3.931   1.486  12.297  0.0685 -0.1630  0.9000
19649TIP3    H180438   3.956   1.554  12.360 -0.3233  1.0553 -0.2244
19649TIP3    H280439   3.952   1.524  12.212 -1.9168 -0.6889  0.1378
19650TIP3   OH280440   2.093   2.242   4.870 -0.1379 -0.2424 -0.0090
19650TIP3    H180441   2.059   2.332   4.865  0.6210  0.0406 -0.2530
19650TIP3    H280442   2.130   2.226   4.783  1.7388  0.0369  0.6927
19651TIP3   OH280443   0.014   4.782  12.490 -0.2769  0.0092 -0.4591
19651TIP3    H180444   0.046   4.742  12.570  0.3944  2.2945  0.5020
19651TIP3    H280445  -0.082   4.782  12.500 -0.1715  1.2347  0.8970
19652TIP3   OH280446   5.416   5.589   0.991 -0.0570 -0.0365 -0.3623
19652TIP3    H180447   5.422   5.550   0.904  0.2414 -1.8903  0.4549
19652TIP3    H280448   5.506   5.595   1.022 -0.1253  1.0103 -0.3202
19653TIP3   OH280449   2.633   0.770   5.439 -0.5451  0.1832 -0.1838
19653TIP3    H180450   2.616   0.846   5.494  3.2392  0.5255  0.8097
19653TIP3    H280451   2.640   0.697   5.501 -0.6508 -0.3014 -0.7330
19654TIP3   OH280452   0.578   0.482  13.673 -0.4630 -0.0461  0.3261
19654TIP3    H180453   0.660   0.502  13.629  0.2775 -3.2572 -0.0554
19654TIP3    H280454   0.528   0.563  13.671  1.1147  1.0070 -2.9226
19655TIP3   OH280455   6.172   4.993  16.121 -0.0881  0.2126 -0.3808
19655TIP3    H180456   6.139   4.927  16.182 -0.0150 -0.6914 -1.2962
19655TIP3    H280457   6.096   5.048  16.102 -0.0933  0.5557  0.5698
19656TIP3   OH280458   0.261   1.587   0.818  0.1817 -0.4294  0.6982
19656TIP3    H180459   0.287   1.509   0.768  1.3265  0.9124 -0.8942
19656TIP3    H280460   0.236   1.651   0.751  1.2705  1.2733  1.8452
19657TIP3   OH280461   3.525   3.451  13.797  0.5176 -0.4986  0.2419
19657TIP3    H180462   3.549   3.463  13.889 -3.1872  0.3563  1.2388
19657TIP3    H280463   3.481   3.367  13.795  0.5225 -0.4810 -0.7608
19658TIP3   OH280464   5.488   1.910  16.124 -0.0757 -0.2960  0.5810
19658TIP3    H180465   5.519   1.971  16.057 -0.3188 -0.6016  0.1871
19658TIP3    H280466   5.407   1.949  16.156 -0.0950 -0.2782  0.5119
19659TIP3   OH280467   1.844   6.086  12.513 -0.3186  0.1252  0.0897
19659TIP3    H180468   1.887   6.165  12.545  0.3131 -0.7394  1.4919
19659TIP3    H280469   1.762   6.082  12.564  0.5687 -1.1195  1.5221
19660TIP3   OH280470   2.758   1.522   2.046  0.2411 -0.0157 -0.0718
19660TIP3    H180471   2.854   1.523   2.049  0.2799 -0.2384 -0.8920
19660TIP3    H280472   2.737   1.554   1.958 -0.3707 -2.0077 -0.6947
19661TIP3   OH280473   1.901   5.753  14.813  0.1588  0.1885 -0.0061
19661TIP3    H180474   1.873   5.820  14.750  0.7874  1.2279  0.7819
19661TIP3    H280475   1.909   5.800  14.896  2.5085 -0.4009  0.1819
19662TIP3   OH280476   0.703   2.484   4.290 -0.3775  0.4787  0.4586
19662TIP3    H180477   0.744   2.432   4.221 -1.0863  0.7345 -0.1676
19662TIP3    H280478   0.702   2.426   4.366  2.9030  1.0948  1.1213
19663TIP3   OH280479   5.524   3.945   5.574 -0.2159 -0.4796 -0.4710
19663TIP3    H180480   5.506   3.897   5.655 -1.0745 -0.3919 -0.5919
19663TIP3    H280481   5.471   4.025   5.582  0.2434 -0.1406 -0.8088
19664TIP3   OH280482   1.915   6.122   4.365  0.3443 -0.1674  0.3354
19664TIP3    H180483   1.964   6.051   4.324 -0.8106 -1.4613  1.1399
19664TIP3    H280484   1.969   6.200   4.349  1.9722 -1.3100  0.0294
19665TIP3   OH280485   5.997   0.474   1.284  0.1106  0.1558  0.1553
19665TIP3    H180486   6.069   0.415   1.262 -1.0039 -1.3435  0.3625
19665TIP3    H280487   5.968   0.444   1.370 -2.2838 -0.8890 -0.9294
19666TIP3   OH280488   1.321   4.408   2.057 -0.1582 -0.0290  0.1720
19666TIP3    H180489   1.275   4.355   2.122 -0.7620 -0.9749 -0.9741
19666TIP3    H280490   1.274   4.491   2.055 -0.3334 -0.1133  0.7023
19667TIP3   OH280491   3.252   5.121   2.898 -0.2625  0.6925  0.4093
19667TIP3    H180492   3.311   5.187   2.934  0.8533 -0.3510  0.5661
19667TIP3    H280493   3.180   5.116   2.961 -0.4791  1.9068  0.2696
19668TIP3   OH280494   0.007   5.059  12.411  0.5667  0.2811  0.1121
19668TIP3    H180495  -0.086   5.042  12.397  0.7402  0.2133 -1.0397
19668TIP3    H280496   0.049   4.974  12.398  0.8488  0.4251  0.0754
19669TIP3   OH280497   0.070   2.920   5.021  0.3471  0.3647 -1.1179
19669TIP3    H180498   0.031   3.006   5.004 -2.7213 -0.8534 -0.8216
19669TIP3    H280499   0.061   2.908   5.116 -0.3799 -0.7401 -1.3087
19670TIP3   OH280500   4.052   3.575   5.532  0.0457 -0.5334  0.5002
19670TIP3    H180501   4.129   3.617   5.493 -0.4200  0.8709  1.0378
19670TIP3    H280502   4.004   3.647   5.574 -2.0505 -1.2086 -0.5888
19671TIP3   OH280503   5.082   5.289   4.909 -0.3504 -0.2485  0.4502
19671TIP3    H180504   5.029   5.269   4.832  0.4127  0.4038 -0.2512
19671TIP3    H280505   5.020   5.284   4.982 -1.1273 -0.6533 -0.2174
19672TIP3   OH280506   5.960   1.871  11.359 -0.2134 -0.8175  0.2430
19672TIP3    H180507   5.967   1.949  11.303 -0.1472 -0.3818  0.8532
19672TIP3    H280508   6.051   1.844  11.373 -0.1691 -0.2630  1.0587
19673TIP3   OH280509   6.778   3.559   1.828  0.0787 -0.2939 -0.2369
19673TIP3    H180510   6.814   3.548   1.916  1.1660  0.5893 -0.5456
19673TIP3    H280511   6.774   3.471   1.792  1.5652 -0.4752 -0.0256
19674TIP3   OH280512   5.853   5.703  11.684 -0.4157 -0.8218  0.2693
19674TIP3    H180513   5.760   5.721  11.668 -0.0625  0.3630 -0.5333
19674TIP3    H280514   5.854   5.659  11.769 -1.6796 -0.4817  0.4832
19675TIP3   OH280515   6.412   0.332  14.707 -0.0545  0.3632 -0.3201
19675TIP3    H180516   6.446   0.263  14.764  0.6063  2.0981  1.4816
19675TIP3    H280517   6.489   0.373  14.669 -0.0603  2.8461  2.0297
19676TIP3   OH280518   1.181   0.293   6.099 -0.0460 -0.0361 -0.3917
19676TIP3    H180519   1.269   0.320   6.123  0.2041 -1.0488 -0.1330
19676TIP3    H280520   1.125   0.365   6.128  0.5650  0.0613  0.5860
19677TIP3   OH280521   1.455   3.134   3.716  0.0294  0.1783 -0.1111
19677TIP3    H180522   1.511   3.113   3.642  0.0914  1.5200 -0.4731
19677TIP3    H280523   1.388   3.193   3.679 -0.4222  0.2065  0.7265
19678TIP3   OH280524   5.154   2.324   5.467 -0.2503 -0.2225 -0.3396
19678TIP3    H180525   5.231   2.381   5.459 -0.4458 -0.0985 -1.4168
19678TIP3    H280526   5.089   2.362   5.408  0.1356 -2.3940 -2.3284
19679TIP3   OH280527   1.482   3.947   3.450  0.3281  0.1369  0.3391
19679TIP3    H180528   1.566   3.992   3.440 -0.2548  1.0684 -0.5853
19679TIP3    H280529   1.494   3.863   3.405  0.2002  1.0508 -1.5007
19680TIP3   OH280530   2.989   2.252   4.096  0.0971  0.3602 -0.6958
19680TIP3    H180531   2.933   2.182   4.060  2.0094 -0.7686 -1.6511
19680TIP3    H280532   3.013   2.220   4.183 -1.0980  1.0791 -0.0831
19681TIP3   OH280533   6.701   0.619  15.052 -0.2663 -0.7003 -0.4722
19681TIP3    H180534   6.750   0.689  15.094  0.0914 -1.2206 -0.0054
19681TIP3    H280535   6.610   0.634  15.078 -0.1454 -0.6017 -0.1018
19682TIP3   OH280536   2.396   3.272  15.628 -0.1771  0.1922 -0.1940
19682TIP3    H180537   2.438   3.187  15.616  0.0449  0.3838 -0.8149
19682TIP3    H280538   2.407   3.316  15.544  0.2985  1.0963  0.3348
19683TIP3   OH280539   2.772   1.063   5.917  0.2658 -0.1325 -0.0437
19683TIP3    H180540   2.827   1.107   5.982 -0.6029 -0.0108  0.6126
19683TIP3    H280541   2.775   1.120   5.841  2.4347 -0.9517 -0.6710
19684TIP3   OH280542   0.216   2.960   5.705 -0.3099  0.4675 -0.1533
19684TIP3    H180543   0.270   2.896   5.751 -0.8673 -0.3385 -0.6059
19684TIP3    H280544   0.272   2.992   5.634 -0.4062 -0.3306 -0.5942
19685TIP3   OH280545   2.417   1.188  14.885  0.0631 -0.0962  0.2387
19685TIP3    H180546   2.419   1.182  14.981 -0.0166  3.8761  0.6614
19685TIP3    H280547   2.507   1.206  14.860 -0.2732  1.3637 -0.0705
19686TIP3   OH280548   3.713   0.703   3.896 -0.0086 -0.4044  0.6301
19686TIP3    H180549   3.695   0.613   3.922  0.2356 -0.3186  1.0963
19686TIP3    H280550   3.699   0.755   3.975  0.2459 -0.0841  0.4698
19687TIP3   OH280551   0.616   2.643  16.974  0.4953  0.5310  0.0487
19687TIP3    H180552   0.628   2.708  16.904  1.3653  0.1193 -0.1922
19687TIP3    H280553   0.532   2.602  16.954  0.6013  0.6155 -0.6006
19688TIP3   OH280554   2.011   1.208   1.633 -0.1100 -0.4080 -0.0299
19688TIP3    H180555   1.960   1.287   1.616 -0.8953 -0.7690  0.5761
19688TIP3    H280556   2.102   1.238   1.634 -0.4487  0.6887  1.1949
19689TIP3   OH280557   1.984   3.955   3.447 -0.2786  0.0395  0.1353
19689TIP3    H180558   1.897   3.942   3.484 -1.7171  0.4523 -2.8179
19689TIP3    H280559   2.018   3.867   3.434 -0.7596 -0.1610  0.2222
19690TIP3   OH280560   4.781   3.338   5.751 -0.1330  0.2282  0.0169
19690TIP3    H180561   4.710   3.314   5.812 -0.3944 -0.0302 -0.3879
19690TIP3    H280562   4.740   3.398   5.689 -0.1163 -0.2930 -0.5018
19691TIP3   OH280563   2.411   3.638  15.751  0.3382 -0.1541 -0.6376
19691TIP3    H180564   2.462   3.718  15.766  0.3899  0.0617 -1.8614
19691TIP3    H280565   2.455   3.572  15.804  0.0443  0.7127  0.7205
19692TIP3   OH280566   3.035   5.563   2.930 -0.0326 -0.2746  0.8081
19692TIP3    H180567   3.114   5.599   2.891 -0.8447  0.9328  0.2210
19692TIP3    H280568   3.035   5.596   3.020  0.2223 -0.4505  0.8749
19693TIP3   OH280569   5.077   3.757   5.450  0.4097 -0.0293 -0.1285
19693TIP3    H180570   5.072   3.667   5.420 -0.5887 -0.0963  0.2167
19693TIP3    H280571   4.986   3.783   5.464  0.7052  0.9109  0.1272
19694TIP3   OH280572   3.575   2.840  14.196  0.2847 -0.5135  0.3765
19694TIP3    H180573   3.604   2.869  14.110 -1.3476  1.2274  0.3527
19694TIP3    H280574   3.484   2.813  14.183 -0.5799  1.4148  1.7881
19695TIP3   OH280575   5.266   3.655   1.881  0.2300 -0.1009 -0.7284
19695TIP3    H180576   5.351   3.637   1.920 -0.1566  0.9547  0.6918
19695TIP3    H280577   5.273   3.744   1.847 -0.4846  0.2659  0.0263
19696TIP3   OH280578   0.367   0.574   3.118 -0.5771 -0.9628 -0.1971
19696TIP3    H180579   0.336   0.607   3.203  1.3976 -0.7410  0.4743
19696TIP3    H280580   0.462   0.569   3.127 -0.3473 -1.2701 -2.3006
19697TIP3   OH280581   6.777   3.408   5.216 -0.0814  0.6419  0.2505
19697TIP3    H180582   6.706   3.359   5.257  0.2121  0.8259  1.0068
19697TIP3    H280583   6.857   3.364   5.246  0.1921  1.6135  1.0185
19698TIP3   OH280584   2.026   1.408   6.265  0.1661  0.2481  0.0853
19698TIP3    H180585   1.993   1.408   6.175  2.2240  0.6728 -0.7270
19698TIP3    H280586   2.033   1.500   6.289  1.9559  0.2424 -0.2783
19699TIP3   OH280587   1.599   1.789  16.737 -0.2451  0.1571  0.0775
19699TIP3    H180588   1.597   1.693  16.730 -1.3221  0.2857 -3.6301
19699TIP3    H280589   1.682   1.814  16.696 -0.8768  0.8227 -0.8474
19700TIP3   OH280590   2.169   1.164   0.631 -0.2282 -0.1519  0.4507
19700TIP3    H180591   2.171   1.071   0.654  0.3576 -0.5627 -1.1689
19700TIP3    H280592   2.079   1.179   0.600 -0.3788 -0.1206  0.8942
19701TIP3   OH280593   4.377   4.136  13.542  0.2703 -0.2707 -0.2401
19701TIP3    H180594   4.360   4.230  13.548 -0.3223 -0.3628 -0.4267
19701TIP3    H280595   4.290   4.095  13.541  0.4875 -0.9890  2.4197
19702TIP3   OH280596   5.730   2.690   0.526  0.0383  0.2309  0.2317
19702TIP3    H180597   5.688   2.627   0.585 -0.2888 -0.2428 -0.4939
19702TIP3    H280598   5.755   2.638   0.450 -0.5392  1.0521 -0.5284
19703TIP3   OH280599   3.163   2.793  11.717 -0.1472  0.1380 -0.3847
19703TIP3    H180600   3.239   2.737  11.730 -1.7517 -2.1690 -0.3388
19703TIP3    H280601   3.160   2.809  11.623  0.7994  0.8848 -0.2968
19704TIP3   OH280602   0.571   6.173   6.214  0.1015  0.3994  0.5531
19704TIP3    H180603   0.587   6.118   6.290  0.8619 -1.6945 -1.0560
19704TIP3    H280604   0.603   6.260   6.241  0.0959 -0.1852  2.6743
19705TIP3   OH280605   1.215   4.961   4.471 -0.2321  0.4270 -0.3078
19705TIP3    H180606   1.228   4.866   4.473  1.2987  0.6212  1.3726
19705TIP3    H280607   1.127   4.973   4.508  0.0997 -0.2859  0.7644
19706TIP3   OH280608   0.198   6.210  12.061  0.8082  0.0619  0.0259
19706TIP3    H180609   0.285   6.174  12.079  0.5974 -1.3481 -1.5028
19706TIP3    H280610   0.215   6.292  12.016  1.4536 -1.0362 -1.8848
19707TIP3   OH280611   3.099   5.319  13.271 -0.8831 -0.2839  0.0014
19707TIP3    H180612   3.158   5.368  13.328  0.4775 -1.2007 -0.5915
19707TIP3    H280613   3.118   5.227  13.289 -0.6295 -0.5970 -1.6984
19708TIP3   OH280614   2.384   3.330   6.393  0.3481 -0.2516  0.1694
19708TIP3    H180615   2.336   3.269   6.449  0.4315 -0.9676 -0.5288
19708TIP3    H280616   2.368   3.416   6.433 -1.1583 -0.5182  0.2170
19709TIP3   OH280617   1.413   1.354  14.488 -0.1403 -0.0327 -1.2424
19709TIP3    H180618   1.395   1.266  14.455 -0.5765  0.3851 -2.1602
19709TIP3    H280619   1.360   1.412  14.433  0.0010  0.7922 -0.5357
19710TIP3   OH280620   5.645   6.520   5.535 -0.0028  0.1977  0.7386
19710TIP3    H180621   5.613   6.567   5.612 -0.3444 -1.1262  1.4470
19710TIP3    H280622   5.580   6.539   5.467  0.6291  1.8858  0.5569
19711TIP3   OH280623   6.105   6.671  15.977  0.0448  0.5697  0.2246
19711TIP3    H180624   6.153   6.732  15.921  1.9614 -0.3432  0.8189
19711TIP3    H280625   6.128   6.584  15.945  0.9122  0.0327  2.1414
19712TIP3   OH280626   6.192   4.034  16.278  0.5105  0.6022 -0.2166
19712TIP3    H180627   6.215   3.942  16.262  0.1886  0.2091  1.4060
19712TIP3    H280628   6.262   4.084  16.236  0.0322 -0.3160 -2.2360
19713TIP3   OH280629   0.575   1.599   1.543  0.4261 -0.2708 -0.4626
19713TIP3    H180630   0.512   1.647   1.597  1.1589  0.2426 -0.0551
19713TIP3    H280631   0.570   1.640   1.457  0.9906  0.4892 -0.1374
19714TIP3   OH280632   5.984   2.667  13.713 -0.0575 -0.3392 -0.4798
19714TIP3    H180633   5.997   2.732  13.644 -1.1724  0.5491  0.1063
19714TIP3    H280634   5.951   2.718  13.788  3.3697 -0.8694  1.5718
19715TIP3   OH280635   6.746   0.213  15.661 -0.0906 -0.3416 -0.1079
19715TIP3    H180636   6.725   0.226  15.569  1.5649  0.8605 -0.3568
19715TIP3    H280637   6.759   0.301  15.696  1.1157 -0.8532  0.8031
19716TIP3   OH280638   4.725   6.548   1.491  0.0715 -0.0344 -0.7278
19716TIP3    H180639   4.768   6.547   1.405 -0.2195  1.2868 -0.9081
19716TIP3    H280640   4.694   6.638   1.501  0.1564 -0.1515  0.7977
19717TIP3   OH280641   0.268   1.493   6.438  0.2527  0.5140  0.0247
19717TIP3    H180642   0.360   1.469   6.435 -0.0126 -0.9374  1.6849
19717TIP3    H280643   0.269   1.584   6.468  1.1536  0.2337  0.9351
19718TIP3   OH280644   3.651   0.185   2.233 -0.2294  0.9568 -0.1215
19718TIP3    H180645   3.638   0.256   2.169  0.8133  2.4600  1.2532
19718TIP3    H280646   3.727   0.137   2.200 -1.3548 -0.0057 -1.4305
19719TIP3   OH280647   3.455   3.999   2.699  0.2170  0.1014  0.1003
19719TIP3    H180648   3.371   4.037   2.724  0.2875  0.9491 -0.8259
19719TIP3    H280649   3.451   3.994   2.603  0.4078 -1.8461  0.1632
19720TIP3   OH280650   4.631   1.278   4.727  0.6234 -0.3856  0.4545
19720TIP3    H180651   4.547   1.292   4.682  0.9299  1.3196  0.3441
19720TIP3    H280652   4.634   1.346   4.793  1.8439 -0.5504  0.5906
19721TIP3   OH280653   4.764   3.629   0.589  0.3709  0.3543 -0.8173
19721TIP3    H180654   4.805   3.672   0.664  2.0229  1.8107 -2.4600
19721TIP3    H280655   4.682   3.677   0.576 -0.2750 -0.3579  0.4111
19722TIP3   OH280656   3.959   5.888  14.310 -0.0520 -0.0920  0.1530
19722TIP3    H180657   3.895   5.941  14.263  1.0030  2.8628  1.7457
19722TIP3    H280658   4.032   5.879  14.250 -1.2611 -2.2009 -1.1183
19723TIP3   OH280659   2.556   1.495   0.083  0.4436 -0.6636 -0.2491
19723TIP3    H180660   2.539   1.549   0.160  0.5221  0.2124 -0.8319
19723TIP3    H280661   2.469   1.473   0.050  0.4037 -0.0261 -0.5916
19724TIP3   OH280662   0.405   4.801  13.477  0.5036  0.5161  0.1825
19724TIP3    H180663   0.352   4.880  13.485  0.0894  0.6987 -3.2396
19724TIP3    H280664   0.495   4.833  13.469  0.4824  0.5509  0.0898
19725TIP3   OH280665   2.815   2.221   3.255 -0.0855  0.3124  0.3113
19725TIP3    H180666   2.816   2.128   3.275 -1.0244 -0.0613 -1.2668
19725TIP3    H280667   2.846   2.227   3.165  0.3389  1.5692  0.5201
19726TIP3   OH280668   5.399   0.298  15.391  0.1179 -0.4542  0.5205
19726TIP3    H180669   5.445   0.342  15.320  0.5356 -0.7455  0.6084
19726TIP3    H280670   5.459   0.231  15.421 -0.6023 -1.2600  0.2161
19727TIP3   OH280671   3.600   2.897   4.847  0.0173  0.0057 -0.1471
19727TIP3    H180672   3.605   2.978   4.797  4.3074  0.1158  0.0820
19727TIP3    H280673   3.608   2.827   4.782  1.4073  0.0021  0.0032
19728TIP3   OH280674   3.860   4.810   0.562  0.1401  0.0503 -0.3220
19728TIP3    H180675   3.772   4.808   0.524 -0.2872  2.3138  0.4043
19728TIP3    H280676   3.919   4.804   0.488 -0.6670  2.7125 -1.2842
19729TIP3   OH280677   5.416   2.225   4.459  0.1679  0.5788 -0.7517
19729TIP3    H180678   5.478   2.297   4.452 -1.1899  1.6287 -3.2731
19729TIP3    H280679   5.354   2.252   4.526 -0.3514  1.8362 -1.7052
19730TIP3   OH280680   4.161   6.422  10.595 -0.1810 -0.8499 -0.1090
19730TIP3    H180681   4.076   6.379  10.604 -0.4242 -0.5951 -1.0428
19730TIP3    H280682   4.146   6.512  10.622 -0.1847 -0.8294 -0.1795
19731TIP3   OH280683   4.748   6.438  11.694  0.1081  0.1875  0.5142
19731TIP3    H180684   4.807   6.512  11.681 -0.6623  0.9391  1.2260
19731TIP3    H280685   4.799   6.362  11.665  1.1544  0.9024  0.4216
19732TIP3   OH280686   3.489   6.510   2.024 -0.1137 -0.4752 -0.5161
19732TIP3    H180687   3.485   6.451   1.948 -0.1912 -1.2091  0.0405
19732TIP3    H280688   3.426   6.473   2.086  0.5268 -0.3545  0.2233
19733TIP3   OH280689   6.812   2.500   3.663  0.2319  0.1089  0.2215
19733TIP3    H180690   6.814   2.585   3.707 -0.6459 -0.0643  0.6342
19733TIP3    H280691   6.821   2.437   3.734 -1.4542 -0.1815  0.2265
19734TIP3   OH280692   1.180   1.831   1.088 -0.7499 -0.1465  0.3211
19734TIP3    H180693   1.096   1.875   1.100 -1.3253 -0.6984 -1.4269
19734TIP3    H280694   1.242   1.902   1.069 -1.0365  0.1542  0.5086
19735TIP3   OH280695   5.779   5.569  14.544 -0.2216  0.2194  0.4336
19735TIP3    H180696   5.831   5.491  14.562  1.4151  1.5488  1.9765
19735TIP3    H280697   5.843   5.641  14.550 -1.4817  1.6338 -1.7548
19736TIP3   OH280698   1.519   4.596   4.943 -0.4132 -0.9752  0.2290
19736TIP3    H180699   1.442   4.626   4.895 -2.0335 -0.9739  2.6276
19736TIP3    H280700   1.504   4.502   4.954  0.6154 -1.2264 -0.3826
19737TIP3   OH280701   5.092   6.749  15.173 -0.2535 -0.2961 -0.1537
19737TIP3    H180702   5.011   6.801  15.181 -0.3608 -0.4328 -0.3475
19737TIP3    H280703   5.142   6.794  15.105 -0.4149 -0.5339 -0.4315
19738TIP3   OH280704   3.695   4.615   3.852 -0.5285  0.1833  0.4083
19738TIP3    H180705   3.763   4.665   3.897  1.0397 -1.2960 -0.2383
19738TIP3    H280706   3.632   4.593   3.921  0.6748 -0.1257  1.4425
19739TIP3   OH280707   4.069   4.233  13.593  0.3995  0.0683 -0.8390
19739TIP3    H180708   4.081   4.140  13.576 -0.9755 -0.0969 -0.9587
19739TIP3    H280709   4.092   4.244  13.685 -1.8996 -0.8728 -0.1042
19740TIP3   OH280710   1.620   0.452  11.955  0.0627 -0.2326 -0.3505
19740TIP3    H180711   1.545   0.474  11.900  1.0532  1.4529 -1.1217
19740TIP3    H280712   1.684   0.521  11.936  0.8389 -0.1759  2.1754
19741TIP3   OH280713   5.570   5.600  12.727 -0.3539  0.2448  0.2523
19741TIP3    H180714   5.480   5.603  12.694 -0.0193 -1.6063 -0.9680
19741TIP3    H280715   5.581   5.510  12.757  0.3146  1.0963  2.8118
19742TIP3   OH280716   3.998   3.637   0.786 -0.0077 -0.1534  0.4771
19742TIP3    H180717   3.918   3.682   0.758  0.6770  0.0675 -1.2507
19742TIP3    H280718   3.980   3.610   0.876 -1.4559  1.2075  0.6380
19743TIP3   OH280719   1.036   2.720  13.535 -0.7581  0.3833 -0.1383
19743TIP3    H180720   1.020   2.813  13.521 -0.4057  0.2510 -1.6150
19743TIP3    H280721   1.010   2.679  13.452 -0.6908 -0.8038  0.4108
19744TIP3   OH280722   1.651   4.723   4.706 -0.0633  0.1746  0.5700
19744TIP3    H180723   1.744   4.705   4.698 -0.4176 -2.0953  0.8026
19744TIP3    H280724   1.632   4.712   4.800 -1.1190 -3.0433  0.1077
19745TIP3   OH280725   4.627   0.941   3.113  0.2369  0.1007  0.3694
19745TIP3    H180726   4.609   0.993   3.035  1.0205 -0.5050 -0.2312
19745TIP3    H280727   4.595   0.995   3.186  1.1866  1.5144 -0.2152
19746TIP3   OH280728   2.138   3.141  16.962  0.8469 -0.2444 -0.1212
19746TIP3    H180729   2.205   3.196  16.922 -0.6874  1.3450 -0.5970
19746TIP3    H280730   2.083   3.202  17.012 -0.2218 -1.5097  0.3120
19747TIP3   OH280731   0.658   3.542   5.797 -0.0001  0.2523  0.3586
19747TIP3    H180732   0.582   3.597   5.819 -0.5930 -0.9177  1.3265
19747TIP3    H280733   0.670   3.486   5.874  1.0855 -0.4264 -0.2879
19748TIP3   OH280734   6.618   4.167   2.922  0.1665  0.0191 -0.5831
19748TIP3    H180735   6.706   4.179   2.885 -0.0774  1.7929 -0.6720
19748TIP3    H280736   6.628   4.095   2.984  1.5324 -0.2504 -1.0762
19749TIP3   OH280737   5.998   4.504  12.386 -0.0444 -0.4790  0.1390
19749TIP3    H180738   6.032   4.491  12.474 -2.0282 -2.9076  0.6672
19749TIP3    H280739   5.927   4.567  12.396 -1.4916 -2.1134  0.7057
19750TIP3   OH280740   1.685   0.401   4.018  0.4147  0.3680  0.3841
19750TIP3    H180741   1.651   0.430   4.103  0.3728  1.5038 -0.0110
19750TIP3    H280742   1.767   0.355   4.040 -1.4395 -2.7935  1.3952
19751TIP3   OH280743   1.233   2.481   4.379 -0.4735 -0.3964  0.6950
19751TIP3    H180744   1.205   2.564   4.341 -0.7602 -1.1104 -0.7120
19751TIP3    H280745   1.325   2.494   4.402 -0.2767  0.0361 -0.3237
19752TIP3   OH280746   2.604   1.791  16.943 -0.1000 -0.4189  0.0907
19752TIP3    H180747   2.637   1.791  16.853 -0.8801 -1.3690 -0.2118
19752TIP3    H280748   2.626   1.878  16.976  0.1005 -0.0117 -1.0537
19753TIP3   OH280749   1.730   1.790  12.594  0.2896  0.0155 -0.6771
19753TIP3    H180750   1.779   1.757  12.519  0.3764 -0.8512 -0.2478
19753TIP3    H280751   1.783   1.765  12.670 -1.6957 -2.6889 -0.0549
19754TIP3   OH280752   2.186   5.605  11.491 -0.0741 -0.1106  1.0319
19754TIP3    H180753   2.171   5.695  11.462  0.2493 -0.2045  0.5683
19754TIP3    H280754   2.250   5.571  11.430 -0.5784 -0.8291  0.8998
19755TIP3   OH280755   2.115   4.288  11.943  0.3217 -0.3949 -0.3681
19755TIP3    H180756   2.197   4.321  11.905  1.4947 -2.6560  0.0438
19755TIP3    H280757   2.100   4.344  12.019  1.5521  0.0010 -0.3893
19756TIP3   OH280758   2.116   1.570   3.408 -0.0719  0.2701  0.0187
19756TIP3    H180759   2.167   1.582   3.488  0.4862  0.0432 -0.2912
19756TIP3    H280760   2.181   1.541   3.343 -0.9056 -2.0400  0.1067
19757TIP3   OH280761   3.363   1.660   5.405  0.1366 -0.4042 -0.0656
19757TIP3    H180762   3.295   1.641   5.470 -0.2385 -1.0012 -0.6136
19757TIP3    H280763   3.443   1.672   5.456 -0.2081 -0.6069  0.5265
19758TIP3   OH280764   3.965   6.287  15.094 -0.3421 -0.0103 -0.4380
19758TIP3    H180765   3.993   6.322  15.179 -0.8758  0.7490 -0.5589
19758TIP3    H280766   3.893   6.344  15.068  1.4433  1.3946 -2.6259
19759TIP3   OH280767   3.782   6.831   1.049  0.8953 -0.4774 -0.5635
19759TIP3    H180768   3.732   6.838   1.131  1.1226  1.1093 -0.5257
19759TIP3    H280769   3.778   6.738   1.026 -0.8217 -0.6387  0.2187
19760TIP3   OH280770   5.261   1.888   6.089 -0.4383 -0.4624  0.1893
19760TIP3    H180771   5.234   1.954   6.024 -1.8231 -0.8092  0.3848
19760TIP3    H280772   5.180   1.862   6.131  0.2577 -1.4157  0.9660
19761TIP3   OH280773   1.263   2.878   1.662 -0.1887 -0.7018 -0.3887
19761TIP3    H180774   1.248   2.937   1.735 -2.4807 -1.2950 -0.3005
19761TIP3    H280775   1.283   2.794   1.702  0.6633 -0.5614 -0.4950
19762TIP3   OH280776   6.288   2.559   0.675 -0.3217  0.4114 -0.0874
19762TIP3    H180777   6.381   2.579   0.682 -0.2181 -0.0485 -0.1418
19762TIP3    H280778   6.284   2.465   0.657 -0.8015  0.3873  0.1130
19763TIP3   OH280779   3.085   3.694   4.699  0.1688  0.8845 -0.1330
19763TIP3    H180780   3.077   3.612   4.747  0.0110  0.6483 -0.5555
19763TIP3    H280781   3.007   3.744   4.725 -0.6386  0.2095 -1.1639
19764TIP3   OH280782   2.907   6.374  14.071  0.1432  0.0037  0.4122
19764TIP3    H180783   2.862   6.385  13.987  0.1240 -0.7358  0.3264
19764TIP3    H280784   2.913   6.463  14.106 -0.4660  0.2346 -0.0519
19765TIP3   OH280785   0.248   4.213  15.396 -0.0606  0.1894 -0.3569
19765TIP3    H180786   0.325   4.269  15.409  0.1901  0.1957 -1.7713
19765TIP3    H280787   0.176   4.275  15.381  0.0570  0.1474 -1.0958
19766TIP3   OH280788   1.042   1.143   3.491  0.0812  0.0268 -0.1752
19766TIP3    H180789   1.036   1.183   3.405 -0.2406  1.0598  0.3044
19766TIP3    H280790   1.134   1.155   3.516 -0.1565  1.1616  0.2569
19767TIP3   OH280791   4.411   6.139   4.287 -0.2301 -0.3820 -0.0935
19767TIP3    H180792   4.456   6.087   4.354 -1.4469 -1.2152  0.1149
19767TIP3    H280793   4.320   6.111   4.293 -0.8341  1.4162 -0.3415
19768TIP3   OH280794   1.320   5.362   1.550 -0.0658 -0.6661  0.1014
19768TIP3    H180795   1.296   5.435   1.494 -0.8191 -0.6488  0.4453
19768TIP3    H280796   1.254   5.360   1.619  0.8337 -0.6947  0.9952
19769TIP3   OH280797   0.387   5.742   3.303 -0.1295 -0.1925  0.3460
19769TIP3    H180798   0.341   5.809   3.252  1.3845  1.5978  1.2183
19769TIP3    H280799   0.328   5.723   3.375  0.5262  2.4053  1.7082
19770TIP3   OH280800   0.127   0.926  16.715  0.0218 -0.0443  0.0546
19770TIP3    H180801   0.136   0.906  16.808  1.8389  1.1364  0.1698
19770TIP3    H280802   0.207   0.892  16.675  0.4098  1.5922 -0.6604
19771TIP3   OH280803   0.454   6.453   1.872  0.0442 -0.4030 -0.9932
19771TIP3    H180804   0.478   6.498   1.953 -1.2840  1.7368 -1.7032
19771TIP3    H280805   0.535   6.411   1.843  0.9844  0.2845  0.5163
19772TIP3   OH280806   2.520   3.158  16.919 -0.2822 -0.2746 -0.0611
19772TIP3    H180807   2.584   3.227  16.900  0.5827 -0.5190  1.7627
19772TIP3    H280808   2.438   3.190  16.882  0.3595  1.2098 -0.2578
19773TIP3   OH280809   3.002   5.028  12.439  0.2537  0.4164 -0.1938
19773TIP3    H180810   2.973   4.956  12.382 -0.2520  0.5674 -0.1326
19773TIP3    H280811   2.959   5.011  12.523  1.3002 -0.0157  0.2641
19774TIP3   OH280812   6.529   0.316  11.321  0.6100  0.1238  0.4939
19774TIP3    H180813   6.609   0.365  11.304 -0.3001  1.0521 -1.4281
19774TIP3    H280814   6.492   0.356  11.400  0.9248  1.1981  0.1095
19775TIP3   OH280815   6.124   6.143  12.746 -0.7309  0.1656 -0.3872
19775TIP3    H180816   6.121   6.049  12.765  1.5140  0.0681 -0.2721
19775TIP3    H280817   6.163   6.148  12.659 -1.7130  0.9798 -0.7958
19776TIP3   OH280818   1.932   5.829  15.300  0.7635 -0.5240  0.0847
19776TIP3    H180819   1.937   5.761  15.367 -1.2601 -0.6862  0.1429
19776TIP3    H280820   1.839   5.834  15.278  1.2037  0.4463 -1.7731
19777TIP3   OH280821   0.510   1.027   3.584  0.3368 -0.5224 -0.0190
19777TIP3    H180822   0.453   1.079   3.528  0.9907  0.5857  0.3202
19777TIP3    H280823   0.452   0.963   3.625 -0.2100 -1.1317 -1.6731
19778TIP3   OH280824   3.709   5.885  15.827  0.1380  0.0515  0.1751
19778TIP3    H180825   3.643   5.818  15.812  0.6293 -0.1943 -1.0173
19778TIP3    H280826   3.790   5.847  15.795  0.4685  1.1145 -0.3004
19779TIP3   OH280827   6.663   0.559   2.156  0.5444  0.1596 -0.3252
19779TIP3    H180828   6.699   0.570   2.068  2.0030  0.8072  0.3167
19779TIP3    H280829   6.708   0.625   2.209 -2.5612  1.9809  0.3123
19780TIP3   OH280830   3.485   1.053  11.745  0.2493 -0.0618  0.6922
19780TIP3    H180831   3.511   0.985  11.807  2.0141  1.8038  2.1493
19780TIP3    H280832   3.553   1.052  11.678 -1.3402 -1.6723 -1.0144
19781TIP3   OH280833   6.473   6.480  13.422  0.1020  0.8149 -0.4770
19781TIP3    H180834   6.511   6.526  13.497 -1.6941  1.0169  0.3819
19781TIP3    H280835   6.505   6.528  13.346  1.0277  1.3375  0.2183
19782TIP3   OH280836   2.250   1.176  13.136  0.1937 -1.0524 -0.5912
19782TIP3    H180837   2.270   1.106  13.198 -0.5646 -0.9418 -0.2194
19782TIP3    H280838   2.243   1.255  13.190  1.2738 -0.6310 -1.0317
19783TIP3   OH280839   4.260   6.126   5.759 -0.1292  0.0433  0.1408
19783TIP3    H180840   4.262   6.209   5.712  0.1327 -0.3741 -0.5990
19783TIP3    H280841   4.245   6.151   5.850  0.2866  0.9248 -0.0180
19784TIP3   OH280842   1.813   0.762   5.267 -0.2304  0.2197  0.2619
19784TIP3    H180843   1.849   0.785   5.353  2.5145 -1.7513 -0.2243
19784TIP3    H280844   1.756   0.687   5.286 -2.3259  1.8575  0.7229
19785TIP3   OH280845   1.846   4.446   3.325 -0.2562 -0.1091 -0.0894
19785TIP3    H180846   1.859   4.396   3.244  1.5452 -1.4507  0.9826
19785TIP3    H280847   1.870   4.386   3.395  0.1815  1.6829  1.3577
19786TIP3   OH280848   1.605   5.293  15.891 -0.2785  0.1462  0.3078
19786TIP3    H180849   1.641   5.371  15.849 -0.7262 -0.3932 -1.1551
19786TIP3    H280850   1.527   5.273  15.841  0.4325 -1.8807 -0.0951
19787TIP3   OH280851   3.100   4.041  12.837 -0.0155  0.4285 -0.4521
19787TIP3    H180852   3.030   4.091  12.795 -0.9507  0.7321  1.3807
19787TIP3    H280853   3.093   4.062  12.930  0.8500 -1.5811  0.1281
19788TIP3   OH280854   6.763   3.213  12.549  0.1613  0.8205  0.0691
19788TIP3    H180855   6.822   3.241  12.479  0.6065  2.5907  1.0944
19788TIP3    H280856   6.726   3.294  12.583  0.7249  0.1199  2.5559
19789TIP3   OH280857   1.116   5.866  14.858 -0.6717 -0.2984  0.2919
19789TIP3    H180858   1.047   5.932  14.868  0.7880  1.0099  2.4203
19789TIP3    H280859   1.163   5.893  14.779 -1.5461 -0.2381 -0.2279
19790TIP3   OH280860   1.671   2.713  13.421  0.4233  0.2291 -0.4480
19790TIP3    H180861   1.593   2.770  13.422 -0.0283 -0.3530 -1.1985
19790TIP3    H280862   1.729   2.755  13.357  0.6549  0.5624 -0.0246
19791TIP3   OH280863   3.446   3.027  11.179  0.1046 -0.4058  0.0967
19791TIP3    H180864   3.402   3.056  11.100  0.1330  3.6515  1.3618
19791TIP3    H280865   3.375   3.014  11.243  0.3327 -0.0534  0.4212
19792TIP3   OH280866   0.934   2.118  11.893 -0.4219 -0.5419 -0.2818
19792TIP3    H180867   0.954   2.102  11.801 -1.1813 -0.6482 -0.4363
19792TIP3    H280868   0.890   2.038  11.923 -0.3175 -0.4487  0.1254
19793TIP3   OH280869   5.467   2.164   0.314 -0.1237  0.7125 -0.0226
19793TIP3    H180870   5.425   2.122   0.388 -0.8460  3.0218  0.9409
19793TIP3    H280871   5.561   2.162   0.335 -0.3653  1.9282  1.3284
19794TIP3   OH280872   0.162   5.888   1.328  0.2933  0.4606  0.5165
19794TIP3    H180873   0.217   5.960   1.298  0.3147  0.2065 -0.0800
19794TIP3    H280874   0.130   5.848   1.247 -1.3199  1.0156  0.8421
19795TIP3   OH280875   0.499   4.174   2.796 -0.2212 -0.3189  0.4788
19795TIP3    H180876   0.521   4.239   2.729 -0.6852  1.1401  1.6589
19795TIP3    H280877   0.468   4.098   2.748  2.7867 -0.7151 -1.0816
19796TIP3   OH280878   4.296   3.154  13.013 -0.1652 -0.0111 -0.4057
19796TIP3    H180879   4.203   3.167  13.033  0.0391  2.2502 -0.6886
19796TIP3    H280880   4.337   3.136  13.098 -0.5077  1.4652  0.0871
19797TIP3   OH280881   2.572   1.985  15.984  0.2009  0.4499 -0.3795
19797TIP3    H180882   2.566   2.017  15.894 -0.8316 -0.9603 -0.8529
19797TIP3    H280883   2.554   1.891  15.978 -0.5360  0.4225  1.3613
19798TIP3   OH280884   1.107   5.071  13.679  0.7304  0.1266 -0.0660
19798TIP3    H180885   1.156   5.117  13.748 -0.3011  0.6337  0.3522
19798TIP3    H280886   1.062   5.141  13.632  0.9005 -0.2798 -0.8542
19799TIP3   OH280887   4.021   4.194   0.720 -0.0336  0.2249  0.2568
19799TIP3    H180888   4.105   4.179   0.764  2.1096  2.2840 -2.7574
19799TIP3    H280889   3.998   4.108   0.684  0.1658 -0.6136  2.0295
19800TIP3   OH280890   4.684   5.758   5.551 -0.3896  0.3289  0.1476
19800TIP3    H180891   4.746   5.805   5.495 -3.4311  2.7002 -1.4636
19800TIP3    H280892   4.652   5.824   5.613 -0.9404 -0.9869  1.3267
19801TIP3   OH280893   0.648   4.145   1.773 -0.2736  0.5226 -0.4329
19801TIP3    H180894   0.586   4.202   1.819 -0.4444  0.8328 -1.0328
19801TIP3    H280895   0.595   4.101   1.706  0.1292  0.7324 -0.9024
19802TIP3   OH280896   1.942   6.088  13.173 -0.3483 -0.4247 -0.2975
19802TIP3    H180897   1.919   6.122  13.087  1.8933  1.5253 -0.2196
19802TIP3    H280898   1.899   6.002  13.178 -2.9269  0.6552 -2.1447
19803TIP3   OH280899   2.625   6.382   2.917  0.1701 -0.2050  0.1073
19803TIP3    H180900   2.697   6.348   2.970  0.0538 -0.1768  0.2858
19803TIP3    H280901   2.643   6.476   2.911 -0.0493 -0.1407  0.4611
19804TIP3   OH280902   1.854   0.533  13.317  0.2035  0.1279  0.1364
19804TIP3    H180903   1.813   0.486  13.390  1.4092  0.3233  0.9722
19804TIP3    H280904   1.856   0.470  13.246  1.2308 -0.9192  1.0537
19805TIP3   OH280905   4.593   5.479  14.832  0.4741  0.3556 -0.5379
19805TIP3    H180906   4.664   5.453  14.891  0.0209 -1.4577 -0.7286
19805TIP3    H280907   4.517   5.490  14.889  0.2682 -0.4542 -0.6355
19806TIP3   OH280908   4.864   3.721   4.787 -0.3858  0.5215  0.2396
19806TIP3    H180909   4.945   3.681   4.755 -0.5379  2.0336 -2.2730
19806TIP3    H280910   4.893   3.791   4.845 -0.0172 -0.6079  1.4639
19807TIP3   OH280911   3.332   6.607   4.104  0.2263  0.3541  0.0123
19807TIP3    H180912   3.318   6.693   4.066  1.4200 -0.0978 -1.5558
19807TIP3    H280913   3.249   6.561   4.091 -0.7329  1.5084  1.6900
19808TIP3   OH280914   1.459   6.476  12.445 -0.1996  0.0877  0.0588
19808TIP3    H180915   1.363   6.476  12.440 -0.2325  0.1248  0.5956
19808TIP3    H280916   1.485   6.552  12.394 -0.2827 -1.5786 -2.6503
19809TIP3   OH280917   3.314   0.568  11.282 -0.3391  0.4093 -0.1883
19809TIP3    H180918   3.321   0.660  11.254  0.0024  0.2976 -0.4800
19809TIP3    H280919   3.405   0.541  11.295 -0.4981  0.8460  2.3169
19810TIP3   OH280920   5.822   2.348   6.012  0.0497 -0.8897  0.0659
19810TIP3    H180921   5.899   2.365   5.958 -0.7436  0.4532 -0.6982
19810TIP3    H280922   5.822   2.420   6.076 -1.2357 -0.1101 -0.7514
19811TIP3   OH280923   5.089   2.110  12.894 -0.0623  0.2393  0.0178
19811TIP3    H180924   5.116   2.122  12.803  0.1803  2.2228  0.2940
19811TIP3    H280925   5.161   2.146  12.946 -0.2616 -0.7246  1.0112
19812TIP3   OH280926   6.145   2.325   1.411  0.4093 -0.5431 -0.2422
19812TIP3    H180927   6.104   2.240   1.397 -0.5145 -0.1812  0.1766
19812TIP3    H280928   6.113   2.380   1.340 -0.5767 -0.0104  0.5858
19813TIP3   OH280929   3.789   0.109  12.597  0.5143 -0.2348  0.1021
19813TIP3    H180930   3.721   0.070  12.651  0.7026 -0.9027 -0.1281
19813TIP3    H280931   3.870   0.095  12.647  0.9815 -2.5840 -1.1595
19814TIP3   OH280932   2.857   1.767  12.145  0.2696  0.3344 -0.1575
19814TIP3    H180933   2.889   1.694  12.091 -0.7393 -1.1688  1.1586
19814TIP3    H280934   2.768   1.782  12.113  0.6542  1.3843 -0.7749
19815TIP3   OH280935   0.031   3.151  14.232  0.0487 -0.3042 -0.0814
19815TIP3    H180936   0.032   3.171  14.138  1.7135  1.5868  0.2835
19815TIP3    H280937  -0.023   3.219  14.270  1.0803  0.1832  0.5466
19816TIP3   OH280938   3.867   5.778   4.465 -0.2213 -0.1354  0.0831
19816TIP3    H180939   3.943   5.816   4.508 -1.4794  2.3995  0.2422
19816TIP3    H280940   3.825   5.725   4.534 -0.8361  1.8454  1.3077
19817TIP3   OH280941   3.051   4.711  17.016  0.7823 -0.4549  0.0363
19817TIP3    H180942   3.135   4.758  17.018  0.4340  0.1659  0.3788
19817TIP3    H280943   3.010   4.734  17.099  1.0225 -2.1523  0.6465
19818TIP3   OH280944   2.441   4.362  11.456 -0.2862  0.1164  0.0125
19818TIP3    H180945   2.395   4.397  11.380  0.2865 -0.8694 -0.8078
19818TIP3    H280946   2.372   4.332  11.515 -0.8351  2.9492  0.9734
19819TIP3   OH280947   1.223   4.590  12.772  0.4117 -0.5702  0.5965
19819TIP3    H180948   1.140   4.556  12.806 -0.2485  1.2413  0.9288
19819TIP3    H280949   1.232   4.551  12.685 -1.3233 -0.0163  0.1281
19820TIP3   OH280950   6.003   4.862   4.213 -0.0141  0.5600  0.4927
19820TIP3    H180951   5.972   4.951   4.194 -0.2398  0.9031  2.3495
19820TIP3    H280952   5.990   4.815   4.130 -1.2878  1.8532 -0.0942
19821TIP3   OH280953   6.365   6.660   5.540  0.5337  0.1220  0.1505
19821TIP3    H180954   6.297   6.679   5.604 -1.2033  2.6859 -2.2158
19821TIP3    H280955   6.441   6.710   5.570 -0.2499  1.2900  0.2417
19822TIP3   OH280956   5.132   3.257  12.711 -0.0784 -0.0395 -0.0803
19822TIP3    H180957   5.045   3.218  12.709 -0.7623  0.9334  3.3752
19822TIP3    H280958   5.190   3.185  12.734 -0.3306 -0.2580 -0.1205
19823TIP3   OH280959   2.048   1.264   1.167  0.3114  0.1221  0.0881
19823TIP3    H180960   1.982   1.212   1.213  1.0175  0.0214  1.0220
19823TIP3    H280961   2.086   1.204   1.103 -0.5221  0.1938 -0.4899
19824TIP3   OH280962   6.292   3.642  12.740 -0.0148 -0.0347  0.5757
19824TIP3    H180963   6.374   3.606  12.775  1.0500 -0.2363 -1.9057
19824TIP3    H280964   6.246   3.567  12.703 -1.1108  0.1633  1.4843
19825TIP3   OH280965   1.793   2.404   1.633 -0.2487  0.1767  0.3439
19825TIP3    H180966   1.701   2.416   1.608 -0.5744 -2.6464 -0.0512
19825TIP3    H280967   1.789   2.364   1.719  0.7951  3.8712  2.3098
19826TIP3   OH280968   6.670   2.695   2.021  0.2605 -0.7364  0.1497
19826TIP3    H180969   6.683   2.608   2.059  0.2305 -0.1413  1.5850
19826TIP3    H280970   6.601   2.682   1.955  1.5688 -2.1414 -1.0442
19827TIP3   OH280971   3.083   1.610   6.143  0.1804 -0.5137 -0.0725
19827TIP3    H180972   3.054   1.570   6.226 -1.2522  0.7069  0.0520
19827TIP3    H280973   3.080   1.704   6.159 -1.0618 -0.2076 -1.7843
19828TIP3   OH280974   1.311   5.351  10.587 -0.1529 -0.5224 -0.0991
19828TIP3    H180975   1.294   5.445  10.579 -0.0601 -0.4984 -0.0232
19828TIP3    H280976   1.379   5.345  10.654 -0.6416 -0.6971  0.3788
19829TIP3   OH280977   6.439   2.548   0.957  0.0068 -0.1023  0.4083
19829TIP3    H180978   6.507   2.579   1.016 -0.3257  0.6413  0.4052
19829TIP3    H280979   6.474   2.565   0.869  0.4565 -1.1127  0.3754
19830TIP3   OH280980   5.180   2.189   1.198  0.1529  0.4855  0.0115
19830TIP3    H180981   5.230   2.222   1.273  0.4283  0.0451  0.0247
19830TIP3    H280982   5.132   2.113   1.233  1.1992 -0.4555 -0.5308
19831TIP3   OH280983   3.860   4.484   4.507  0.0064 -0.2010 -0.5415
19831TIP3    H180984   3.834   4.407   4.559  2.6254  0.6931  2.3986
19831TIP3    H280985   3.785   4.544   4.515  0.4417  0.0936  2.8312
19832TIP3   OH280986   2.827   4.616  10.982 -0.8004  0.2381 -0.3622
19832TIP3    H180987   2.845   4.703  11.016 -0.2748  1.0423 -2.5621
19832TIP3    H280988   2.867   4.615  10.895 -2.8309 -1.3745 -1.3693
19833TIP3   OH280989   3.240   0.369   4.773 -0.2321 -0.1642 -0.2730
19833TIP3    H180990   3.145   0.360   4.780  0.0219 -1.7821  3.3044
19833TIP3    H280991   3.253   0.458   4.741 -3.0032  1.0914  1.6635
19834TIP3   OH280992   6.280   4.831   3.504  0.0443  0.4686 -0.1197
19834TIP3    H180993   6.212   4.774   3.467  0.4132  0.2402 -0.4487
19834TIP3    H280994   6.360   4.779   3.500  0.3596  0.9653 -0.3038
19835TIP3   OH280995   4.411   3.507   5.771  0.1621 -0.2271  0.0643
19835TIP3    H180996   4.316   3.495   5.769  0.2175 -0.5589 -0.8611
19835TIP3    H280997   4.436   3.483   5.860 -0.5211 -0.9650  0.0691
19836TIP3   OH280998   2.342   0.217   2.660  0.0562  0.5454  0.1589
19836TIP3    H180999   2.291   0.169   2.594  0.3429 -0.5213  0.6909
19836TIP3    H281000   2.292   0.297   2.676 -0.0394  0.8175 -1.3221
19837TIP3   OH281001   0.157   2.947   2.660 -0.1485  0.0124 -0.2093
19837TIP3    H181002   0.247   2.916   2.646  0.1037  0.0400  1.2048
19837TIP3    H281003   0.125   2.895   2.733 -1.4755 -0.3282 -1.0072
19838TIP3   OH281004   2.047   0.684   1.866 -0.9601 -0.1270 -0.2148
19838TIP3    H181005   2.049   0.772   1.829 -0.3165 -0.7630 -1.7347
19838TIP3    H281006   1.972   0.642   1.824 -0.8511 -0.5379 -0.0047
19839TIP3   OH281007   4.952   6.838   3.909 -0.3252  0.0498 -0.0261
19839TIP3    H181008   4.865   6.864   3.939 -0.8586  2.2938 -3.0166
19839TIP3    H281009   5.012   6.889   3.963 -0.9807  0.3156  0.4708
19840TIP3   OH281010   6.113   0.421   1.755 -0.2534 -0.4316 -0.8539
19840TIP3    H181011   6.133   0.514   1.749 -1.0796 -0.3010 -1.7195
19840TIP3    H281012   6.122   0.401   1.848  2.6474 -0.1375 -0.9761
19841TIP3   OH281013   5.069   4.271   1.471 -0.1610  0.5490 -0.1351
19841TIP3    H181014   4.980   4.262   1.507  0.2671  1.6095  1.3117
19841TIP3    H281015   5.117   4.318   1.539  2.1050 -1.8323  0.0458
19842TIP3   OH281016   2.776   3.438  14.635 -0.4678  0.2705  0.0507
19842TIP3    H181017   2.799   3.529  14.654 -1.3691  0.8574 -1.4763
19842TIP3    H281018   2.856   3.401  14.597 -0.4784  0.8251 -0.5349
19843TIP3   OH281019   4.026   6.707  11.341 -0.4465  0.6669 -0.2050
19843TIP3    H181020   3.943   6.703  11.390 -0.1560 -0.3812  0.2126
19843TIP3    H281021   4.059   6.795  11.358  0.2602 -0.0466  2.5366
19844TIP3   OH281022   6.033   4.060   3.565  0.1341 -0.3200  0.3750
19844TIP3    H181023   6.063   3.973   3.592 -1.3302 -1.2232 -0.6940
19844TIP3    H281024   5.941   4.063   3.593 -0.4496  0.0139 -1.4170
19845TIP3   OH281025   4.320   2.747   0.022  0.2306 -0.4189 -0.1322
19845TIP3    H181026   4.269   2.687   0.077 -1.1654  1.6381  0.9665
19845TIP3    H281027   4.288   2.731  -0.067 -0.9990 -0.5012  0.2996
19846TIP3   OH281028   4.024   0.947   2.617  0.2346 -0.4968 -0.1577
19846TIP3    H181029   3.969   0.931   2.540  1.0653  1.9801 -1.3716
19846TIP3    H281030   3.970   1.001   2.674  0.2763 -0.7652  0.1343
19847TIP3   OH281031   5.053   4.139   4.948  0.3685 -0.7788 -0.1109
19847TIP3    H181032   5.045   4.157   5.041 -3.1752 -3.6695  0.3461
19847TIP3    H281033   5.001   4.208   4.906 -1.9366 -1.9802  0.5597
19848TIP3   OH281034   2.908   0.888  11.698  0.1440  0.2436 -1.0249
19848TIP3    H181035   2.861   0.959  11.740 -0.2513  1.9375 -4.0190
19848TIP3    H281036   2.972   0.931  11.642  0.2783 -1.7358 -2.5383
19849TIP3   OH281037   5.976   0.088   1.485 -0.4655  0.3833  0.0269
19849TIP3    H181038   6.056   0.129   1.518 -0.1852 -1.1720  1.4092
19849TIP3    H281039   5.980   0.103   1.390  0.9971  1.1370  0.1664
19850TIP3   OH281040   1.077   2.748  11.497 -0.5875 -0.3964  0.3514
19850TIP3    H181041   1.001   2.709  11.454 -0.6215 -2.5632  2.2120
19850TIP3    H281042   1.064   2.730  11.590  2.4483 -1.3491  0.6971
19851TIP3   OH281043   0.842   1.186  13.695 -0.9783  0.0301 -0.3026
19851TIP3    H181044   0.816   1.268  13.737  0.2046  0.6098 -0.6381
19851TIP3    H281045   0.935   1.197  13.677 -0.6215 -1.6803  0.2843
19852TIP3   OH281046   3.248   3.455   2.256  0.2762  0.3082 -0.5653
19852TIP3    H181047   3.171   3.511   2.250 -0.4124 -0.5389  0.0089
19852TIP3    H281048   3.224   3.377   2.206 -0.1457 -0.9279  1.4474
19853TIP3   OH281049   6.321   2.291   0.602 -0.3869 -0.2693 -0.0661
19853TIP3    H181050   6.388   2.278   0.536  0.5382 -0.1300  0.8187
19853TIP3    H281051   6.247   2.239   0.572 -0.6602  1.1685 -2.1034
19854TIP3   OH281052   5.585   3.349   4.296  0.5846  0.6844 -0.3545
19854TIP3    H181053   5.585   3.396   4.380 -0.9902  1.4991 -0.7792
19854TIP3    H281054   5.501   3.371   4.256  1.1142 -0.0592 -1.9561
19855TIP3   OH281055   1.174   1.792   4.869 -0.7290  0.3196  0.0070
19855TIP3    H181056   1.263   1.816   4.893 -0.1843 -2.1272  0.6731
19855TIP3    H281057   1.182   1.752   4.782 -1.5890  2.2317 -1.0217
19856TIP3   OH281058   1.019   4.218   5.830  0.2810  0.4158  0.5338
19856TIP3    H181059   1.079   4.292   5.827  1.1123 -0.2094  1.0862
19856TIP3    H281060   0.982   4.220   5.918 -3.9773  3.3702 -0.9964
19857TIP3   OH281061   5.686   5.594   0.955  0.2312  0.3382 -0.4030
19857TIP3    H181062   5.760   5.654   0.959  0.2083  0.3490 -0.1340
19857TIP3    H281063   5.692   5.554   0.868  0.9869 -0.2141 -0.1002
19858TIP3   OH281064   4.184   5.878  14.143  0.1802  0.1644 -0.2513
19858TIP3    H181065   4.206   5.786  14.132 -4.4341 -1.0778 -1.0742
19858TIP3    H281066   4.208   5.918  14.059  1.0322 -0.5437 -0.3643
19859TIP3   OH281067   6.809   3.201   4.254  0.0218  0.7316  0.2732
19859TIP3    H181068   6.737   3.245   4.298  1.4432  3.7696 -0.2018
19859TIP3    H281069   6.866   3.171   4.325 -0.7241  0.0721  0.6016
19860TIP3   OH281070   3.656   2.343   5.615 -0.0973  0.5037 -0.0520
19860TIP3    H181071   3.713   2.371   5.686  0.4014  0.6962 -0.5187
19860TIP3    H281072   3.697   2.379   5.536  0.6808 -1.6751 -0.7090
19861TIP3   OH281073   2.148   4.097   5.486  0.1203 -0.2850 -0.0312
19861TIP3    H181074   2.243   4.108   5.495  0.8303 -3.5321 -1.9065
19861TIP3    H281075   2.128   4.022   5.542 -1.1824 -0.2296 -0.4025
19862TIP3   OH281076   3.551   5.729  13.846 -0.5772  0.3395  0.5153
19862TIP3    H181077   3.614   5.796  13.872 -0.2590  0.5510 -0.7573
19862TIP3    H281078   3.579   5.701  13.759 -0.4091 -1.8192  1.1924
19863TIP3   OH281079   3.869   1.044   1.610 -0.3296 -0.0758 -0.0823
19863TIP3    H181080   3.923   1.070   1.535  1.1142  0.0389  0.9492
19863TIP3    H281081   3.821   1.123   1.634  0.9148  0.5392  0.4819
19864TIP3   OH281082   1.080   3.588   2.203  0.3958 -0.5746  0.4398
19864TIP3    H181083   1.086   3.682   2.185  1.2802 -0.7672 -0.3279
19864TIP3    H281084   1.073   3.547   2.117 -1.4970 -1.1368  0.8191
19865TIP3   OH281085   5.074   0.636  16.816  0.4705 -0.4135  0.3676
19865TIP3    H181086   5.071   0.598  16.729 -0.9829  0.1406  0.1465
19865TIP3    H281087   4.982   0.647  16.841  0.8046  2.0791  0.7701
19866TIP3   OH281088   5.737   2.608   0.247  0.5342 -0.0425 -0.2290
19866TIP3    H181089   5.676   2.681   0.262  0.7046 -0.0220  0.3743
19866TIP3    H281090   5.747   2.605   0.152 -1.9480 -1.3113 -0.5179
19867TIP3   OH281091   3.581   3.392  12.546 -0.0190  0.1006 -0.1997
19867TIP3    H181092   3.608   3.411  12.636 -1.8896 -3.7417  1.4276
19867TIP3    H281093   3.485   3.392  12.550 -0.1399 -0.1210 -2.1994
19868TIP3   OH281094   1.818   2.334   5.623  0.0373 -0.4320  0.1919
19868TIP3    H181095   1.742   2.275   5.614 -0.1942 -0.4505  2.0047
19868TIP3    H281096   1.791   2.397   5.690  0.9009  0.7863 -0.5702
19869TIP3   OH281097   6.673   2.563  13.741 -0.3480  0.0268  0.0949
19869TIP3    H181098   6.759   2.589  13.774  0.2676 -2.0714  0.2623
19869TIP3    H281099   6.680   2.571  13.646  0.5291 -1.4173  0.0082
19870TIP3   OH281100   4.252   4.479   4.354 -0.4021 -0.4322  0.0455
19870TIP3    H181101   4.213   4.483   4.441  1.5503  0.7007  0.9206
19870TIP3    H281102   4.297   4.563   4.344  0.5519 -1.0881 -1.5132
19871TIP3   OH281103   6.838   2.919  10.782  0.1299  0.3018  0.1827
19871TIP3    H181104   6.757   2.970  10.784  0.7005  1.2488 -0.2948
19871TIP3    H281105   6.891   2.956  10.853  0.9316  1.0442 -0.7787
19872TIP3   OH281106   4.430   6.202   3.117 -0.4829 -0.4141  0.1697
19872TIP3    H181107   4.385   6.248   3.046  0.3763  0.0396 -0.1004
19872TIP3    H281108   4.405   6.111   3.106  0.5399 -0.5376 -1.4500
19873TIP3   OH281109   5.551   3.343   4.875  0.2852 -0.1612 -0.3465
19873TIP3    H181110   5.478   3.281   4.868  0.4639 -0.1901 -2.4853
19873TIP3    H281111   5.580   3.357   4.785  0.0089  3.3441 -0.0402
19874TIP3   OH281112   3.509   3.709  17.037  0.0963  0.8507 -0.0432
19874TIP3    H181113   3.592   3.710  16.990  0.6885  0.5550  0.9588
19874TIP3    H281114   3.530   3.670  17.122 -1.1909  0.2369  0.0142
19875TIP3   OH281115   0.048   6.696   0.412 -0.1952  0.2268  0.0317
19875TIP3    H181116   0.039   6.616   0.463 -1.3816  1.0480  1.1673
19875TIP3    H281117   0.123   6.679   0.354 -0.3405 -1.6354  0.3206
19876TIP3   OH281118   0.136   0.704  14.620 -0.3648 -0.0960  0.2361
19876TIP3    H181119   0.218   0.657  14.634 -0.3685  0.2534  1.6733
19876TIP3    H281120   0.079   0.673  14.691 -1.9929 -1.3693 -1.5232
19877TIP3   OH281121   5.034   6.139  13.122 -0.3668 -0.0792 -0.5377
19877TIP3    H181122   4.952   6.152  13.074  0.4442  2.0932 -1.4769
19877TIP3    H281123   5.036   6.209  13.187  1.0944  0.4463 -1.0962
19878TIP3   OH281124   4.170   4.085   4.750 -0.2168 -0.5678  0.0189
19878TIP3    H181125   4.175   4.084   4.655  0.0807 -0.8234  0.0339
19878TIP3    H281126   4.196   4.173   4.775 -1.4216 -0.1380 -0.1859
19879TIP3   OH281127   1.444   5.536  14.161 -0.2177  0.3309 -0.7101
19879TIP3    H181128   1.526   5.579  14.187  0.4213 -0.4267 -1.4168
19879TIP3    H281129   1.472   5.467  14.101 -1.3123 -0.4741 -0.3085
19880TIP3   OH281130   4.867   1.956  12.856  0.1460  1.0049 -0.0401
19880TIP3    H181131   4.953   1.996  12.866  1.9238 -2.9677  3.4691
19880TIP3    H281132   4.832   1.950  12.945 -1.4762 -1.9178 -0.7361
19881TIP3   OH281133   1.256   2.160  11.700 -0.0072  0.0129  0.1606
19881TIP3    H181134   1.260   2.076  11.746 -0.7358 -0.5122 -0.6946
19881TIP3    H281135   1.170   2.160  11.658 -0.6148  1.8181  1.2863
19882TIP3   OH281136   4.588   0.359   5.974  0.1214 -0.1070  0.1164
19882TIP3    H181137   4.553   0.377   6.061 -0.1606  0.3307 -0.0810
19882TIP3    H281138   4.533   0.289   5.940  0.3172 -0.3716  0.3414
19883TIP3   OH281139   0.890   2.285   5.429  0.0584  0.0066  0.5055
19883TIP3    H181140   0.864   2.376   5.418  0.4133 -0.0054 -0.5833
19883TIP3    H281141   0.849   2.239   5.355 -1.3182 -0.9959  1.8437
19884TIP3   OH281142   4.567   4.874  12.681  0.0834  0.1321 -0.0336
19884TIP3    H181143   4.622   4.797  12.668  0.5587  0.5331 -0.4229
19884TIP3    H281144   4.589   4.932  12.608  1.6421  1.7572  1.6380
19885TIP3   OH281145   1.114   1.410   3.913  0.3992 -0.1488  0.3895
19885TIP3    H181146   1.184   1.416   3.979 -1.4394  0.6534  2.3862
19885TIP3    H281147   1.091   1.317   3.910  0.3294 -0.1577  1.0864
19886TIP3   OH281148   3.635   4.445  10.831  0.4783 -0.2501 -0.4722
19886TIP3    H181149   3.671   4.420  10.916  0.4883 -0.2860 -0.4872
19886TIP3    H281150   3.541   4.430  10.840  0.4131  0.2458 -0.2899
19887TIP3   OH281151   5.023   5.156  12.172 -0.4043 -0.0820 -0.3369
19887TIP3    H181152   5.056   5.123  12.256  0.5613 -0.8679 -0.9956
19887TIP3    H281153   5.046   5.249  12.173 -0.8961  0.0442  0.4891
19888TIP3   OH281154   2.548   4.564   2.335  0.7245 -0.3585 -0.0433
19888TIP3    H181155   2.538   4.652   2.374 -2.4062 -0.9775  0.8759
19888TIP3    H281156   2.568   4.507   2.409 -0.6994 -0.8637 -0.0048
19889TIP3   OH281157   1.172   6.464   1.514  0.7564  0.1428 -0.3345
19889TIP3    H181158   1.090   6.484   1.559  1.4371  0.5492  0.7663
19889TIP3    H281159   1.226   6.422   1.580  1.9491  1.1688 -0.6161
19890TIP3   OH281160   5.067   0.436   3.271  0.0475  0.0593  0.1727
19890TIP3    H181161   5.049   0.371   3.339 -0.7161  0.8950  0.7789
19890TIP3    H281162   4.992   0.495   3.273 -0.6613 -0.6194 -2.2911
19891TIP3   OH281163   3.007   2.684  10.915 -0.2198  0.2933 -0.3486
19891TIP3    H181164   3.047   2.718  10.994  1.2995 -1.4640 -0.3054
19891TIP3    H281165   3.079   2.679  10.851 -1.6090  2.8023 -2.3034
19892TIP3   OH281166   5.180   2.195  14.499  0.5434 -0.6638 -0.5906
19892TIP3    H181167   5.233   2.238  14.432  1.8032 -0.9550  0.1890
19892TIP3    H281168   5.162   2.263  14.564  1.9951 -1.1202  0.3235
19893TIP3   OH281169   0.055   3.554   5.570 -0.3072 -0.2994  0.1928
19893TIP3    H181170  -0.009   3.499   5.615  0.3921 -0.9205  0.4667
19893TIP3    H281171   0.108   3.492   5.520  0.0170  0.2075 -0.0975
19894TIP3   OH281172   5.135   2.912   0.162 -0.2239 -0.4055  0.1664
19894TIP3    H181173   5.230   2.920   0.176 -0.1697 -1.0595  0.2212
19894TIP3    H281174   5.100   2.885   0.247 -0.4338 -0.3424  0.0996
19895TIP3   OH281175   3.473   4.986  15.826  0.0847 -0.6106  0.3950
19895TIP3    H181176   3.496   4.901  15.789 -1.1094 -0.8116  0.0497
19895TIP3    H281177   3.399   5.016  15.773  0.7484  0.8460  0.2364
19896TIP3   OH281178   3.312   2.267  13.315 -0.2470 -0.4905  1.2832
19896TIP3    H181179   3.301   2.269  13.410 -2.9126 -1.0785  1.0581
19896TIP3    H281180   3.277   2.182  13.289  1.0053 -0.6015 -0.2099
19897TIP3   OH281181   6.694   0.051  14.667 -0.2423  0.0431 -0.4271
19897TIP3    H181182   6.655   0.088  14.587 -0.1774  0.2194 -0.3771
19897TIP3    H281183   6.660   0.105  14.738  0.5678  0.5932 -0.4354
19898TIP3   OH281184   1.452   1.293   3.347  0.9957 -0.0171 -0.1558
19898TIP3    H181185   1.516   1.339   3.401  0.2619  2.5377 -1.3286
19898TIP3    H281186   1.396   1.247   3.410  1.9256  0.4553  1.0560
19899TIP3   OH281187   2.329   1.515  16.393  0.0266 -0.0204 -0.0728
19899TIP3    H181188   2.297   1.425  16.391 -1.2296  0.3996  0.0723
19899TIP3    H281189   2.250   1.569  16.392  0.7584  1.0936 -0.4539
19900TIP3   OH281190   0.191   3.053   5.265 -0.3361  0.3105 -0.2869
19900TIP3    H181191   0.242   3.042   5.346 -0.1939  0.4768 -0.3512
19900TIP3    H281192   0.258   3.069   5.198 -0.4726  0.5386 -0.3705
19901TIP3   OH281193   1.019   1.052  14.271 -0.0170 -0.8131  0.1151
19901TIP3    H181194   0.952   1.067  14.204 -1.0499 -2.2773  0.7637
19901TIP3    H281195   1.025   0.956  14.278  2.4654 -0.7367 -0.2126
19902TIP3   OH281196   4.335   3.906  12.216 -0.1594  0.1487 -0.4686
19902TIP3    H181197   4.371   3.975  12.160  1.1107 -1.3692 -1.6267
19902TIP3    H281198   4.395   3.901  12.290 -2.4549  2.9313  1.8005
19903TIP3   OH281199   1.911   3.076   1.005  0.4091  0.0432 -0.0246
19903TIP3    H181200   1.949   3.040   0.925  0.6390 -0.0072  0.1032
19903TIP3    H281201   1.895   3.000   1.061 -0.1600  0.0400 -0.1936
19904TIP3   OH281202   3.139   0.397  14.665  0.2480 -0.7013 -0.5070
19904TIP3    H181203   3.178   0.340  14.732 -0.2924  1.1840  1.5160
19904TIP3    H281204   3.045   0.381  14.672  0.0968  0.3959  0.0636
19905TIP3   OH281205   3.022   2.166   5.948 -0.8084 -0.2356  1.0056
19905TIP3    H181206   2.965   2.131   6.016  0.0626 -2.4307  0.7157
19905TIP3    H281207   2.965   2.178   5.872 -1.8228  2.3988  2.0856
19906TIP3   OH281208   3.370   0.833   4.026 -0.0771 -0.5265 -0.3007
19906TIP3    H181209   3.365   0.928   4.038  0.2013 -0.4938 -0.4182
19906TIP3    H281210   3.442   0.805   4.083  0.7076 -0.4786 -1.2184
19907TIP3   OH281211   0.721   4.934  11.776 -0.2213  0.6482 -0.0018
19907TIP3    H181212   0.806   4.905  11.809  0.6762  3.0043 -0.1182
19907TIP3    H281213   0.739   4.963  11.686 -1.7840 -1.5671 -1.1401
19908TIP3   OH281214   1.600   2.219  14.792 -0.0103  0.1875 -0.0430
19908TIP3    H181215   1.663   2.147  14.795 -0.2251  0.0283  1.3630
19908TIP3    H281216   1.613   2.266  14.874 -1.4836  0.3425  0.1316
19909TIP3   OH281217   0.676   5.784   3.399  0.3030 -0.1539 -0.1746
19909TIP3    H181218   0.694   5.816   3.311  1.2596  1.1333  0.4481
19909TIP3    H281219   0.589   5.746   3.394 -0.5932  1.9123 -1.1670
19910TIP3   OH281220   2.940   0.472   6.019 -0.2272 -0.3597  0.6065
19910TIP3    H181221   2.877   0.537   5.987  0.1759 -0.7364 -1.0433
19910TIP3    H281222   2.887   0.413   6.073 -1.1168 -0.1270  0.0222
19911TIP3   OH281223   4.209   6.834  13.821  0.7795 -0.2457 -0.6548
19911TIP3    H181224   4.187   6.772  13.752  2.7629  0.1259 -1.6893
19911TIP3    H281225   4.292   6.802  13.856  0.0811 -0.1229  1.2492
19912TIP3   OH281226   0.803   0.475  15.399 -0.2595  0.0669 -0.2999
19912TIP3    H181227   0.785   0.477  15.305 -0.5009 -3.2826 -0.4556
19912TIP3    H281228   0.890   0.514  15.407  0.3700 -0.7922 -2.1461
19913TIP3   OH281229   3.764   1.105   0.659 -0.0153  0.0239  0.0675
19913TIP3    H181230   3.851   1.120   0.624 -0.0526 -0.8562 -0.4418
19913TIP3    H281231   3.761   1.157   0.739  1.2984 -0.5960  0.5606
19914TIP3   OH281232   0.135   3.938   6.552 -0.2094 -0.1791  0.0900
19914TIP3    H181233   0.208   3.976   6.503 -2.3412  1.2181 -2.3032
19914TIP3    H281234   0.123   3.995   6.628  0.5484  0.1846 -0.0602
19915TIP3   OH281235   6.716   1.330  15.820  0.6688  0.0634  0.5159
19915TIP3    H181236   6.712   1.235  15.829  0.0565 -0.0236 -0.5059
19915TIP3    H281237   6.656   1.349  15.747  2.8681  0.9332 -1.1688
19916TIP3   OH281238   0.749   4.261   3.446  0.0369  0.0761  0.3311
19916TIP3    H181239   0.723   4.233   3.534 -1.5998  0.8024  0.1272
19916TIP3    H281240   0.844   4.266   3.449  0.1361 -1.6212  1.5244
19917TIP3   OH281241   6.132   0.165   0.984  0.3436 -0.3314 -0.4476
19917TIP3    H181242   6.121   0.165   1.079 -0.9572  0.1771 -0.5725
19917TIP3    H281243   6.043   0.165   0.950  0.7903 -1.5283 -1.6865
19918TIP3   OH281244   3.888   3.093   3.086  0.1295  0.0234 -0.0064
19918TIP3    H181245   3.971   3.073   3.129  1.4239  3.8775 -0.3303
19918TIP3    H281246   3.827   3.108   3.158  0.0340 -1.4220  0.2478
19919TIP3   OH281247   6.364   2.508   5.697  0.0778  0.2939  0.9036
19919TIP3    H181248   6.382   2.457   5.776  0.5786  0.4408  0.8866
19919TIP3    H281249   6.451   2.531   5.663 -0.0766 -1.1269 -0.5856
19920TIP3   OH281250   3.412   0.275  17.052 -0.0633  0.1474  0.1291
19920TIP3    H181251   3.495   0.306  17.016 -0.9317  0.5884 -1.5925
19920TIP3    H281252   3.368   0.354  17.081 -0.6379  0.1330 -0.6673
19921TIP3   OH281253   2.764   5.068   5.098  0.3616  0.4257  0.2383
19921TIP3    H181254   2.809   5.095   5.178  0.8963  1.3249 -0.3494
19921TIP3    H281255   2.831   5.020   5.048  0.2668  0.5711 -0.0281
19922TIP3   OH281256   1.377   3.779  17.119 -0.4522  0.1919  0.2595
19922TIP3    H181257   1.392   3.793  17.025 -0.9125  1.7821  0.3837
19922TIP3    H281258   1.414   3.857  17.161 -1.3978  0.1259  1.2674
19923TIP3   OH281259   0.699   1.118   2.532  0.3428 -0.3062 -0.5542
19923TIP3    H181260   0.680   1.026   2.549 -0.6952 -0.1068 -0.5693
19923TIP3    H281261   0.687   1.127   2.437 -0.7089  0.0882 -0.3941
19924TIP3   OH281262   3.182   3.069   4.125  0.4277  0.2957 -0.6099
19924TIP3    H181263   3.237   3.143   4.149 -0.2527  0.6107  0.0455
19924TIP3    H281264   3.224   2.993   4.167  0.8535  0.3861 -0.8705
19925TIP3   OH281265   2.910   2.461   0.265  0.0747  0.2115 -0.1702
19925TIP3    H181266   2.937   2.432   0.353  0.5938 -0.0506 -0.4152
19925TIP3    H281267   2.976   2.424   0.206 -1.2291 -1.1159 -0.8767
19926TIP3   OH281268   3.728   6.174  14.863  0.6575  0.2317  0.0688
19926TIP3    H181269   3.809   6.131  14.837  0.7142  0.1371  0.3940
19926TIP3    H281270   3.755   6.262  14.890  0.5349  0.4877 -0.6429
19927TIP3   OH281271   4.037   3.204  16.699 -0.0871  0.2841  0.5273
19927TIP3    H181272   4.103   3.138  16.721  0.4611  0.4825 -0.4642
19927TIP3    H281273   3.977   3.159  16.639  0.8372  0.9172 -0.9413
19928TIP3   OH281274   4.164   4.261  14.459 -0.1661 -0.5822  0.3559
19928TIP3    H181275   4.071   4.237  14.469  0.0957 -2.6734 -1.3775
19928TIP3    H281276   4.209   4.209  14.525 -0.1614  0.1583  0.9519
19929TIP3   OH281277   5.103   3.402   6.062 -0.1114  0.1182  0.3969
19929TIP3    H181278   5.118   3.399   6.156 -0.5394  0.5890  0.4858
19929TIP3    H281279   5.067   3.316   6.040  1.4569 -0.5817  0.3837
19930TIP3   OH281280   6.406   5.028  14.135 -0.0756  0.1773 -0.0741
19930TIP3    H181281   6.344   4.960  14.110  1.1637 -0.6458 -1.0526
19930TIP3    H281282   6.388   5.100  14.075 -1.5139  0.8243  1.0835
19931TIP3   OH281283   4.852   2.763  14.350  0.1495  0.3989 -0.0165
19931TIP3    H181284   4.770   2.714  14.348 -0.6352  1.6677 -1.3441
19931TIP3    H281285   4.827   2.853  14.329  1.7367  1.0754  0.7871
19932TIP3   OH281286   4.713   3.540  14.700  0.0829  0.0738  0.0366
19932TIP3    H181287   4.805   3.511  14.698 -0.5700 -2.2441 -0.4047
19932TIP3    H281288   4.714   3.621  14.750  2.2919 -0.2029  0.5620
19933TIP3   OH281289   5.833   5.100   6.033  0.4287  0.1326 -0.6062
19933TIP3    H181290   5.786   5.180   6.011  1.0931  0.6763 -0.0679
19933TIP3    H281291   5.786   5.065   6.109 -1.5352 -1.4632 -2.4134
19934TIP3   OH281292   1.293   1.742   3.251  0.3474  0.3413 -0.5741
19934TIP3    H181293   1.228   1.809   3.229  1.2354  0.9387 -1.4716
19934TIP3    H281294   1.331   1.717   3.167  0.0722 -1.2680 -0.2449
19935TIP3   OH281295   6.312   0.857   3.626 -0.0703  0.0285  0.1145
19935TIP3    H181296   6.266   0.830   3.546 -1.3825  0.2400  0.7617
19935TIP3    H281297   6.342   0.946   3.608 -1.2467  0.4596  0.1966
19936TIP3   OH281298   1.866   5.301   5.601  0.3621 -0.0974 -0.2720
19936TIP3    H181299   1.944   5.251   5.579  0.3920 -0.2273  0.1152
19936TIP3    H281300   1.892   5.354   5.676  0.1000 -0.0893 -0.1859
19937TIP3   OH281301   2.840   5.139   2.154  0.2922 -0.3828 -0.0792
19937TIP3    H181302   2.794   5.199   2.096 -0.6200 -1.1789 -0.2220
19937TIP3    H281303   2.781   5.130   2.230  2.1850  1.9172  1.7967
19938TIP3   OH281304   5.551   6.087   5.378  0.4673  0.2893  0.0659
19938TIP3    H181305   5.641   6.055   5.391  1.4507  2.4914 -0.7111
19938TIP3    H281306   5.546   6.105   5.284  0.0202  2.2948  0.4192
19939TIP3   OH281307   0.590   0.598  13.174  0.2332 -0.4139  0.0710
19939TIP3    H181308   0.610   0.558  13.090  1.9680  1.8603 -0.7051
19939TIP3    H281309   0.524   0.541  13.213 -0.4964 -1.6387 -2.7241
19940TIP3   OH281310   3.274   4.957  16.395 -0.0731 -0.0133  0.6182
19940TIP3    H181311   3.324   4.887  16.353  0.9474 -0.0098  1.7947
19940TIP3    H281312   3.205   4.911  16.443 -0.4069 -0.0975  0.0692
19941TIP3   OH281313   5.953   2.012   0.325  0.0269 -0.6166  0.2539
19941TIP3    H181314   5.982   1.952   0.257 -1.4451 -0.8725 -0.1852
19941TIP3    H281315   5.859   2.022   0.310  0.3130  2.4525 -0.2151
19942TIP3   OH281316   5.919   0.833  11.952 -0.5602 -0.0691  0.0115
19942TIP3    H181317   5.902   0.742  11.929  1.8864 -1.0943  1.8384
19942TIP3    H281318   5.929   0.877  11.867  1.4683 -2.2315 -1.0010
19943TIP3   OH281319   0.877   3.258  14.113  0.2567 -0.1024 -0.1570
19943TIP3    H181320   0.808   3.324  14.104  0.2854 -0.2016 -1.1969
19943TIP3    H281321   0.856   3.212  14.194 -0.7987 -0.0118 -0.3654
19944TIP3   OH281322   4.652   4.178   3.149  0.6466 -0.4567  0.3857
19944TIP3    H181323   4.603   4.095   3.148  0.0550 -0.1058 -0.8978
19944TIP3    H281324   4.590   4.243   3.116  1.9602 -0.0065 -1.3197
19945TIP3   OH281325   5.223   4.259   3.029 -0.2155 -0.2493  0.2431
19945TIP3    H181326   5.245   4.302   2.947 -0.4139 -0.4735  0.0716
19945TIP3    H281327   5.284   4.185   3.034 -2.8153 -2.7381 -1.7398
19946TIP3   OH281328   3.956   4.236  16.167  0.2767 -0.0631 -0.3456
19946TIP3    H181329   3.935   4.271  16.253 -1.0690 -0.0974 -0.6322
19946TIP3    H281330   3.962   4.142  16.179  0.4500 -0.0367 -0.2245
19947TIP3   OH281331   4.189   5.303  16.143 -0.1040  0.7863  0.1107
19947TIP3    H181332   4.160   5.385  16.184 -0.1975  0.7786  0.0586
19947TIP3    H281333   4.283   5.315  16.132 -0.2204  1.1676 -0.5393
19948TIP3   OH281334   1.860   3.624  12.840  0.1622 -0.1887  0.4953
19948TIP3    H181335   1.894   3.539  12.871 -0.6167 -0.5619  0.3398
19948TIP3    H281336   1.887   3.628  12.749  2.5707  0.9682  1.1748
19949TIP3   OH281337   6.328   1.493  12.659 -0.1197 -0.2406 -0.4423
19949TIP3    H181338   6.323   1.495  12.564 -0.0858  1.9815 -0.4398
19949TIP3    H281339   6.405   1.545  12.681  0.4406 -1.5179  0.8076
19950TIP3   OH281340   2.003   5.914   1.573  0.2364  0.1457 -0.0081
19950TIP3    H181341   2.006   5.972   1.649 -1.3503  1.1282 -0.6378
19950TIP3    H281342   2.046   5.833   1.602  2.6231  1.6279  0.8723
19951TIP3   OH281343   6.311   3.056   2.380  0.4542 -0.0265  0.0381
19951TIP3    H181344   6.345   2.966   2.378 -0.1927 -0.2712 -0.1806
19951TIP3    H281345   6.232   3.053   2.326  1.0875  0.9641 -0.9687
19952TIP3   OH281346   0.199   6.245  11.710  0.7597 -0.3321  0.6964
19952TIP3    H181347   0.170   6.304  11.780  2.3286  0.0332  1.0828
19952TIP3    H281348   0.274   6.291  11.670  0.7916 -1.2008 -0.2647
19953TIP3   OH281349   2.880   6.150   4.498  0.2615  0.2993 -0.3441
19953TIP3    H181350   2.968   6.130   4.466  0.2356 -1.7269  0.6839
19953TIP3    H281351   2.829   6.168   4.419  1.0967 -0.6866 -1.1401
19954TIP3   OH281352   6.474   3.037   1.610 -0.0680 -0.6249  0.2627
19954TIP3    H181353   6.390   3.008   1.573 -1.4635  3.6150 -0.5134
19954TIP3    H281354   6.517   3.083   1.538  0.5545  1.4967  1.8820
19955TIP3   OH281355   6.656   2.363  10.847  0.1698 -0.3331 -0.5397
19955TIP3    H181356   6.713   2.307  10.795 -0.2756  1.2770 -2.9273
19955TIP3    H281357   6.568   2.344  10.814 -0.1110  0.8133 -0.4852
19956TIP3   OH281358   6.406   2.977  16.482  0.1419 -0.0448  0.6643
19956TIP3    H181359   6.449   2.956  16.400 -1.1206  0.3633 -0.1284
19956TIP3    H281360   6.409   3.072  16.487  2.3911 -0.1185  2.3390
19957TIP3   OH281361   2.448   0.727   0.957 -0.1579 -0.4262 -0.6839
19957TIP3    H181362   2.496   0.738   1.038 -0.3329  1.7312 -0.8194
19957TIP3    H281363   2.449   0.813   0.916 -1.6047 -1.0281 -2.1123
19958TIP3   OH281364   1.281   2.656   1.145  0.0922 -0.1876  1.2284
19958TIP3    H181365   1.359   2.685   1.193  0.4087 -0.5167  0.9124
19958TIP3    H281366   1.264   2.728   1.083  0.2544 -0.1998  1.1687
19959TIP3   OH281367   3.234   5.503  10.493  0.2189  0.6964  0.0974
19959TIP3    H181368   3.297   5.568  10.462  0.0796  1.1467  0.7462
19959TIP3    H281369   3.261   5.484  10.583 -0.3745  0.6521  0.2719
19960TIP3   OH281370   6.303   6.658  12.217 -0.1412 -0.3541  0.0236
19960TIP3    H181371   6.350   6.706  12.148  1.5635 -1.9416  0.0235
19960TIP3    H281372   6.263   6.727  12.270 -0.8462  0.9493 -2.0437
19961TIP3   OH281373   1.940   3.673  14.204 -0.1737 -0.1229  0.3773
19961TIP3    H181374   2.000   3.619  14.255  0.4302  0.8550  0.7193
19961TIP3    H281375   1.947   3.760  14.242 -1.6749  0.0599  0.2916
19962TIP3   OH281376   2.064   5.891   2.647 -0.3521  0.3712 -0.4519
19962TIP3    H181377   2.069   5.855   2.558  0.4759  1.6255 -0.9307
19962TIP3    H281378   2.073   5.985   2.635 -0.1940  0.5484  0.9706
19963TIP3   OH281379   2.719   4.294  16.616 -0.0877  0.0822  0.2747
19963TIP3    H181380   2.624   4.282  16.619 -0.1151  0.3620  2.6625
19963TIP3    H281381   2.745   4.265  16.529 -2.5634  1.6212 -1.0788
19964TIP3   OH281382   5.955   1.423  11.130 -0.0554 -0.2332  0.1595
19964TIP3    H181383   6.027   1.476  11.164  1.1742 -1.7565  0.0298
19964TIP3    H281384   5.922   1.375  11.206  0.3906 -1.0053 -0.1143
19965TIP3   OH281385   0.644   2.584  15.943  0.2899  0.3872 -0.0018
19965TIP3    H181386   0.597   2.576  15.859  0.2923  1.0158 -0.0727
19965TIP3    H281387   0.694   2.665  15.934  0.2433  0.4887  0.6360
19966TIP3   OH281388   6.772   6.203  16.096 -0.5106  0.1430  0.3433
19966TIP3    H181389   6.818   6.135  16.146 -1.5268 -0.6489  0.2176
19966TIP3    H281390   6.831   6.279  16.100  1.3159 -1.1598 -0.7318
19967TIP3   OH281391   4.895   0.776   4.716  0.2916 -0.5157 -0.1350
19967TIP3    H181392   4.892   0.745   4.625 -0.8302 -3.4070  0.7724
19967TIP3    H281393   4.832   0.847   4.720 -1.0025 -1.5534 -1.2663
19968TIP3   OH281394   5.347   4.815   5.174  0.0705 -0.0745 -0.4393
19968TIP3    H181395   5.302   4.745   5.220  0.2874  0.9411  1.4051
19968TIP3    H281396   5.401   4.771   5.108 -1.3297 -1.4762 -0.6870
19969TIP3   OH281397   3.523   6.131  12.582 -0.1388 -0.5895  0.3832
19969TIP3    H181398   3.457   6.200  12.574 -0.1942 -0.5726  1.0099
19969TIP3    H281399   3.560   6.124  12.494  1.4902  1.8148  0.7981
19970TIP3   OH281400   0.754   0.072  12.402  0.6128 -0.0597 -0.2005
19970TIP3    H181401   0.684   0.043  12.343 -0.0528  0.5505  0.2685
19970TIP3    H281402   0.799   0.141  12.354  2.4299 -1.9995 -1.4666
19971TIP3   OH281403   1.412   6.689  13.704  0.2970  0.8960  0.2206
19971TIP3    H181404   1.443   6.779  13.694  1.3408  0.5681  0.4241
19971TIP3    H281405   1.410   6.674  13.799  0.6050  0.5459  0.1750
19972TIP3   OH281406   3.497   2.652  15.885 -0.3718 -0.0516 -0.0160
19972TIP3    H181407   3.502   2.705  15.965 -0.5373 -0.6705  0.4149
19972TIP3    H281408   3.462   2.711  15.819 -2.4375 -0.1204  0.9259
19973TIP3   OH281409   0.584   0.884  12.495 -0.2583  0.0408  0.9290
19973TIP3    H181410   0.506   0.871  12.548  0.2206  0.5945  1.8005
19973TIP3    H281411   0.656   0.889  12.559  0.7118 -1.9010  0.1005
19974TIP3   OH281412   6.547   3.826  13.886 -0.0540  0.3946 -0.2774
19974TIP3    H181413   6.588   3.801  13.803 -1.1544  0.8007 -0.9594
19974TIP3    H281414   6.587   3.911  13.907  0.0486  0.4085 -0.5177
19975TIP3   OH281415   3.537   5.372   4.744  0.9416 -0.6776  0.1056
19975TIP3    H181416   3.557   5.327   4.662 -0.2738 -0.9872 -0.0312
19975TIP3    H281417   3.570   5.313   4.812  0.5865 -1.1341 -0.1140
19976TIP3   OH281418   3.857   2.130   1.901  0.1424  0.1430 -0.3539
19976TIP3    H181419   3.790   2.117   1.969 -0.4580  1.6668 -0.6137
19976TIP3    H281420   3.845   2.056   1.841 -3.4509  1.9080 -2.1049
19977TIP3   OH281421   3.181   6.106   2.613 -0.4895 -0.1829  0.7006
19977TIP3    H181422   3.229   6.145   2.686  1.0688  0.7091 -0.7235
19977TIP3    H281423   3.248   6.086   2.548 -1.7646 -1.4532 -0.3026
19978TIP3   OH281424   6.332   4.021  14.992 -0.4425 -0.6767 -0.5122
19978TIP3    H181425   6.280   3.946  14.964 -0.9989 -0.0084 -1.2864
19978TIP3    H281426   6.346   4.073  14.913 -0.5361  0.3310  0.1072
19979TIP3   OH281427   6.347   6.114   5.029 -0.2462 -0.2423  0.0859
19979TIP3    H181428   6.416   6.126   4.964 -1.3774  1.1856 -0.9131
19979TIP3    H281429   6.393   6.089   5.109  1.3377 -0.1432 -0.7684
19980TIP3   OH281430   1.823   6.519  13.114 -0.5253  0.3810  0.0132
19980TIP3    H181431   1.857   6.529  13.203 -0.3063  1.2563 -0.1615
19980TIP3    H281432   1.899   6.492  13.062 -0.8022 -0.8379  0.2096
19981TIP3   OH281433   0.950   3.035  16.071  0.7058 -0.1293 -0.1377
19981TIP3    H181434   0.953   3.131  16.068 -0.4117  0.0677  2.3379
19981TIP3    H281435   0.864   3.016  16.108  1.1709 -2.0972  0.0102
19982TIP3   OH281436   4.839   3.059   4.013  0.3858 -0.0309  0.1614
19982TIP3    H181437   4.786   2.990   3.975  0.6991 -0.2490  0.1155
19982TIP3    H281438   4.929   3.025   4.010  0.3033 -0.5576  2.1501
19983TIP3   OH281439   3.261   5.120  15.160 -0.3675 -0.1832 -0.0485
19983TIP3    H181440   3.215   5.176  15.097  0.9869  0.6447 -0.3454
19983TIP3    H281441   3.235   5.031  15.137  0.2234  0.0821 -1.9189
19984TIP3   OH281442   1.618   0.064  12.440  0.6991 -0.1169  0.6435
19984TIP3    H181443   1.621   0.158  12.420  1.6255 -0.4876 -1.2696
19984TIP3    H281444   1.535   0.035  12.403  0.8240 -0.1828  0.4057
19985TIP3   OH281445   2.290   0.018  14.221  0.0672  0.5384 -0.0294
19985TIP3    H181446   2.199  -0.010  14.214 -0.0093  0.8672 -0.3684
19985TIP3    H281447   2.330  -0.011  14.139  0.0558  1.1641 -0.2626
19986TIP3   OH281448   3.470   2.621  12.530  0.0757  0.2221 -0.1533
19986TIP3    H181449   3.445   2.533  12.502 -0.9572  0.2018  0.7596
19986TIP3    H281450   3.543   2.645  12.472  0.0919 -1.0530 -0.6974
19987TIP3   OH281451   4.675   2.832   3.519  0.4661 -0.1503 -0.1133
19987TIP3    H181452   4.599   2.878   3.554 -0.0145  0.1838 -1.5317
19987TIP3    H281453   4.739   2.902   3.503  0.6440 -0.2832  0.0267
19988TIP3   OH281454   2.858   1.085   1.779  0.2486  0.5169  0.0941
19988TIP3    H181455   2.865   0.997   1.741  0.1309  0.3915  0.3601
19988TIP3    H281456   2.948   1.117   1.783  0.2814  0.4501 -0.1032
19989TIP3   OH281457   0.349   6.455   3.523 -0.1975 -0.4407  0.1160
19989TIP3    H181458   0.442   6.439   3.508  0.2362 -0.1481  2.1744
19989TIP3    H281459   0.337   6.549   3.507  0.4909  0.0983  2.3194
19990TIP3   OH281460   4.852   5.463   2.544 -0.3390 -0.1764 -0.1098
19990TIP3    H181461   4.871   5.556   2.527  0.6185  0.0909  2.0560
19990TIP3    H281462   4.848   5.423   2.458  0.4465  1.6546 -1.0512
19991TIP3   OH281463   4.580   4.381   0.582 -0.0244 -0.3761  0.2737
19991TIP3    H181464   4.641   4.402   0.653 -0.1840 -2.2134  0.9896
19991TIP3    H281465   4.514   4.325   0.622  0.4937 -2.4100 -1.5173
19992TIP3   OH281466   5.931   6.746  11.461  0.1447  0.4856 -0.1355
19992TIP3    H181467   5.874   6.794  11.521 -0.8622 -0.5588 -0.2200
19992TIP3    H281468   6.010   6.800  11.454 -0.9682  2.1382 -0.3042
19993TIP3   OH281469   0.959   5.855   0.414 -0.5635 -0.0025  0.0995
19993TIP3    H181470   0.999   5.917   0.476 -1.5453  0.1878  0.5529
19993TIP3    H281471   1.019   5.780   0.414  0.5187  0.8275 -0.2748
19994TIP3   OH281472   2.043   2.714   2.953 -0.4487 -0.1959  0.0367
19994TIP3    H181473   2.018   2.728   3.044  0.9562 -1.6499  0.7052
19994TIP3    H281474   1.986   2.643   2.923  1.3855 -2.1834  0.9628
19995TIP3   OH281475   2.135   1.050   0.977 -1.2025  0.0165  0.1782
19995TIP3    H181476   2.135   0.982   0.909 -0.9086 -0.3431  0.5278
19995TIP3    H281477   2.228   1.074   0.987 -1.2476  0.0990  0.4144
19996TIP3   OH281478   4.338   4.688  12.356 -0.1018  0.1472 -0.0226
19996TIP3    H181479   4.299   4.710  12.271  0.1395 -0.9374 -0.4215
19996TIP3    H281480   4.422   4.734  12.356 -0.9890  1.8768  0.5269
19997TIP3   OH281481   2.681   5.391   1.629  0.3749  0.1979  0.3195
19997TIP3    H181482   2.604   5.443   1.655  0.4112 -0.2101  1.2802
19997TIP3    H281483   2.676   5.313   1.683  2.2507  0.8137  1.4623
19998TIP3   OH281484   1.274   0.922  15.913 -0.3600  0.0517  0.2788
19998TIP3    H181485   1.185   0.927  15.946 -0.6894 -0.0838 -0.5607
19998TIP3    H281486   1.274   0.847  15.853  0.0173  0.7326 -0.5973
19999TIP3   OH281487   6.648   3.053  14.845  0.6753 -0.3815  0.5344
19999TIP3    H181488   6.663   3.061  14.751  3.9069 -2.1152  0.7684
19999TIP3    H281489   6.597   2.973  14.855 -0.0446  0.0313  0.2860
20000TIP3   OH281490   6.231   5.837  12.113 -0.2633  0.2931  0.6136
20000TIP3    H181491   6.202   5.746  12.118  0.8093 -0.0389  0.9204
20000TIP3    H281492   6.313   5.834  12.065  0.2471  0.9863  1.4058
20001TIP3   OH281493   3.695   3.120   4.683  0.0378 -0.0723 -0.4613
20001TIP3    H181494   3.734   3.168   4.755  1.9101 -0.4667 -1.1519
20001TIP3    H281495   3.768   3.101   4.624 -1.0014 -1.8572 -1.2704
20002TIP3   OH281496   1.827   0.801  14.220  0.0219 -0.7701  0.2746
20002TIP3    H181497   1.866   0.826  14.304  0.4494  1.6378 -0.5503
20002TIP3    H281498   1.747   0.853  14.215 -0.0540 -0.9624 -0.7348
20003TIP3   OH281499   5.253   5.680  13.119 -0.8943 -0.1916 -0.0984
20003TIP3    H181500   5.175   5.735  13.125 -1.0845 -0.5959  1.7068
20003TIP3    H281501   5.314   5.718  13.182 -0.3836 -1.0376 -0.0637
20004TIP3   OH281502   4.856   4.538  16.316 -0.0280  0.0087  0.2055
20004TIP3    H181503   4.895   4.585  16.243  0.7961 -1.2549 -0.1869
20004TIP3    H281504   4.844   4.605  16.383  2.6248  0.5168  0.2762
20005TIP3   OH281505   4.378   5.083   5.075  0.4270  0.1686  0.4928
20005TIP3    H181506   4.456   5.137   5.088  1.0003 -0.5401  0.0880
20005TIP3    H281507   4.354   5.054   5.163  0.1669  0.9939  0.7042
20006TIP3   OH281508   2.798   2.460  16.640  0.5116 -0.3518  0.1465
20006TIP3    H181509   2.809   2.393  16.708 -0.7010 -0.0730  0.6360
20006TIP3    H281510   2.718   2.506  16.664 -0.4348 -0.7853 -1.9340
20007TIP3   OH281511   6.197   2.905  11.025  0.5037  0.2933  0.3002
20007TIP3    H181512   6.200   2.814  10.995  2.5655  1.0503 -2.1358
20007TIP3    H281513   6.115   2.911  11.074  0.8448 -3.1224  1.5677
20008TIP3   OH281514   4.624   3.480  16.303 -0.5299  0.1432 -0.3524
20008TIP3    H181515   4.573   3.404  16.274 -1.7025  1.3894 -1.7117
20008TIP3    H281516   4.702   3.442  16.344 -0.3664 -1.8036 -2.2788
20009TIP3   OH281517   0.541   4.643  11.280  0.0339 -0.1531 -0.7270
20009TIP3    H181518   0.532   4.562  11.330  0.0058 -0.4213 -1.1667
20009TIP3    H281519   0.621   4.631  11.229  0.5782  0.4942 -0.0580
20010TIP3   OH281520   1.078   6.420  15.988  0.1352  0.1805  0.0114
20010TIP3    H181521   1.023   6.345  16.011 -1.9144  1.1868 -1.3547
20010TIP3    H281522   1.112   6.452  16.072 -0.5665 -1.0630  0.7923
20011TIP3   OH281523   3.255   2.399  12.981 -0.0910  0.3055  0.2072
20011TIP3    H181524   3.323   2.439  12.927  0.7297 -1.1191  0.1465
20011TIP3    H281525   3.250   2.455  13.059  0.8797  0.6384  0.0390
20012TIP3   OH281526   5.545   0.506   0.746 -0.6303  0.8537 -0.1741
20012TIP3    H181527   5.471   0.558   0.777 -2.2488  0.7715 -3.4859
20012TIP3    H281528   5.529   0.419   0.781 -1.3514  1.1278  0.2076
20013TIP3   OH281529   5.969   2.690   1.485  0.3224 -0.4970  0.0456
20013TIP3    H181530   5.953   2.603   1.521 -1.4598 -0.0278  0.4809
20013TIP3    H281531   5.883   2.722   1.459  1.3077 -0.2481 -3.5075
20014TIP3   OH281532   0.971   1.166   4.455  0.1295 -0.4227 -0.0532
20014TIP3    H181533   0.980   1.193   4.363 -0.2537  1.7387  0.4867
20014TIP3    H281534   1.046   1.110   4.471  1.3610  0.8391 -1.1510
20015TIP3   OH281535   3.380   6.328   5.595  0.1073 -0.6056  0.3264
20015TIP3    H181536   3.442   6.359   5.529 -1.2101 -1.4830 -1.3993
20015TIP3    H281537   3.332   6.407   5.621  2.3844  0.2461  2.3030
20016TIP3   OH281538   3.564   1.312  12.850  0.0554 -0.2423  0.0815
20016TIP3    H181539   3.652   1.316  12.811 -0.3129  0.8731 -0.6566
20016TIP3    H281540   3.529   1.228  12.820  1.2735 -1.2399  1.3150
20017TIP3   OH281541   3.054   1.913  12.869  0.1485 -0.7765 -0.1553
20017TIP3    H181542   3.122   1.980  12.879  0.6648 -1.3538  0.3025
20017TIP3    H281543   3.023   1.924  12.779 -2.2726  2.3865  0.9004
20018TIP3   OH281544   1.663   1.799  13.300 -0.0726 -0.2235  0.6911
20018TIP3    H181545   1.588   1.813  13.243 -0.7068  0.3352  1.6202
20018TIP3    H281546   1.728   1.862  13.271  0.2894 -1.1382 -0.5259
20019TIP3   OH281547   0.927   2.368   2.258 -0.0318  0.5117 -0.7971
20019TIP3    H181548   0.853   2.346   2.314  0.3418  1.5506  0.1442
20019TIP3    H281549   1.002   2.328   2.301  0.2351  1.1850 -0.6239
20020TIP3   OH281550   0.995   3.107   1.783  0.1928 -0.1157 -0.1850
20020TIP3    H181551   1.001   3.035   1.721 -1.6103  0.0480 -0.5919
20020TIP3    H281552   0.986   3.185   1.728  1.6430  0.3974  0.2601
20021TIP3   OH281553   2.662   2.229   4.672 -0.3161 -0.7912 -0.1413
20021TIP3    H181554   2.581   2.247   4.718  0.2533 -0.1285  0.6322
20021TIP3    H281555   2.726   2.212   4.741  0.4064 -0.4106 -0.7059
20022TIP3   OH281556   2.532   5.517  13.544 -0.0799 -0.4918  0.0713
20022TIP3    H181557   2.443   5.552  13.554 -0.6090 -1.3856 -1.2413
20022TIP3    H281558   2.577   5.544  13.624 -1.1420  1.1025  0.1820
20023TIP3   OH281559   0.568   5.850  15.977 -0.0469 -0.2196  0.5017
20023TIP3    H181560   0.578   5.780  15.913  0.2902  0.4805 -0.2159
20023TIP3    H281561   0.629   5.828  16.047  0.6198 -0.2431 -0.0786
20024TIP3   OH281562   0.685   4.344  10.983  0.3649 -0.0269  0.2196
20024TIP3    H181563   0.697   4.263  10.934 -1.8677  0.0105 -0.4614
20024TIP3    H281564   0.669   4.315  11.073  0.6834 -0.2673  0.2037
20025TIP3   OH281565   5.599   2.097   2.543 -0.4093 -0.0463 -0.3550
20025TIP3    H181566   5.587   2.185   2.506  2.2258  0.1058 -1.0844
20025TIP3    H281567   5.578   2.037   2.472 -0.4136  0.0704 -0.4514
20026TIP3   OH281568   0.514   3.940   1.254 -0.3286  0.0890  0.1120
20026TIP3    H181569   0.504   3.847   1.275  0.8422  0.0974  0.7700
20026TIP3    H281570   0.514   3.984   1.339 -1.5339  0.7784 -0.2216
20027TIP3   OH281571   4.273   0.644  11.074  0.1049 -0.5194  0.1034
20027TIP3    H181572   4.315   0.586  11.010  0.5395  1.1404 -1.1853
20027TIP3    H281573   4.193   0.674  11.030 -0.6883 -0.9670  1.1884
20028TIP3   OH281574   1.072   4.375   2.218  0.7263 -0.8241 -0.1434
20028TIP3    H181575   1.105   4.303   2.271  1.3308 -1.1740 -0.9659
20028TIP3    H281576   1.073   4.341   2.128  1.7356  0.4421 -0.6446
20029TIP3   OH281577   3.115   5.944  14.106 -0.1271 -0.6480 -0.2253
20029TIP3    H181578   3.165   5.927  14.026  0.0166 -1.1626 -0.0311
20029TIP3    H281579   3.051   6.011  14.080  1.2361  0.7033 -0.2454
20030TIP3   OH281580   4.422   2.244  12.930  0.8773  0.1960  0.0025
20030TIP3    H181581   4.345   2.295  12.905 -0.9136 -1.6947  1.3281
20030TIP3    H281582   4.475   2.241  12.851 -1.1252  0.3478 -1.4256
20031TIP3   OH281583   1.668   3.782   2.899  0.3553  0.2851 -0.4614
20031TIP3    H181584   1.673   3.870   2.860  0.6844  0.2862 -0.4245
20031TIP3    H281585   1.585   3.747   2.869  0.0150  0.7825 -0.1155
20032TIP3   OH281586   2.454   0.175  13.142  0.2113 -0.1419  0.1410
20032TIP3    H181587   2.454   0.190  13.237 -1.0678 -1.5628  0.4031
20032TIP3    H281588   2.362   0.185  13.116  0.3351 -1.0836 -0.7133
20033TIP3   OH281589   3.557   5.472  13.118  0.5366  0.3276  0.1496
20033TIP3    H181590   3.586   5.467  13.027  0.5395 -2.1399  0.2226
20033TIP3    H281591   3.475   5.423  13.119 -0.7812  2.4003  1.0602
20034TIP3   OH281592   4.921   2.761  15.127 -0.5447 -0.4089  0.1180
20034TIP3    H181593   4.969   2.780  15.046 -1.1359  1.9313  0.2569
20034TIP3    H281594   4.990   2.751  15.193 -0.1389  1.0358 -0.0521
20035TIP3   OH281595   1.124   4.773  16.423 -0.3513  0.3164 -0.3266
20035TIP3    H181596   1.170   4.788  16.340 -1.0751 -1.2986 -1.0839
20035TIP3    H281597   1.035   4.803  16.406 -0.0486  1.7843  0.5444
20036TIP3   OH281598   0.767   6.292  14.584 -0.0239 -0.2584  0.2201
20036TIP3    H181599   0.851   6.276  14.540 -0.7521 -1.2603 -0.8853
20036TIP3    H281600   0.737   6.375  14.547  0.2625 -0.1377  0.2565
20037TIP3   OH281601   0.725   2.593   3.898  0.3986  0.3221 -0.3255
20037TIP3    H181602   0.688   2.576   3.811  0.1776  0.9282 -0.3508
20037TIP3    H281603   0.734   2.688   3.902 -0.7196  0.4049  0.7754
20038TIP3   OH281604   0.453   3.592  16.225  0.4594  0.4629  0.1768
20038TIP3    H181605   0.525   3.558  16.172  0.7007  1.3899 -0.1056
20038TIP3    H281606   0.443   3.528  16.296 -0.0615 -0.9537 -1.1122
20039TIP3   OH281607   4.303   5.841   4.720  0.2096 -0.2821 -0.7233
20039TIP3    H181608   4.346   5.771   4.767  0.4190 -0.6548 -1.4571
20039TIP3    H281609   4.288   5.909   4.786  1.4577 -0.3494 -0.3574
20040TIP3   OH281610   0.342   2.834   5.209  0.4612  0.3860 -0.2778
20040TIP3    H181611   0.255   2.859   5.180  0.2628 -0.4703 -0.4366
20040TIP3    H281612   0.400   2.866   5.140  0.1606 -0.0749 -0.7473
20041TIP3   OH281613   5.687   5.141   1.123 -0.0228 -0.4270 -0.1789
20041TIP3    H181614   5.776   5.152   1.154 -0.3101 -0.9254  0.8580
20041TIP3    H281615   5.697   5.107   1.034  0.8097  0.1265 -0.3055
20042TIP3   OH281616   6.850   1.837   4.240  1.1078  0.5813  0.0210
20042TIP3    H181617   6.883   1.922   4.268  1.2612  0.5441 -0.0448
20042TIP3    H281618   6.916   1.774   4.271 -0.4155  0.1731  2.6558
20043TIP3   OH281619   0.824   3.460   3.802  0.1832  0.3482 -0.1471
20043TIP3    H181620   0.786   3.398   3.739 -0.0200 -0.0324  0.3428
20043TIP3    H281621   0.825   3.412   3.885  2.1916  0.1535 -0.2323
20044TIP3   OH281622   0.275   1.017   6.439 -0.2106  0.2443  0.4195
20044TIP3    H181623   0.230   1.100   6.453 -0.0322  0.6702 -1.2458
20044TIP3    H281624   0.364   1.042   6.415 -0.5679 -0.2907 -1.7084
20045TIP3   OH281625   3.397   3.841  15.230  0.4011  0.2096 -0.2394
20045TIP3    H181626   3.339   3.767  15.212  0.3789  0.2777 -0.4443
20045TIP3    H281627   3.480   3.817  15.189  0.2699  0.4850 -0.6736
20046TIP3   OH281628   0.994   3.753   1.128 -0.1012 -0.2342 -0.5634
20046TIP3    H181629   0.961   3.833   1.087  1.4730  0.0060 -1.4496
20046TIP3    H281630   0.955   3.682   1.076 -0.6218 -0.0254 -0.4677
20047TIP3   OH281631   2.439   3.672  14.480 -0.1013 -0.2923 -0.6941
20047TIP3    H181632   2.530   3.700  14.483  0.1151 -0.9313 -1.1251
20047TIP3    H281633   2.412   3.670  14.571 -0.2555  1.6910 -0.6540
20048TIP3   OH281634   0.134   3.060  16.127 -0.2925  0.4501  0.2813
20048TIP3    H181635   0.184   3.069  16.046 -0.3655 -0.5589  0.1087
20048TIP3    H281636   0.094   2.973  16.121 -0.4588  0.4388  1.3062
20049TIP3   OH281637   2.497   1.308  12.996  0.2933 -0.1808  0.2413
20049TIP3    H181638   2.505   1.322  12.901 -0.3343 -1.0529  0.0457
20049TIP3    H281639   2.406   1.283  13.008 -0.1715  1.8612  1.3532
20050TIP3   OH281640   4.969   1.023  13.012  0.4505 -0.0820 -0.2964
20050TIP3    H181641   4.908   1.057  13.076  2.1611  0.3305  1.1766
20050TIP3    H281642   4.987   0.934  13.041  0.7539 -0.1166 -0.5850
20051TIP3   OH281643   5.429   1.205   3.697  0.0032  0.2050  0.4711
20051TIP3    H181644   5.366   1.228   3.628  0.2753  0.8487  0.4348
20051TIP3    H281645   5.419   1.274   3.763  1.2485  0.7740  0.0910
20052TIP3   OH281646   3.086   4.240  14.490  0.1675  0.7328 -0.3421
20052TIP3    H181647   3.166   4.203  14.454 -0.1078 -0.0402 -0.1839
20052TIP3    H281648   3.114   4.294  14.564  0.4444 -0.5365  0.4942
20053TIP3   OH281649   3.207   4.769  12.863  0.3947 -0.7277 -0.1805
20053TIP3    H181650   3.122   4.799  12.893  0.6906  0.0156 -0.0460
20053TIP3    H281651   3.210   4.793  12.770  0.4942 -0.6627 -0.1610
20054TIP3   OH281652   1.495   5.644  17.044 -0.0704 -0.5536 -0.1555
20054TIP3    H181653   1.538   5.728  17.056 -0.3748 -0.3092 -0.7476
20054TIP3    H281654   1.442   5.655  16.966 -2.0071 -0.5232  1.0902
20055TIP3   OH281655   3.658   3.226   2.069  0.0663  0.1333 -0.4516
20055TIP3    H181656   3.706   3.258   1.993 -0.6491  0.4631 -0.7722
20055TIP3    H281657   3.568   3.216   2.038 -0.1757  0.0171  0.2795
20056TIP3   OH281658   2.477   3.064   1.410 -0.7207  0.4202  0.7076
20056TIP3    H181659   2.485   2.993   1.347  1.5974  0.1480  1.2266
20056TIP3    H281660   2.510   3.028   1.492  2.9828  2.6498  0.4425
20057TIP3   OH281661   3.718   5.248   2.775 -0.0081  0.1249  0.3323
20057TIP3    H181662   3.683   5.327   2.733  0.4350  0.2073  0.1045
20057TIP3    H281663   3.746   5.276   2.862 -1.4721 -0.1753  0.9167
20058TIP3   OH281664   6.627   3.024  11.677 -0.6427 -0.3463 -0.7347
20058TIP3    H181665   6.639   3.080  11.754  1.7715 -1.5415 -0.1231
20058TIP3    H281666   6.534   3.032  11.655 -1.1171  1.0892  1.4832
20059TIP3   OH281667   3.897   0.762   4.754 -0.2988  0.3280  0.4497
20059TIP3    H181668   3.933   0.851   4.754 -1.1902  0.7053 -0.0243
20059TIP3    H281669   3.974   0.705   4.756  0.2785  1.1041  1.3705
20060TIP3   OH281670   3.142   2.806   0.568 -0.4262 -0.1147  0.0184
20060TIP3    H181671   3.207   2.741   0.541 -0.4965  0.5513 -1.8755
20060TIP3    H281672   3.141   2.800   0.664 -0.0070 -2.4619 -0.0671
20061TIP3   OH281673   0.681   3.147   5.211 -0.0334  0.4123 -0.0309
20061TIP3    H181674   0.770   3.127   5.241 -0.9249 -2.6358  0.8789
20061TIP3    H281675   0.686   3.142   5.116  1.0434  1.8042 -0.0848
20062TIP3   OH281676   1.079   6.333   1.177 -0.0028  0.2990  0.4867
20062TIP3    H181677   1.001   6.291   1.214  1.3190 -2.8357 -0.0291
20062TIP3    H281678   1.099   6.282   1.099  1.5997  2.1447 -0.3924
20063TIP3   OH281679   6.372   6.203  15.291 -0.1539  0.2020 -0.1489
20063TIP3    H181680   6.453   6.193  15.340  0.5361  1.0285 -1.0847
20063TIP3    H281681   6.399   6.207  15.200 -1.1904  0.9873 -0.4401
20064TIP3   OH281682   4.092   4.501   1.854  0.2026  0.1568 -0.0493
20064TIP3    H181683   4.093   4.503   1.758 -0.1511  0.4635 -0.0492
20064TIP3    H281684   4.033   4.429   1.875 -1.1327  1.1961 -0.0739
20065TIP3   OH281685   5.712   1.843  13.523  0.4601  0.2025  0.0404
20065TIP3    H181686   5.654   1.846  13.599  1.3429 -2.8333  1.0033
20065TIP3    H281687   5.655   1.828  13.448 -0.1882 -0.5306  0.6680
20066TIP3   OH281688   0.258   0.640   1.031 -0.0711  0.0975  0.2034
20066TIP3    H181689   0.217   0.666   0.948  0.2635  1.5182  0.4570
20066TIP3    H281690   0.302   0.719   1.062 -0.0063 -0.4714  1.6402
20067TIP3   OH281691   2.127   1.632   4.048 -0.8569  0.7056  0.6421
20067TIP3    H181692   2.158   1.675   3.968 -0.7176 -0.9381 -0.2288
20067TIP3    H281693   2.179   1.672   4.118  0.1572  1.0815 -0.2861
20068TIP3   OH281694   1.186   6.637   2.691 -0.1800  0.3429  0.9305
20068TIP3    H181695   1.142   6.656   2.608  0.1230  2.4301  1.1963
20068TIP3    H281696   1.126   6.670   2.758 -0.6021 -1.6658  1.6322
20069TIP3   OH281697   1.075   2.616  15.487 -0.0754  0.1533  0.0100
20069TIP3    H181698   1.082   2.613  15.582 -0.2962  2.3738  0.1641
20069TIP3    H281699   0.984   2.639  15.470  0.2508  1.0094 -0.6640
20070TIP3   OH281700   1.311   2.189   1.723 -0.2233  0.0846  0.1075
20070TIP3    H181701   1.284   2.105   1.761 -1.2092 -0.0030 -0.7334
20070TIP3    H281702   1.229   2.239   1.715  0.4099  1.3147  1.0145
20071TIP3   OH281703   2.156   6.813  16.642 -0.9730 -0.4489  0.5293
20071TIP3    H181704   2.091   6.762  16.692 -2.0850  0.7026  0.3010
20071TIP3    H281705   2.239   6.795  16.686 -1.3429 -2.3214  0.5587
20072TIP3   OH281706   5.548   0.296  17.047  0.4823 -0.1754  0.0590
20072TIP3    H181707   5.625   0.268  17.098  0.1938  1.9387  1.7668
20072TIP3    H281708   5.579   0.370  16.995 -0.4991  1.1244  1.2548
20073TIP3   OH281709   5.152   2.240  13.363 -0.1381 -0.2109 -0.1787
20073TIP3    H181710   5.102   2.249  13.282  1.5589  1.9602 -1.1013
20073TIP3    H281711   5.090   2.262  13.433 -1.0513  0.1721 -1.0907
20074TIP3   OH281712   5.978   6.442   6.380  0.3287 -0.1135  0.0720
20074TIP3    H181713   5.933   6.500   6.319  1.2291 -1.7092 -2.2523
20074TIP3    H281714   5.987   6.494   6.460 -0.4750  2.2693 -1.2758
20075TIP3   OH281715   3.140   1.976   1.055 -0.1725  0.3649  0.1086
20075TIP3    H181716   3.136   1.880   1.055 -1.8291  0.3175 -2.4302
20075TIP3    H281717   3.223   1.996   1.011  0.0116  0.0943  0.3284
20076TIP3   OH281718   4.116   2.263  10.218 -0.4492  0.6339 -0.2862
20076TIP3    H181719   4.034   2.301  10.185 -1.7691 -0.0765  1.9524
20076TIP3    H281720   4.184   2.303  10.163 -2.1834  2.0119 -1.5899
20077TIP3   OH281721   0.209   5.924   5.314 -0.1535 -0.1959  0.5070
20077TIP3    H181722   0.212   5.988   5.243 -0.4856 -1.0557 -0.3042
20077TIP3    H281723   0.123   5.935   5.353 -0.2070 -0.1521  0.3752
20078TIP3   OH281724   4.913   1.638   1.123 -0.0120 -0.1003 -0.3369
20078TIP3    H181725   4.979   1.707   1.125 -0.0851  0.1599 -3.0533
20078TIP3    H281726   4.834   1.681   1.090 -1.2060 -0.6895  1.6329
20079TIP3   OH281727   2.927   3.034   4.041 -0.4719 -0.3965 -0.3082
20079TIP3    H181728   3.021   3.033   4.058 -0.4097  2.7921  0.0936
20079TIP3    H281729   2.889   2.989   4.117  0.5914  1.6278  1.5418
20080TIP3   OH281730   1.309   6.651  14.110  0.2314 -0.2765 -0.3415
20080TIP3    H181731   1.302   6.578  14.048  0.4209 -1.0360  0.5094
20080TIP3    H281732   1.273   6.617  14.191  0.3042  0.5970  0.0673
20081TIP3   OH281733   2.408   5.146   2.580  0.0715  0.1778  0.4881
20081TIP3    H181734   2.479   5.134   2.517 -0.0298 -0.1932  0.4387
20081TIP3    H281735   2.382   5.057   2.604 -0.5825  0.3003  0.2762
20082TIP3   OH281736   1.082   4.025   6.515  0.1054  0.3479 -0.1427
20082TIP3    H181737   1.020   4.000   6.583  1.6691 -1.1237  0.8350
20082TIP3    H281738   1.069   4.119   6.504 -0.9435  0.4151  1.4112
20083TIP3   OH281739   1.821   3.986  12.421 -0.0551  0.5955  0.2889
20083TIP3    H181740   1.740   3.944  12.392  0.0557 -0.0217  0.8603
20083TIP3    H281741   1.814   3.989  12.516  0.2915  1.1622  0.2983
20084TIP3   OH281742   0.160   6.425  11.359  0.3482  0.3226 -0.1304
20084TIP3    H181743   0.142   6.429  11.453  1.5423  1.2302  0.0726
20084TIP3    H281744   0.199   6.338  11.346  0.3004  0.2449  0.2237
20085TIP3   OH281745   2.210   5.476  13.011  0.4363 -0.2418  0.6350
20085TIP3    H181746   2.138   5.443  13.065 -0.0045 -0.2022  0.0915
20085TIP3    H281747   2.219   5.568  13.035  0.5441 -0.3388  0.9628
20086TIP3   OH281748   0.607   3.839  11.802  0.1687 -0.3767 -0.8140
20086TIP3    H181749   0.541   3.884  11.749 -0.1034  0.0710 -0.1056
20086TIP3    H281750   0.679   3.902  11.809  0.3497 -0.5667 -0.9236
20087TIP3   OH281751   5.985   4.871   1.193 -0.4035 -0.1132  0.0599
20087TIP3    H181752   5.908   4.832   1.150 -1.1345  0.1324  1.1274
20087TIP3    H281753   5.955   4.895   1.280  0.3715  1.7356 -0.1351
20088TIP3   OH281754   3.813   3.987  16.417  0.0097  0.2411 -1.0599
20088TIP3    H181755   3.718   4.000  16.416 -0.2772 -1.6019 -0.5996
20088TIP3    H281756   3.831   3.951  16.504  1.4842  2.7243 -0.2369
20089TIP3   OH281757   4.723   6.635   5.538  0.2246  0.2105 -0.0895
20089TIP3    H181758   4.755   6.592   5.458 -0.5607  0.6273 -0.6303
20089TIP3    H281759   4.796   6.626   5.600  1.4337  1.1805 -1.3083
20090TIP3   OH281760   2.119   1.808   2.165 -0.1812  0.4151  0.0963
20090TIP3    H181761   2.122   1.773   2.254 -0.2044 -0.7815 -0.3450
20090TIP3    H281762   2.119   1.730   2.109 -1.5176  1.1015 -0.9288
20091TIP3   OH281763   2.389   2.819  17.054  0.2922 -0.0380 -0.2608
20091TIP3    H181764   2.316   2.823  16.992  0.9007  1.3653 -0.9169
20091TIP3    H281765   2.359   2.869  17.130  0.0571 -0.6370  0.0500
20092TIP3   OH281766   0.987   0.386   1.258 -0.0966 -0.4821 -0.2228
20092TIP3    H181767   1.040   0.404   1.180  2.1760  0.2169  1.4054
20092TIP3    H281768   0.897   0.404   1.230  0.8575  1.9054 -2.0748
20093TIP3   OH281769   4.969   4.502   2.747 -0.1599  0.0004  0.1503
20093TIP3    H181770   4.950   4.579   2.693  1.3864  0.3400  0.0581
20093TIP3    H281771   4.906   4.436   2.717  0.2196  0.3910 -1.6247
20094TIP3   OH281772   2.255   3.808   3.349  0.1462  0.0294  0.0972
20094TIP3    H181773   2.308   3.736   3.385 -1.3482 -1.9266 -1.4122
20094TIP3    H281774   2.296   3.828   3.265 -0.7359 -0.6200 -0.4992
20095TIP3   OH281775   3.159   4.935  10.837  0.2427  0.4262 -0.0435
20095TIP3    H181776   3.143   4.940  10.743 -1.9679 -1.0038  0.1698
20095TIP3    H281777   3.139   5.022  10.869  1.6779  1.1192 -0.9442
20096TIP3   OH281778   3.343   5.108  17.052 -0.1249 -0.1072  0.3576
20096TIP3    H181779   3.421   5.069  17.092 -1.0009 -1.2312  1.0318
20096TIP3    H281780   3.352   5.202  17.068  1.2511 -0.1781  0.1211
20097TIP3   OH281781   4.426   3.094  11.546  1.1660 -0.4159 -0.3231
20097TIP3    H181782   4.461   3.013  11.509  1.4179 -0.4213 -0.0713
20097TIP3    H281783   4.355   3.065  11.603  0.6044 -0.3909 -0.9984
20098TIP3   OH281784   3.593   1.183  16.532  0.2001 -0.3076  0.5908
20098TIP3    H181785   3.589   1.275  16.505 -0.4246 -0.1766  1.0902
20098TIP3    H281786   3.652   1.183  16.607 -1.4287  0.0671  1.9495
20099TIP3   OH281787   5.495   3.201  12.473 -0.2965 -0.1588 -0.3202
20099TIP3    H181788   5.435   3.187  12.546 -0.1631 -0.9547 -0.3521
20099TIP3    H281789   5.569   3.142  12.491  0.4185  0.7055 -0.3489
20100TIP3   OH281790   5.820   5.318   1.563  0.4492  0.3652 -0.0160
20100TIP3    H181791   5.892   5.376   1.587 -0.8871  1.8682  0.5947
20100TIP3    H281792   5.767   5.311   1.643  0.6872 -1.9705  0.0207
20101TIP3   OH281793   4.255   2.164   1.694  0.4539 -0.4542  0.2457
20101TIP3    H181794   4.339   2.159   1.648 -0.5277 -0.6039 -1.6697
20101TIP3    H281795   4.241   2.076   1.728  0.9844 -0.4806  0.3980
20102TIP3   OH281796   3.510   1.240   3.749 -0.2194  0.5487 -0.3626
20102TIP3    H181797   3.573   1.192   3.803 -1.1284 -0.6775 -0.3376
20102TIP3    H281798   3.425   1.220   3.788 -1.0989 -1.7362 -3.0871
20103TIP3   OH281799   2.565   1.741  11.134  0.5045  0.3528 -0.6442
20103TIP3    H181800   2.575   1.737  11.039  1.1186  1.3150 -0.6390
20103TIP3    H281801   2.648   1.710  11.169 -0.3873 -1.8765 -0.3541
20104TIP3   OH281802   1.875   4.738  13.823  0.0012 -0.5729  0.5951
20104TIP3    H181803   1.863   4.825  13.786  0.9800 -0.6423  0.0690
20104TIP3    H281804   1.953   4.746  13.879 -0.3579 -0.9283  1.1615
20105TIP3   OH281805   6.510   0.684  12.821  0.3803 -0.8403  0.3294
20105TIP3    H181806   6.459   0.744  12.876 -0.3241 -2.1365  1.1562
20105TIP3    H281807   6.444   0.630  12.779  1.0308 -2.0187  0.7840
20106TIP3   OH281808   2.347   3.492  11.186 -0.3058 -0.0092  0.1741
20106TIP3    H181809   2.330   3.502  11.280 -2.1181 -0.7058 -0.0466
20106TIP3    H281810   2.375   3.579  11.157  0.3260  0.2039  1.3586
20107TIP3   OH281811   4.567   0.194   0.599  0.0015 -0.4034  0.0224
20107TIP3    H181812   4.473   0.202   0.613 -0.0341 -0.6530 -0.0784
20107TIP3    H281813   4.578   0.199   0.504  0.2750  1.6857  0.1019
20108TIP3   OH281814   6.034   5.324  14.092 -0.3155  0.0261  0.3018
20108TIP3    H181815   5.944   5.349  14.113  0.1954  1.3032  1.0881
20108TIP3    H281816   6.062   5.271  14.166 -0.8691 -1.6371 -0.6246
20109TIP3   OH281817   4.144   5.117  12.253 -0.0937  0.1524  0.5103
20109TIP3    H181818   4.235   5.146  12.265  0.1813  0.2355 -1.4780
20109TIP3    H281819   4.091   5.194  12.273  0.1957 -0.0509  2.2389
20110TIP3   OH281820   0.780   3.453  15.320 -0.4272  0.6594  0.2626
20110TIP3    H181821   0.694   3.464  15.361 -0.1647  0.6764  0.8092
20110TIP3    H281822   0.760   3.446  15.226 -1.0159  0.7682  0.3725
20111TIP3   OH281823   0.077   1.865  17.065  0.0705 -0.2236 -0.3985
20111TIP3    H181824   0.150   1.919  17.033 -1.1568  0.5898 -1.9923
20111TIP3    H281825   0.064   1.894  17.155  0.2068  1.3354 -0.8452
20112TIP3   OH281826   6.595   2.419  13.954 -0.2393  0.1845 -0.0051
20112TIP3    H181827   6.642   2.446  13.876 -0.1705  0.2446  0.0566
20112TIP3    H281828   6.534   2.351  13.924  0.4939 -0.5275  0.0620
20113TIP3   OH281829   3.600   0.592   1.022 -0.4024  0.1353 -0.4797
20113TIP3    H181830   3.538   0.622   1.088  0.5638  2.1964 -0.4517
20113TIP3    H281831   3.685   0.600   1.064  0.0254 -1.1578 -1.0610
20114TIP3   OH281832   4.164   4.714  13.572  0.1218  0.2760 -0.3065
20114TIP3    H181833   4.117   4.658  13.509  0.3120  1.0698 -1.1753
20114TIP3    H281834   4.170   4.660  13.651 -1.5269 -0.1660 -0.4277
20115TIP3   OH281835   1.431   5.162  14.096  0.0360 -0.0550 -0.4751
20115TIP3    H181836   1.453   5.068  14.093 -0.0094 -0.0783 -0.0870
20115TIP3    H281837   1.419   5.181  14.189 -0.5753  0.1959 -0.6017
20116TIP3   OH281838   0.994   6.733  13.661  0.5140 -0.2693 -0.1376
20116TIP3    H181839   1.015   6.666  13.596  1.5533  1.2109 -1.3988
20116TIP3    H281840   0.900   6.749  13.649  0.4580 -0.8247 -0.4747
20117TIP3   OH281841   2.203   6.370  13.882  0.2452  0.3478 -0.2046
20117TIP3    H181842   2.270   6.432  13.854 -0.6183  1.5092  0.1977
20117TIP3    H281843   2.209   6.297  13.820  1.6017  0.6085 -0.3959
20118TIP3   OH281844   4.764   3.863  11.453 -0.6791  0.0169 -0.2725
20118TIP3    H181845   4.791   3.780  11.494  1.0061  0.9335  0.5908
20118TIP3    H281846   4.743   3.840  11.363 -0.6344 -1.4130  0.0609
20119TIP3   OH281847   2.560   6.451  15.435 -0.0624  0.2811  0.0739
20119TIP3    H181848   2.589   6.501  15.359  0.0371  1.0791  0.6138
20119TIP3    H281849   2.535   6.518  15.499 -2.5212 -0.3524 -0.1375
20120TIP3   OH281850   2.893   2.586  11.604 -0.2044 -0.1043  0.4350
20120TIP3    H181851   2.962   2.649  11.583  1.9260 -2.5999 -0.5951
20120TIP3    H281852   2.916   2.553  11.690  0.0219 -1.0482  0.0268
20121TIP3   OH281853   0.259   6.582  12.500  0.4430 -0.0311 -0.0566
20121TIP3    H181854   0.216   6.637  12.434 -0.3537 -0.4641  0.0998
20121TIP3    H281855   0.261   6.637  12.579  1.6110  0.5792 -0.4751
20122TIP3   OH281856   5.082   5.851   5.940  0.3128 -0.5574  0.1005
20122TIP3    H181857   4.993   5.843   5.974 -0.7370  0.5292 -2.1474
20122TIP3    H281858   5.117   5.928   5.984  0.4634 -1.4329  1.5694
20123TIP3   OH281859   0.479   2.160  14.207  0.5860  0.5704 -0.6745
20123TIP3    H181860   0.465   2.251  14.180  1.3824 -0.1148 -3.9450
20123TIP3    H281861   0.455   2.109  14.130 -0.1173 -2.0568  1.1673
20124TIP3   OH281862   3.258   3.336  11.139 -1.0582 -0.4274  0.3023
20124TIP3    H181863   3.277   3.251  11.100 -0.7890 -0.3098  0.1776
20124TIP3    H281864   3.301   3.400  11.082 -0.3435 -0.2789  0.9844
20125TIP3   OH281865   4.576   1.366   5.571  0.4802  0.1106 -0.3339
20125TIP3    H181866   4.634   1.433   5.609  1.8647 -1.3356  0.2316
20125TIP3    H281867   4.493   1.377   5.618  0.5455  1.6341 -0.5051
20126TIP3   OH281868   3.893   0.073   0.609  0.2380 -0.0943 -0.6055
20126TIP3    H181869   3.813   0.123   0.625  0.5278  0.2004 -0.0536
20126TIP3    H281870   3.932   0.114   0.532  0.9591  1.1642  0.3900
20127TIP3   OH281871   6.653   3.708   3.100  0.2746 -0.7451  0.8045
20127TIP3    H181872   6.649   3.786   3.046 -1.0013 -1.3004  0.0518
20127TIP3    H281873   6.738   3.713   3.144  0.7748  0.3755 -0.2481
20128TIP3   OH281874   4.935   6.576   0.394  0.0265 -0.4731  0.3491
20128TIP3    H181875   4.885   6.644   0.347  1.9880  1.4829  0.9126
20128TIP3    H281876   4.918   6.593   0.486  1.4339  0.0396  0.5375
20129TIP3   OH281877   3.061   5.275  13.003  0.4105  0.8403 -0.1119
20129TIP3    H181878   3.100   5.352  12.961  1.0678  1.4289  1.4818
20129TIP3    H281879   3.097   5.276  13.092  0.1344 -1.1061  0.0660
20130TIP3   OH281880   6.260   6.812   1.696 -0.1204 -0.2405  0.1861
20130TIP3    H181881   6.224   6.896   1.665 -0.9713 -0.4866  0.4724
20130TIP3    H281882   6.331   6.837   1.755  0.6459  0.2521 -0.9182
20131TIP3   OH281883   6.512   3.960   4.045 -0.3714 -0.4023 -0.0200
20131TIP3    H181884   6.515   3.926   4.134 -0.1590  1.0278  0.5440
20131TIP3    H281885   6.602   3.954   4.014 -0.4138 -0.7357 -0.0867
20132TIP3   OH281886   0.416   1.434  15.726 -0.7053 -0.4316 -0.5256
20132TIP3    H181887   0.333   1.396  15.754 -0.6152  0.3599  0.9207
20132TIP3    H281888   0.392   1.497  15.658 -1.3781  0.1655  0.2355
20133TIP3   OH281889   4.780   1.597   0.342 -0.3184  0.1434  0.1316
20133TIP3    H181890   4.765   1.507   0.312 -0.7755  0.1579  0.3148
20133TIP3    H281891   4.738   1.601   0.427  0.0179  0.4302  0.2849
20134TIP3   OH281892   0.635   2.518   6.535 -0.0081 -0.5633  0.4327
20134TIP3    H181893   0.708   2.562   6.491 -1.4964  1.1895 -0.4153
20134TIP3    H281894   0.657   2.425   6.531  1.6920 -0.1548 -0.6772
20135TIP3   OH281895   6.573   2.545   6.162 -0.2578  0.0767 -0.3136
20135TIP3    H181896   6.646   2.548   6.100  1.3512  0.3418  1.4851
20135TIP3    H281897   6.604   2.487   6.231 -1.5680  0.5985  0.7417
20136TIP3   OH281898   6.332   2.541  15.515 -0.1372  0.3668  0.1497
20136TIP3    H181899   6.251   2.491  15.519  0.7886 -1.1904  0.1543
20136TIP3    H281900   6.359   2.535  15.423  1.4551 -1.6567  0.6853
20137TIP3   OH281901   0.735   5.947  13.441  0.4312 -0.4582  0.2526
20137TIP3    H181902   0.747   5.903  13.357 -0.6966  0.0204 -0.1720
20137TIP3    H281903   0.649   5.918  13.471  0.8459 -0.6660  1.2708
20138TIP3   OH281904   1.278   1.113  14.446  0.1055  0.5045 -0.7919
20138TIP3    H181905   1.204   1.095  14.389 -0.7773 -0.3380  0.5513
20138TIP3    H281906   1.251   1.080  14.532  1.7518  0.8433 -0.0930
20139TIP3   OH281907   2.094   1.680  14.970 -0.0183 -0.2680 -0.1556
20139TIP3    H181908   2.177   1.672  14.923  0.1937 -0.8403  0.2960
20139TIP3    H281909   2.028   1.678  14.901  0.3727  1.3061 -0.6115
20140TIP3   OH281910   6.442   1.371  11.111  0.1366  0.0742  0.0014
20140TIP3    H181911   6.534   1.347  11.120 -0.2401 -1.5986 -0.3365
20140TIP3    H281912   6.416   1.337  11.025 -0.7985  0.5145  0.0979
20141TIP3   OH281913   0.818   0.280  12.733  0.3151 -0.3023  0.2641
20141TIP3    H181914   0.833   0.243  12.821 -2.0887 -0.3276  0.7400
20141TIP3    H281915   0.746   0.227  12.697  0.0315  0.8731 -0.9747
20142TIP3   OH281916   2.954   1.829   2.162  0.0611  0.2480  0.3947
20142TIP3    H181917   3.010   1.884   2.217 -0.1593  0.4049  0.4579
20142TIP3    H281918   2.928   1.757   2.220 -0.1742  0.4152  0.4977
20143TIP3   OH281919   5.514   3.287   5.404  0.1635  0.1826  0.3956
20143TIP3    H181920   5.515   3.233   5.483 -1.5293 -0.0767  0.2646
20143TIP3    H281921   5.445   3.350   5.419  2.0274  2.3191  0.4863
20144TIP3   OH281922   1.851   3.804  11.256  0.3548  0.2229 -0.5470
20144TIP3    H181923   1.866   3.709  11.259 -0.9627 -0.0282 -0.9613
20144TIP3    H281924   1.869   3.834  11.345 -0.5895 -0.6615 -0.0292
20145TIP3   OH281925   1.270   1.526  11.985 -0.1316  0.0491 -0.0625
20145TIP3    H181926   1.294   1.438  12.015  1.3272  0.1294 -0.8757
20145TIP3    H281927   1.187   1.514  11.940 -0.0111 -0.8944 -0.0616
20146TIP3   OH281928   1.548   1.517  13.088 -0.6402 -0.4764 -0.4245
20146TIP3    H181929   1.632   1.541  13.049 -0.8815 -0.9222 -1.2486
20146TIP3    H281930   1.546   1.563  13.171  0.3675 -0.3561 -0.4534
20147TIP3   OH281931   1.762   3.690   3.126  0.4157  0.1189 -0.2640
20147TIP3    H181932   1.724   3.709   3.041  0.5719 -0.2135 -0.4115
20147TIP3    H281933   1.737   3.599   3.144 -0.8105  0.6218  0.6885
20148TIP3   OH281934   6.163   3.166  13.200  0.1289  0.2708  0.0309
20148TIP3    H181935   6.105   3.183  13.274  0.5504  0.5876  0.2917
20148TIP3    H281936   6.194   3.253  13.173 -1.3752  0.3582 -1.6353
20149TIP3   OH281937   4.495   6.840  14.145 -0.6110  0.5338 -0.5375
20149TIP3    H181938   4.513   6.754  14.107 -0.2455  1.1120 -1.7223
20149TIP3    H281939   4.468   6.821  14.235  0.2789 -0.7507 -0.5161
20150TIP3   OH281940   5.164   5.284   1.711 -0.2931 -0.4383  0.8368
20150TIP3    H181941   5.215   5.335   1.774 -0.7648  0.9366  0.1313
20150TIP3    H281942   5.073   5.302   1.733 -0.4641  0.0077 -0.1867
20151TIP3   OH281943   1.353   2.140  14.695  0.3128 -0.1887  0.0683
20151TIP3    H181944   1.350   2.044  14.695  1.1330 -0.2688  2.3746
20151TIP3    H281945   1.433   2.162  14.742 -0.3221  1.6341  0.3733
20152TIP3   OH281946   2.616   4.275  13.649 -0.8733 -0.4139 -0.0300
20152TIP3    H181947   2.563   4.204  13.613 -2.8894 -0.3855  2.6185
20152TIP3    H281948   2.621   4.257  13.742  3.4533 -0.0744  0.0135
20153TIP3   OH281949   5.758   3.608   2.623 -0.3018  0.1878 -0.1129
20153TIP3    H181950   5.768   3.519   2.591  0.5880  0.4761 -0.6610
20153TIP3    H281951   5.713   3.598   2.707 -1.7646 -0.6500 -0.9458
20154TIP3   OH281952   4.048   6.576  15.192 -0.2329 -0.2983  0.3253
20154TIP3    H181953   3.979   6.628  15.151  0.2389  0.4809  0.4903
20154TIP3    H281954   4.069   6.624  15.273  0.5143 -0.5080  0.2650
20155TIP3   OH281955   6.762   4.439   2.174 -0.0013 -0.0057  0.0116
20155TIP3    H181956   6.676   4.461   2.210  0.8734 -0.3133  2.4985
20155TIP3    H281957   6.745   4.369   2.112 -1.4486 -1.1114  1.5648
20156TIP3   OH281958   3.663   2.888  13.955 -0.2466 -0.1625 -0.1954
20156TIP3    H181959   3.664   2.815  13.893 -4.1035 -0.0666 -0.6071
20156TIP3    H281960   3.628   2.961  13.904 -2.0180  0.3323  1.6266
20157TIP3   OH281961   0.809   6.848   3.138  0.6220 -0.0965  0.4444
20157TIP3    H181962   0.803   6.899   3.218  0.7367 -2.3406  1.9649
20157TIP3    H281963   0.723   6.857   3.097 -0.1897 -0.6926  1.9714
20158TIP3   OH281964   5.695   4.740   3.115 -0.2975  0.3108 -0.6931
20158TIP3    H181965   5.691   4.834   3.134  1.6931  0.3851 -0.3772
20158TIP3    H281966   5.648   4.730   3.032 -1.3487  1.4134 -0.2579
20159TIP3   OH281967   3.758   3.231   4.285 -0.2878 -0.4758 -0.2310
20159TIP3    H181968   3.707   3.308   4.312 -0.8980 -0.6688 -0.8086
20159TIP3    H281969   3.771   3.243   4.191  0.0452 -0.8345 -0.2325
20160TIP3   OH281970   2.839   1.665   2.979  1.0840  0.2965 -0.0761
20160TIP3    H181971   2.772   1.600   2.996  1.1830  0.4539  0.9605
20160TIP3    H281972   2.804   1.718   2.907  0.7991 -0.5901 -0.6045
20161TIP3   OH281973   3.998   5.672   4.886 -0.1463 -0.5022 -0.0002
20161TIP3    H181974   4.077   5.639   4.930  0.0257 -0.5232 -0.3216
20161TIP3    H281975   4.006   5.640   4.796  0.1761  0.6733 -0.4046
20162TIP3   OH281976   0.374   4.401   1.666  0.4435 -0.0070  0.1884
20162TIP3    H181977   0.437   4.472   1.667  2.1385 -1.4425 -0.2143
20162TIP3    H281978   0.379   4.365   1.577 -1.5959  0.3743 -0.1389
20163TIP3   OH281979   4.453   3.849  13.449 -0.4066 -0.1582  0.7446
20163TIP3    H181980   4.378   3.906  13.435 -0.8447 -1.0168 -0.5587
20163TIP3    H281981   4.525   3.909  13.469 -0.8801  0.8529 -0.4689
20164TIP3   OH281982   2.192   5.467   2.703 -0.6032 -0.2080 -0.1474
20164TIP3    H181983   2.192   5.546   2.757 -0.8795 -1.3797  1.6551
20164TIP3    H281984   2.129   5.486   2.633 -0.8038  1.0850  0.3561
20165TIP3   OH281985   4.789   2.656   5.415  0.8097  0.2576 -0.3641
20165TIP3    H181986   4.701   2.619   5.414  0.1516  0.9672  4.4536
20165TIP3    H281987   4.847   2.583   5.394 -0.8195 -0.9668 -0.7820
20166TIP3   OH281988   6.545   2.561  11.260  0.3969  0.3101  0.0527
20166TIP3    H181989   6.457   2.556  11.297  0.3860  0.3980  0.0378
20166TIP3    H281990   6.533   2.601  11.174  0.5933  1.4916  0.5491
20167TIP3   OH281991   2.693   5.575   2.131 -0.3412 -0.1938 -0.7739
20167TIP3    H181992   2.722   5.622   2.053 -2.2798  1.0481 -0.8189
20167TIP3    H281993   2.625   5.631   2.168  1.1154 -0.2635  2.3529
20168TIP3   OH281994   5.291   4.466   4.898 -0.4638  0.4006  0.0564
20168TIP3    H181995   5.236   4.526   4.948 -0.8481 -1.0800  1.5221
20168TIP3    H281996   5.230   4.418   4.842 -0.7305 -1.1099  1.5462
20169TIP3   OH281997   6.470   4.782  11.529 -0.1997  0.7830 -0.3218
20169TIP3    H181998   6.555   4.738  11.532 -0.6195 -0.1998 -1.9027
20169TIP3    H281999   6.406   4.711  11.542 -0.8226  1.2207 -0.9297
20170TIP3   OH282000   3.727   5.514  16.231 -0.0340 -0.0284  0.1198
20170TIP3    H182001   3.744   5.503  16.325 -0.2558  0.9719  0.2836
20170TIP3    H282002   3.800   5.567  16.199 -0.6176  0.6961 -0.0178
20171TIP3   OH282003   4.283   5.686   1.719  0.0990  0.6614  0.3503
20171TIP3    H182004   4.228   5.612   1.693 -1.1447 -0.3231  4.9075
20171TIP3    H282005   4.372   5.655   1.707 -0.3889 -1.6906  2.0919
20172TIP3   OH282006   1.500   6.421   1.714  0.3758  0.7358  0.2090
20172TIP3    H182007   1.555   6.379   1.780  0.4756  0.7037  0.1074
20172TIP3    H282008   1.529   6.513   1.714  0.4476  0.7144  0.1397
20173TIP3   OH282009   3.848   4.250   4.640 -0.2918 -0.4006 -0.2675
20173TIP3    H182010   3.816   4.164   4.666 -0.0830 -0.8575 -1.4635
20173TIP3    H282011   3.935   4.234   4.603  0.3471  0.5148  0.7673
20174TIP3   OH282012   3.199   1.228   1.286 -0.4338  0.2893  0.3794
20174TIP3    H182013   3.197   1.316   1.249  0.0072 -0.0711 -0.5181
20174TIP3    H282014   3.284   1.193   1.259  0.2415  0.2762  2.3712
20175TIP3   OH282015   1.582   1.429  10.982  0.2934  0.3346 -0.3024
20175TIP3    H182016   1.526   1.379  11.042 -0.6601 -0.2912 -1.6727
20175TIP3    H282017   1.617   1.364  10.921  1.3853  0.9357 -0.3480
20176TIP3   OH282018   3.536   3.226  15.050  0.3962  0.1687 -0.4934
20176TIP3    H182019   3.585   3.221  14.967  0.8947 -0.0562 -0.1916
20176TIP3    H282020   3.461   3.168  15.037  2.0332 -2.2717  0.2380
20177TIP3   OH282021   3.014   2.527  12.940 -0.2610  0.0087 -0.1720
20177TIP3    H182022   3.021   2.590  12.868 -1.5416 -1.7779 -1.9751
20177TIP3    H282023   3.093   2.473  12.932 -0.8227 -0.7471 -0.8666
20178TIP3   OH282024   0.497   4.163  14.278 -0.4765 -0.0182 -0.0259
20178TIP3    H182025   0.443   4.126  14.208 -0.3365  0.2681 -0.2937
20178TIP3    H282026   0.488   4.103  14.351  0.5304 -1.1285 -0.7703
20179TIP3   OH282027   0.237   4.722   0.007  0.0519  0.0524  0.8027
20179TIP3    H182028   0.174   4.650  -0.001 -0.9470  0.8056  1.6954
20179TIP3    H282029   0.188   4.793   0.049  1.3936  0.7855  1.1950
20180TIP3   OH282030   2.809   2.020  14.811  0.5469  0.6157 -0.0222
20180TIP3    H182031   2.762   1.953  14.761 -2.8161  1.9576  1.0722
20180TIP3    H282032   2.809   1.987  14.901 -1.0738  1.9443  0.5140
20181TIP3   OH282033   6.738   0.357  15.109 -0.7071 -0.1779 -0.0348
20181TIP3    H182034   6.771   0.319  15.028  0.1831  0.3757  0.0598
20181TIP3    H282035   6.724   0.449  15.088 -1.8104 -0.3061  0.0525
20182TIP3   OH282036   3.963   3.326   1.314  0.2503 -0.7482 -0.0273
20182TIP3    H182037   3.979   3.419   1.296 -3.0135  0.0632  0.7112
20182TIP3    H282038   3.950   3.287   1.227 -0.4642 -0.0447 -0.2507
20183TIP3   OH282039   6.092   3.305  16.138 -0.2617 -0.4975  0.0796
20183TIP3    H182040   6.146   3.275  16.064  1.4444  0.4170  0.8899
20183TIP3    H282041   6.003   3.309  16.103  0.6401  1.0649 -2.2992
20184TIP3   OH282042   6.196   5.428  16.800  0.3981 -0.6869 -0.1292
20184TIP3    H182043   6.197   5.411  16.895 -0.4540 -0.2580 -0.0328
20184TIP3    H282044   6.145   5.355  16.764 -1.9763  0.7428  0.1165
20185TIP3   OH282045   3.792   4.556  11.877  0.0985 -0.0923 -0.0801
20185TIP3    H182046   3.887   4.539  11.873 -0.1448 -1.5047 -0.7092
20185TIP3    H282047   3.762   4.542  11.787 -0.5706  1.3751 -0.1068
20186TIP3   OH282048   2.807   3.027   6.454 -0.5023 -0.2361  0.6704
20186TIP3    H182049   2.797   2.945   6.406  0.9720 -0.4945  0.7508
20186TIP3    H282050   2.814   3.001   6.546  1.5872 -0.2219  0.5720
20187TIP3   OH282051   3.754   4.431  16.166 -0.0476  0.3508  0.3029
20187TIP3    H182052   3.798   4.346  16.177  1.6551  1.1533  0.0479
20187TIP3    H282053   3.798   4.470  16.090 -0.1418  1.8441  0.9934
20188TIP3   OH282054   2.749   6.405  13.827  0.1597  0.7439 -0.6158
20188TIP3    H182055   2.671   6.460  13.816  0.3554  0.9972 -0.7224
20188TIP3    H282056   2.754   6.354  13.746  1.3582  2.3041 -1.5747
20189TIP3   OH282057   6.261   6.306  16.845  0.1908 -0.3227  0.5420
20189TIP3    H182058   6.329   6.266  16.791 -0.7193 -0.0335 -0.8527
20189TIP3    H282059   6.182   6.305  16.791 -0.6720  0.3223  1.7213
20190TIP3   OH282060   3.541   1.111  12.660 -0.1959  0.3084  0.0053
20190TIP3    H182061   3.596   1.163  12.601 -0.4963  0.5221 -0.0908
20190TIP3    H282062   3.458   1.103  12.614 -0.2423 -0.0228  0.1443
20191TIP3   OH282063   5.465   1.709   2.518 -0.0143 -0.1764  0.0483
20191TIP3    H182064   5.536   1.750   2.469  0.7816 -0.4211  0.9686
20191TIP3    H282065   5.456   1.763   2.596 -0.6537 -0.3237  0.0805
20192TIP3   OH282066   4.614   3.881   4.322 -0.0677  0.3922 -0.6511
20192TIP3    H182067   4.586   3.852   4.235 -1.1275  0.6558 -0.4115
20192TIP3    H282068   4.664   3.807   4.357  0.2135  0.2138 -1.4146
20193TIP3   OH282069   5.239   1.378   1.348 -0.4666  0.1054  0.4238
20193TIP3    H182070   5.215   1.372   1.441 -0.8587  2.3496  0.5206
20193TIP3    H282071   5.157   1.360   1.301 -0.6929  0.7196  0.5736
20194TIP3   OH282072   1.297   0.118  12.105  0.0339  0.3944  0.2028
20194TIP3    H182073   1.343   0.110  12.021  1.3846  0.2696  0.9356
20194TIP3    H282074   1.264   0.207  12.106  0.5231  0.5862 -0.2144
20195TIP3   OH282075   5.297   4.744  13.155  0.2259 -0.2039  0.6850
20195TIP3    H182076   5.337   4.657  13.150 -0.5632 -0.5572 -3.2783
20195TIP3    H282077   5.276   4.765  13.064 -0.1555  3.9316  1.5407
20196TIP3   OH282078   2.800   3.460  10.942  0.5761  0.3736 -0.2404
20196TIP3    H182079   2.794   3.505  11.026 -0.1458  1.5465 -0.8967
20196TIP3    H282080   2.832   3.527  10.881  0.2312 -0.2140 -1.0853
20197TIP3   OH282081   3.173   0.775  11.696  0.4416 -0.1521  0.0418
20197TIP3    H182082   3.268   0.781  11.682  0.7423  0.4432  2.0243
20197TIP3    H282083   3.150   0.857  11.740 -1.2634  0.3249 -1.6091
20198TIP3   OH282084   6.760   3.364  14.489  0.0113  0.3337 -0.3556
20198TIP3    H182085   6.682   3.404  14.527 -0.2585  1.1009 -1.6663
20198TIP3    H282086   6.767   3.402  14.402  2.0590  0.5695 -0.1448
20199TIP3   OH282087   3.769   0.207   4.413  0.0754  0.5082  0.1723
20199TIP3    H182088   3.765   0.299   4.387  0.0312  0.1687 -1.0998
20199TIP3    H282089   3.859   0.181   4.394 -0.1583  0.0528 -0.3210
20200TIP3   OH282090   0.557   1.467   3.514  0.1790  0.2619 -0.0073
20200TIP3    H182091   0.593   1.398   3.569 -1.3353 -1.7883 -1.4747
20200TIP3    H282092   0.462   1.461   3.527 -0.0871  0.9278 -1.4607
20201TIP3   OH282093   5.556   1.316  13.667  0.2981 -0.4461 -0.5103
20201TIP3    H182094   5.482   1.374  13.650  0.3048 -0.3429 -0.1859
20201TIP3    H282095   5.553   1.300  13.761  0.0340 -1.3264 -0.6553
20202TIP3   OH282096   2.176   0.145  16.922 -0.1799 -0.7856  0.2673
20202TIP3    H182097   2.216   0.123  17.006 -1.4527 -1.4749  0.7216
20202TIP3    H282098   2.101   0.085  16.914 -0.2553 -0.5423 -1.2245
20203TIP3   OH282099   5.970   3.077  13.793  0.7538 -0.1294  0.0032
20203TIP3    H182100   6.054   3.078  13.747  0.5259 -1.3851 -0.4881
20203TIP3    H282101   5.905   3.064  13.724  0.3028 -0.7961  0.5380
20204TIP3   OH282102   4.830   4.289   3.342 -0.0034  0.7750  0.1415
20204TIP3    H182103   4.867   4.204   3.364  0.2257  1.4848  2.8172
20204TIP3    H282104   4.763   4.271   3.277  0.1330 -1.4248  0.5591
20205TIP3   OH282105   2.065   6.126   6.193  0.0335  0.1408 -0.4399
20205TIP3    H182106   2.007   6.171   6.254  0.8761 -0.4734  0.8875
20205TIP3    H282107   2.106   6.196   6.142 -1.4294  0.6045 -1.0078
20206TIP3   OH282108   6.157   2.728   4.851  0.0129  0.5667 -0.1457
20206TIP3    H182109   6.227   2.757   4.909  0.5128  1.3926 -1.1285
20206TIP3    H282110   6.080   2.775   4.881  0.2276  0.8376 -0.0086
20207TIP3   OH282111   3.041   1.853  15.248 -0.2159  0.0174  0.4974
20207TIP3    H182112   3.121   1.854  15.197 -0.7179 -0.4327 -0.3311
20207TIP3    H282113   3.043   1.934  15.299  0.2269  0.5552 -0.3573
20208TIP3   OH282114   4.097   0.293   0.551 -0.4337 -0.2039 -0.1844
20208TIP3    H182115   4.080   0.375   0.597 -0.6132  0.2572 -1.0643
20208TIP3    H282116   4.161   0.248   0.607 -1.5878 -0.2431  1.1777
20209TIP3   OH282117   5.887   3.694  15.836 -0.4876 -0.2731 -0.2313
20209TIP3    H182118   5.828   3.734  15.900  0.3214  1.1070 -0.3234
20209TIP3    H282119   5.838   3.698  15.753 -0.3279  0.7719 -0.2878
20210TIP3   OH282120   6.522   2.203  10.608  0.0956 -0.5159 -0.0739
20210TIP3    H182121   6.451   2.221  10.547  0.5189  1.3098 -0.0730
20210TIP3    H282122   6.585   2.153  10.555 -1.0227 -1.9406 -0.1341
20211TIP3   OH282123   5.425   6.323  14.732  0.5144  0.2051  0.3162
20211TIP3    H182124   5.471   6.329  14.816  0.6976 -1.6459  0.3844
20211TIP3    H282125   5.479   6.264  14.679 -0.2995  0.2917 -0.6440
20212TIP3   OH282126   1.014   0.403   0.166 -0.3754 -0.0750  0.0806
20212TIP3    H182127   1.017   0.470   0.098  2.0034 -1.0572 -0.8890
20212TIP3    H282128   0.976   0.327   0.123 -0.1337 -0.2894  0.2431
20213TIP3   OH282129   1.569   1.609  12.786  0.1184  0.1697  0.2336
20213TIP3    H182130   1.563   1.515  12.799  0.0227  0.3209  1.4012
20213TIP3    H282131   1.661   1.630  12.801  0.5944 -0.0070 -2.1509
20214TIP3   OH282132   0.508   5.028  15.461 -0.3053 -0.1220 -0.2816
20214TIP3    H182133   0.484   4.971  15.534  0.1019  1.7642  1.4305
20214TIP3    H282134   0.602   5.040  15.470 -0.5833  2.0248  0.4090
20215TIP3   OH282135   6.560   6.627   0.157  0.4937  0.3396 -0.3221
20215TIP3    H182136   6.592   6.561   0.095 -0.5555 -1.2681  0.7760
20215TIP3    H282137   6.571   6.587   0.243  0.6479  1.9823  0.4533
20216TIP3   OH282138   6.747   3.247   3.240 -0.2447  0.5629  0.0812
20216TIP3    H182139   6.704   3.244   3.325 -1.3239 -0.5623 -0.4757
20216TIP3    H282140   6.830   3.294   3.256 -0.4629  0.4316  1.7071
20217TIP3   OH282141   2.032   3.155   5.173  0.3389 -0.2549 -0.2220
20217TIP3    H182142   2.111   3.129   5.221  0.1170 -0.8327 -0.1672
20217TIP3    H282143   2.060   3.159   5.081  0.1860 -1.4972 -0.3401
20218TIP3   OH282144   1.122   2.313  14.001 -0.1691  0.0185 -0.3878
20218TIP3    H182145   1.078   2.308  14.085 -0.4291  0.2357 -0.5055
20218TIP3    H282146   1.059   2.360  13.945  0.9201  1.9604 -0.0781
20219TIP3   OH282147   0.325   6.413  14.006  0.2906  0.2412  0.0244
20219TIP3    H182148   0.410   6.439  14.042  0.3016  0.4715 -0.1663
20219TIP3    H282149   0.342   6.398  13.913  0.1821  0.0129  0.0404
20220TIP3   OH282150   5.633   2.414   3.165 -0.0772 -0.2933  0.4587
20220TIP3    H182151   5.679   2.389   3.245  0.0267 -1.3763  0.0888
20220TIP3    H282152   5.615   2.507   3.175 -1.2149 -0.6688  2.3044
20221TIP3   OH282153   1.433   3.343  16.655  0.1560  0.0090 -0.3767
20221TIP3    H182154   1.525   3.325  16.675 -0.0042 -0.5841 -0.1534
20221TIP3    H282155   1.424   3.438  16.667  0.5768 -0.0280  0.2793
20222TIP3   OH282156   1.533   4.339  11.126  0.1631  0.6961 -0.1405
20222TIP3    H182157   1.573   4.365  11.043 -1.3880  0.8888 -0.8576
20222TIP3    H282158   1.455   4.394  11.133  0.4268  0.9300  1.6301
20223TIP3   OH282159   4.939   5.291  13.187 -0.4273 -0.1192  0.1211
20223TIP3    H182160   4.876   5.342  13.136  0.8073  0.4461 -0.8926
20223TIP3    H282161   4.934   5.203  13.151  0.7739  0.3774 -1.3679
20224TIP3   OH282162   1.019   0.853  11.672 -0.4606 -0.1639  0.2785
20224TIP3    H182163   0.961   0.815  11.606  0.4196 -0.7656 -0.1743
20224TIP3    H282164   0.982   0.825  11.756 -0.0497 -1.7884 -0.0336
20225TIP3   OH282165   5.843   1.771  15.791  0.1293  0.1185 -0.0803
20225TIP3    H182166   5.926   1.726  15.805  0.7917  0.9498 -1.1647
20225TIP3    H282167   5.863   1.838  15.726 -1.3773  0.4055 -0.2805
20226TIP3   OH282168   3.809   0.691   0.300  0.3534  0.1459 -0.4623
20226TIP3    H182169   3.790   0.602   0.331  0.0431  0.7929  1.3352
20226TIP3    H282170   3.780   0.691   0.209 -1.4110 -1.0719  0.0362
20227TIP3   OH282171   3.576   0.017  12.757  0.2302  0.5726  0.2373
20227TIP3    H182172   3.531   0.069  12.825  0.3964  1.3846 -0.2644
20227TIP3    H282173   3.529  -0.067  12.757 -0.4047  0.9137  0.6795
20228TIP3   OH282174   3.160   4.952  11.792  0.3056  0.0595  0.2867
20228TIP3    H182175   3.224   4.972  11.861  0.1351 -3.4399  1.6802
20228TIP3    H282176   3.129   4.864  11.813 -1.4220 -0.3107 -3.1054
20229TIP3   OH282177   0.775   4.574   5.818 -0.1335  0.9966 -0.0089
20229TIP3    H182178   0.784   4.501   5.879  0.1839  1.1019  0.0723
20229TIP3    H282179   0.788   4.534   5.732 -2.4355  0.4958 -0.1826
20230TIP3   OH282180   2.735   5.555   4.764 -0.1065 -0.0508  0.2698
20230TIP3    H182181   2.804   5.622   4.770 -0.8979  0.6989  1.3229
20230TIP3    H282182   2.752   5.497   4.838 -0.9541  0.4878  0.8954
20231TIP3   OH282183   2.200   1.756  13.919  0.2254  0.0622  0.3716
20231TIP3    H182184   2.185   1.662  13.921  1.5178 -0.1629  0.3017
20231TIP3    H282185   2.134   1.790  13.859 -0.9924 -0.6372  1.2766
20232CLA    CLA82186   5.030   2.767   0.450  0.4567  0.4709 -0.0957
20233LIG     O182187   4.185   3.984  15.348 -0.1107  0.4797  0.3777
20233LIG     O282188   4.274   3.848  15.508 -0.2781 -0.1341  0.7109
20233LIG     O382189   4.114   3.622  15.370  0.3081 -0.0237  0.2106
20233LIG     O482190   4.357   3.377  15.908 -0.3652 -0.0805  0.4089
20233LIG      N82191   4.109   4.115  15.739 -0.7146 -0.4306 -0.1242
20233LIG     C182192   4.185   4.215  15.659 -0.0970  0.2567 -0.7080
20233LIG     C282193   3.986   4.098  15.661 -0.1583 -0.0350  0.7728
20233LIG     C382194   4.076   4.318  15.627 -0.6484  0.5732 -0.0037
20233LIG     C482195   3.943   4.244  15.638  0.5013  0.8460  0.2933
20233LIG     C582196   4.237   4.151  15.525 -0.2114  0.1190 -0.0632
20233LIG     C682197   4.021   4.010  15.535  0.0242  0.1217  0.3052
20233LIG     C782198   4.127   4.076  15.444  0.1620 -0.7673 -0.3004
20233LIG     C882199   4.191   3.990  15.770 -0.8108  0.1032  0.1975
20233LIG     C982200   4.081   4.185  15.885 -0.6464  0.2896 -0.0958
20233LIG    C1082201   4.111   3.880  15.834 -0.0699  0.1446  0.4764
20233LIG    C1182202   4.184   3.748  15.847 -0.6349 -0.1016 -0.2183
20233LIG    C1282203   4.246   3.877  15.392  0.1945 -0.1178  1.0521
20233LIG    C1382204   4.153   3.642  15.762 -0.6445  0.2547  0.5284
20233LIG    C1482205   4.277   3.738  15.947 -0.5964  0.2432 -0.5682
20233LIG    C1582206   4.254   3.783  15.272 -0.9222 -0.4811  1.0549
20233LIG    C1682207   4.215   3.518  15.791 -0.3246  0.4085  0.4339
20233LIG    C1782208   4.355   3.620  15.953 -0.6526 -0.0457 -0.6943
20233LIG    C1882209   4.248   3.639  15.319  0.3077 -0.1683 -0.1561
20233LIG    C1982210   4.368   3.815  15.178 -0.6394  0.2773  0.2992
20233LIG    C2082211   4.309   3.504  15.890 -0.3756  0.1434 -0.0624
20233LIG    C2182212   4.349   3.872  15.056 -0.4275 -0.0444 -0.5678
20233LIG    C2282213   4.494   3.767  15.214 -0.6226  0.6870 -1.0735
20233LIG    C2382214   4.454   3.889  14.963  0.7598 -0.4979  0.1421
20233LIG    C2482215   4.605   3.781  15.126 -0.1229  1.2086  0.4657
20233LIG    C2582216   4.481   3.361  15.990 -0.5521 -0.2948  0.1690
20233LIG    C2682217   4.584   3.848  15.004 -0.4670 -0.1492  0.4495
20233LIG    C2782218   4.545   3.225  15.939  0.2791 -0.9834 -0.6371
20233LIG    C2882219   4.450   3.103  15.940 -0.0897 -0.6721 -0.5331
20233LIG    C2982220   4.523   2.970  15.940  0.8366 -0.1886  0.0768
20233LIG     H182221   4.269   4.256  15.719  0.2563 -1.8738  0.3772
20233LIG     H282222   3.903   4.054  15.721 -1.1530  0.4495 -0.2135
20233LIG     H382223   4.080   4.363  15.527 -1.0579  1.2626  0.2782
20233LIG     H482224   4.064   4.401  15.698  0.1836  0.0319  0.7947
20233LIG     H582225   3.880   4.288  15.716 -0.6415  0.5795 -0.4497
20233LIG     H682226   3.879   4.248  15.548 -0.1730 -1.4864  0.5817
20233LIG     H782227   4.319   4.080  15.551 -0.6036 -0.6183 -0.7672
20233LIG     H882228   4.273   4.237  15.466 -1.6953  2.0804  1.7500
20233LIG     H982229   3.923   4.013  15.483 -0.1206  0.5794  0.5985
20233LIG    H1082230   4.037   3.905  15.569  1.6486  0.6433  1.2645
20233LIG    H1182231   4.078   4.159  15.388 -0.0384 -1.6217 -1.4120
20233LIG    H1282232   4.269   4.011  15.842 -1.6065 -1.1921  1.5063
20233LIG    H1382233   4.241   3.961  15.678  0.9268  1.2988  0.7142
20233LIG    H1482234   4.175   4.176  15.939 -1.5419 -0.1134  1.4712
20233LIG    H1582235   3.995   4.138  15.930 -0.6069 -1.5169 -1.8077
20233LIG    H1682236   4.049   4.287  15.876 -2.0688 -0.2272 -1.3119
20233LIG    H1782237   4.017   3.853  15.783 -0.4154  2.3308 -0.1161
20233LIG    H1882238   4.071   3.903  15.935  0.1979  2.8990  0.0252
20233LIG    H1982239   4.075   3.635  15.688 -0.2406 -0.6060  0.1602
20233LIG    H2082240   4.304   3.821  16.010 -2.3287  0.0230  0.5246
20233LIG    H2182241   4.164   3.798  15.209  0.5579 -1.5673 -1.4902
20233LIG    H2282242   4.184   3.427  15.742  0.0595  0.7547 -0.4785
20233LIG    H2382243   4.423   3.620  16.037  0.5944 -1.0103 -1.6769
20233LIG    H2482244   4.276   3.568  15.239  1.3211 -0.4658  0.4379
20233LIG    H2582245   4.319   3.632  15.404  0.0735 -2.5417 -0.1066
20233LIG    H2682246   4.252   3.910  15.027 -0.4948  0.3881  0.1910
20233LIG    H2782247   4.516   3.719  15.308 -1.5262  1.6983 -0.3155
20233LIG    H2882248   4.100   3.532  15.401 -1.1253  0.6029  1.4884
20233LIG    H2982249   4.430   3.929  14.865  0.7186 -0.1477  0.2949
20233LIG    H3082250   4.706   3.749  15.145  0.7766  2.4735 -1.7657
20233LIG    H3182251   4.446   3.340  16.093  0.0362 -0.7793  0.2737
20233LIG    H3282252   4.554   3.445  15.986  1.5163 -1.7992  2.8392
20233LIG    H3382253   4.657   3.857  14.925  1.3414 -0.3216  2.0358
20233LIG    H3482254   4.634   3.201  16.001 -0.1790 -0.8161  0.0933
20233LIG    H3582255   4.581   3.244  15.836 -2.8471  2.0065 -1.3437
20233LIG    H3682256   4.369   3.113  15.865  2.0582 -1.8602 -3.1800
20233LIG    H3782257   4.394   3.119  16.035  0.5101  0.6207 -0.3787
20233LIG    H3882258   4.577   2.949  15.845 -1.7313 -0.6916 -1.3690
20233LIG    H3982259   4.447   2.888  15.941 -1.4639  1.7192 -2.1524
20233LIG    H4082260   4.593   2.952  16.024 -1.2731 -0.6714  1.8576
   6.85139   6.85139  17.13963
