Generated by CHARMM-GUI FF-Converter
43206
    1CHL1    C3    1   3.784   4.002  14.478
    1CHL1    H3    2   3.695   3.937  14.463
    1CHL1    O3    3   3.791   4.040  14.615
    1CHL1   H3'    4   3.708   4.086  14.633
    1CHL1    C4    5   3.912   3.927  14.437
    1CHL1   H4A    6   3.995   3.998  14.459
    1CHL1   H4B    7   3.927   3.840  14.503
    1CHL1    C5    8   3.921   3.889  14.290
    1CHL1    C6    9   3.935   3.762  14.244
    1CHL1    H6   10   3.941   3.679  14.316
    1CHL1    C7   11   3.955   3.725  14.099
    1CHL1   H7A   12   4.043   3.658  14.080
    1CHL1   H7B   13   3.870   3.664  14.062
    1CHL1    C8   14   3.979   3.851  14.013
    1CHL1    H8   15   4.087   3.878  14.022
    1CHL1   C14   16   3.942   3.821  13.871
    1CHL1   H14   17   3.831   3.815  13.864
    1CHL1   C15   18   3.990   3.687  13.816
    1CHL1  H15A   19   4.094   3.663  13.848
    1CHL1  H15B   20   3.926   3.599  13.837
    1CHL1   C16   21   3.980   3.723  13.670
    1CHL1  H16A   22   4.088   3.732  13.645
    1CHL1  H16B   23   3.922   3.651  13.609
    1CHL1   C17   24   3.944   3.867  13.640
    1CHL1   H17   25   3.835   3.868  13.628
    1CHL1   C13   26   3.983   3.930  13.773
    1CHL1   C18   27   4.134   3.947  13.785
    1CHL1  H18A   28   4.188   3.850  13.795
    1CHL1  H18B   29   4.167   3.995  13.692
    1CHL1  H18C   30   4.168   4.012  13.868
    1CHL1   C12   31   3.909   4.059  13.802
    1CHL1  H12A   32   3.952   4.143  13.743
    1CHL1  H12B   33   3.803   4.047  13.773
    1CHL1   C11   34   3.915   4.094  13.951
    1CHL1  H11A   35   4.015   4.141  13.966
    1CHL1  H11B   36   3.837   4.170  13.969
    1CHL1    C9   37   3.896   3.974  14.051
    1CHL1    H9   38   3.791   3.941  14.037
    1CHL1   C10   39   3.913   4.014  14.200
    1CHL1   C19   40   4.046   4.093  14.215
    1CHL1  H19A   41   4.046   4.186  14.155
    1CHL1  H19B   42   4.066   4.126  14.318
    1CHL1  H19C   43   4.132   4.031  14.184
    1CHL1    C1   44   3.792   4.103  14.243
    1CHL1   H1A   45   3.803   4.201  14.190
    1CHL1   H1B   46   3.699   4.055  14.205
    1CHL1    C2   47   3.772   4.130  14.394
    1CHL1   H2A   48   3.672   4.175  14.412
    1CHL1   H2B   49   3.849   4.200  14.431
    1CHL1   C20   50   3.999   3.911  13.504
    1CHL1   H20   51   4.109   3.884  13.507
    1CHL1   C21   52   3.989   4.059  13.476
    1CHL1  H21A   53   4.064   4.118  13.531
    1CHL1  H21B   54   3.886   4.086  13.505
    1CHL1  H21C   55   4.004   4.078  13.367
    1CHL1   C22   56   3.923   3.837  13.385
    1CHL1  H22A   57   3.908   3.731  13.414
    1CHL1  H22B   58   3.829   3.878  13.350
    1CHL1   C23   59   4.001   3.838  13.254
    1CHL1  H23A   60   4.024   3.935  13.207
    1CHL1  H23B   61   4.095   3.849  13.315
    1CHL1   C24   62   3.983   3.710  13.146
    1CHL1  H24A   63   3.974   3.620  13.206
    1CHL1  H24B   64   3.884   3.728  13.103
    1CHL1   C25   65   4.089   3.644  13.028
    1CHL1   H25   66   4.111   3.737  12.970
    1CHL1   C26   67   4.221   3.539  13.054
    1CHL1  H26A   68   4.266   3.537  12.960
    1CHL1  H26B   69   4.320   3.587  13.068
    1CHL1  H26C   70   4.291   3.531  13.135
    1CHL1   C27   71   4.042   3.543  12.934
    1CHL1  H27A   72   3.955   3.579  12.882
    1CHL1  H27B   73   4.123   3.518  12.859
    1CHL1  H27C   74   4.030   3.458  13.006
    2CHL1    C3   75   3.389   3.368  14.476
    2CHL1    H3   76   3.316   3.452  14.467
    2CHL1    O3   77   3.421   3.351  14.614
    2CHL1   H3'   78   3.368   3.279  14.650
    2CHL1    C4   79   3.326   3.241  14.415
    2CHL1   H4A   80   3.393   3.155  14.429
    2CHL1   H4B   81   3.234   3.219  14.475
    2CHL1    C5   82   3.299   3.258  14.267
    2CHL1    C6   83   3.178   3.233  14.214
    2CHL1    H6   84   3.099   3.192  14.278
    2CHL1    C7   85   3.145   3.244  14.068
    2CHL1   H7A   86   3.092   3.154  14.031
    2CHL1   H7B   87   3.079   3.331  14.051
    2CHL1    C8   88   3.274   3.255  13.984
    2CHL1    H8   89   3.321   3.154  13.982
    2CHL1   C14   90   3.237   3.293  13.845
    2CHL1   H14   91   3.184   3.393  13.849
    2CHL1   C15   92   3.141   3.198  13.778
    2CHL1  H15A   93   3.162   3.090  13.785
    2CHL1  H15B   94   3.035   3.213  13.807
    2CHL1   C16   95   3.171   3.246  13.641
    2CHL1  H16A   96   3.156   3.170  13.562
    2CHL1  H16B   97   3.101   3.328  13.641
    2CHL1   C17   98   3.286   3.347  13.621
    2CHL1   H17   99   3.247   3.452  13.630
    2CHL1   C13  100   3.355   3.312  13.749
    2CHL1   C18  101   3.423   3.176  13.719
    2CHL1  H18A  102   3.496   3.185  13.637
    2CHL1  H18B  103   3.477   3.138  13.807
    2CHL1  H18C  104   3.351   3.098  13.686
    2CHL1   C12  105   3.444   3.421  13.804
    2CHL1  H12A  106   3.532   3.436  13.739
    2CHL1  H12B  107   3.386   3.516  13.811
    2CHL1   C11  108   3.491   3.383  13.943
    2CHL1  H11A  109   3.555   3.293  13.933
    2CHL1  H11B  110   3.553   3.468  13.977
    2CHL1    C9  111   3.374   3.354  14.042
    2CHL1    H9  112   3.318   3.451  14.051
    2CHL1   C10  113   3.418   3.312  14.184
    2CHL1   C19  114   3.528   3.203  14.173
    2CHL1  H19A  115   3.552   3.155  14.270
    2CHL1  H19B  116   3.501   3.124  14.100
    2CHL1  H19C  117   3.622   3.252  14.139
    2CHL1    C1  118   3.480   3.436  14.253
    2CHL1   H1A  119   3.569   3.469  14.196
    2CHL1   H1B  120   3.406   3.519  14.249
    2CHL1    C2  121   3.516   3.407  14.400
    2CHL1   H2A  122   3.561   3.495  14.449
    2CHL1   H2B  123   3.588   3.323  14.407
    2CHL1   C20  124   3.361   3.337  13.485
    2CHL1   H20  125   3.379   3.229  13.465
    2CHL1   C21  126   3.491   3.413  13.486
    2CHL1  H21A  127   3.470   3.515  13.524
    2CHL1  H21B  128   3.537   3.419  13.385
    2CHL1  H21C  129   3.561   3.359  13.551
    2CHL1   C22  130   3.281   3.390  13.365
    2CHL1  H22A  131   3.218   3.305  13.376
    2CHL1  H22B  132   3.232   3.487  13.385
    2CHL1   C23  133   3.332   3.363  13.222
    2CHL1  H23A  134   3.417   3.430  13.203
    2CHL1  H23B  135   3.360   3.255  13.216
    2CHL1   C24  136   3.238   3.390  13.103
    2CHL1  H24A  137   3.168   3.308  13.102
    2CHL1  H24B  138   3.180   3.484  13.116
    2CHL1   C25  139   3.309   3.391  12.966
    2CHL1   H25  140   3.380   3.476  12.972
    2CHL1   C26  141   3.387   3.265  12.931
    2CHL1  H26A  142   3.438   3.281  12.834
    2CHL1  H26B  143   3.464   3.244  13.008
    2CHL1  H26C  144   3.319   3.177  12.920
    2CHL1   C27  145   3.214   3.418  12.852
    2CHL1  H27A  146   3.141   3.488  12.891
    2CHL1  H27B  147   3.260   3.458  12.761
    2CHL1  H27C  148   3.156   3.329  12.822
    3CHL1    C3  149   3.030   4.044  14.488
    3CHL1    H3  150   3.138   4.035  14.513
    3CHL1    O3  151   2.962   4.079  14.607
    3CHL1   H3'  152   2.979   4.005  14.669
    3CHL1    C4  153   3.006   4.156  14.385
    3CHL1   H4A  154   2.900   4.185  14.393
    3CHL1   H4B  155   3.065   4.244  14.418
    3CHL1    C5  156   3.037   4.121  14.241
    3CHL1    C6  157   3.113   4.202  14.167
    3CHL1    H6  158   3.154   4.293  14.212
    3CHL1    C7  159   3.139   4.181  14.020
    3CHL1   H7A  160   3.117   4.275  13.966
    3CHL1   H7B  161   3.247   4.161  14.005
    3CHL1    C8  162   3.049   4.067  13.964
    3CHL1    H8  163   2.944   4.103  13.960
    3CHL1   C14  164   3.094   4.019  13.828
    3CHL1   H14  165   3.195   3.976  13.846
    3CHL1   C15  166   3.117   4.121  13.715
    3CHL1  H15A  167   3.037   4.198  13.706
    3CHL1  H15B  168   3.215   4.169  13.733
    3CHL1   C16  169   3.120   4.035  13.589
    3CHL1  H16A  170   3.046   4.067  13.514
    3CHL1  H16B  171   3.221   4.044  13.544
    3CHL1   C17  172   3.083   3.890  13.635
    3CHL1   H17  173   3.178   3.833  13.655
    3CHL1   C13  174   3.013   3.905  13.767
    3CHL1   C18  175   2.866   3.947  13.745
    3CHL1  H18A  176   2.857   4.043  13.691
    3CHL1  H18B  177   2.814   3.870  13.686
    3CHL1  H18C  178   2.811   3.956  13.841
    3CHL1   C12  179   3.031   3.783  13.856
    3CHL1  H12A  180   2.969   3.697  13.822
    3CHL1  H12B  181   3.138   3.752  13.857
    3CHL1   C11  182   2.991   3.817  13.998
    3CHL1  H11A  183   2.880   3.823  13.996
    3CHL1  H11B  184   3.022   3.730  14.058
    3CHL1    C9  185   3.050   3.947  14.058
    3CHL1    H9  186   3.158   3.927  14.079
    3CHL1   C10  187   2.984   3.985  14.192
    3CHL1   C19  188   2.829   3.984  14.183
    3CHL1  H19A  189   2.786   4.039  14.269
    3CHL1  H19B  190   2.787   4.025  14.089
    3CHL1  H19C  191   2.790   3.882  14.193
    3CHL1    C1  192   3.031   3.882  14.297
    3CHL1   H1A  193   3.002   3.780  14.266
    3CHL1   H1B  194   3.142   3.883  14.295
    3CHL1    C2  195   2.977   3.910  14.438
    3CHL1   H2A  196   3.006   3.828  14.507
    3CHL1   H2B  197   2.866   3.911  14.435
    3CHL1   C20  198   3.018   3.813  13.524
    3CHL1   H20  199   2.933   3.869  13.479
    3CHL1   C21  200   2.963   3.674  13.563
    3CHL1  H21A  201   2.934   3.619  13.473
    3CHL1  H21B  202   2.869   3.682  13.621
    3CHL1  H21C  203   3.038   3.614  13.619
    3CHL1   C22  204   3.133   3.806  13.426
    3CHL1  H22A  205   3.196   3.894  13.405
    3CHL1  H22B  206   3.193   3.712  13.444
    3CHL1   C23  207   3.080   3.800  13.291
    3CHL1  H23A  208   3.167   3.757  13.236
    3CHL1  H23B  209   3.027   3.708  13.313
    3CHL1   C24  210   2.991   3.922  13.231
    3CHL1  H24A  211   2.902   3.944  13.289
    3CHL1  H24B  212   3.066   4.005  13.220
    3CHL1   C25  213   2.925   3.921  13.086
    3CHL1   H25  214   3.023   3.898  13.037
    3CHL1   C26  215   2.791   3.866  13.032
    3CHL1  H26A  216   2.709   3.878  13.102
    3CHL1  H26B  217   2.748   3.813  12.944
    3CHL1  H26C  218   2.810   3.766  13.006
    3CHL1   C27  219   2.843   4.016  13.028
    3CHL1  H27A  220   2.936   4.047  13.034
    3CHL1  H27B  221   2.850   4.025  12.924
    3CHL1  H27C  222   2.772   4.080  13.075
    4CHL1    C3  223   3.342   4.736  14.482
    4CHL1    H3  224   3.280   4.829  14.475
    4CHL1    O3  225   3.390   4.720  14.615
    4CHL1   H3'  226   3.385   4.625  14.626
    4CHL1    C4  227   3.264   4.609  14.442
    4CHL1   H4A  228   3.326   4.521  14.469
    4CHL1   H4B  229   3.174   4.603  14.509
    4CHL1    C5  230   3.229   4.604  14.294
    4CHL1    C6  231   3.101   4.586  14.261
    4CHL1    H6  232   3.030   4.565  14.342
    4CHL1    C7  233   3.047   4.581  14.120
    4CHL1   H7A  234   2.981   4.493  14.109
    4CHL1   H7B  235   2.983   4.670  14.100
    4CHL1    C8  236   3.163   4.576  14.016
    4CHL1    H8  237   3.197   4.470  14.011
    4CHL1   C14  238   3.110   4.612  13.881
    4CHL1   H14  239   3.065   4.715  13.887
    4CHL1   C15  240   3.001   4.520  13.833
    4CHL1  H15A  241   3.021   4.412  13.836
    4CHL1  H15B  242   2.898   4.540  13.874
    4CHL1   C16  243   3.010   4.564  13.691
    4CHL1  H16A  244   2.985   4.478  13.625
    4CHL1  H16B  245   2.942   4.650  13.706
    4CHL1   C17  246   3.124   4.654  13.647
    4CHL1   H17  247   3.092   4.762  13.657
    4CHL1   C13  248   3.212   4.620  13.764
    4CHL1   C18  249   3.270   4.481  13.729
    4CHL1  H18A  250   3.346   4.500  13.651
    4CHL1  H18B  251   3.315   4.433  13.817
    4CHL1  H18C  252   3.198   4.409  13.684
    4CHL1   C12  253   3.320   4.721  13.799
    4CHL1  H12A  254   3.395   4.724  13.718
    4CHL1  H12B  255   3.272   4.821  13.808
    4CHL1   C11  256   3.384   4.683  13.933
    4CHL1  H11A  257   3.439   4.588  13.915
    4CHL1  H11B  258   3.460   4.759  13.960
    4CHL1    C9  259   3.280   4.668  14.049
    4CHL1    H9  260   3.233   4.770  14.056
    4CHL1   C10  261   3.338   4.636  14.190
    4CHL1   C19  262   3.432   4.513  14.174
    4CHL1  H19A  263   3.513   4.537  14.102
    4CHL1  H19B  264   3.481   4.487  14.269
    4CHL1  H19C  265   3.379   4.422  14.138
    4CHL1    C1  266   3.420   4.758  14.241
    4CHL1   H1A  267   3.510   4.764  14.176
    4CHL1   H1B  268   3.361   4.850  14.226
    4CHL1    C2  269   3.463   4.748  14.390
    4CHL1   H2A  270   3.521   4.836  14.424
    4CHL1   H2B  271   3.525   4.657  14.404
    4CHL1   C20  272   3.165   4.634  13.498
    4CHL1   H20  273   3.205   4.532  13.484
    4CHL1   C21  274   3.269   4.741  13.463
    4CHL1  H21A  275   3.238   4.840  13.501
    4CHL1  H21B  276   3.281   4.750  13.354
    4CHL1  H21C  277   3.367   4.712  13.505
    4CHL1   C22  278   3.054   4.641  13.391
    4CHL1  H22A  279   2.984   4.555  13.399
    4CHL1  H22B  280   3.004   4.737  13.412
    4CHL1   C23  281   3.101   4.640  13.244
    4CHL1  H23A  282   3.139   4.742  13.215
    4CHL1  H23B  283   3.171   4.557  13.228
    4CHL1   C24  284   2.996   4.615  13.138
    4CHL1  H24A  285   2.928   4.532  13.168
    4CHL1  H24B  286   2.952   4.712  13.159
    4CHL1   C25  287   3.032   4.636  12.987
    4CHL1   H25  288   3.076   4.737  12.976
    4CHL1   C26  289   3.097   4.520  12.940
    4CHL1  H26A  290   3.123   4.530  12.832
    4CHL1  H26B  291   3.175   4.495  13.012
    4CHL1  H26C  292   3.010   4.450  12.947
    4CHL1   C27  293   2.932   4.621  12.873
    4CHL1  H27A  294   2.906   4.723  12.883
    4CHL1  H27B  295   2.937   4.634  12.765
    4CHL1  H27C  296   2.850   4.548  12.898
    5CHL1    C3  297   4.171   4.697  14.484
    5CHL1    H3  298   4.073   4.650  14.455
    5CHL1    O3  299   4.198   4.688  14.623
    5CHL1   H3'  300   4.276   4.748  14.626
    5CHL1    C4  301   4.286   4.651  14.393
    5CHL1   H4A  302   4.373   4.710  14.428
    5CHL1   H4B  303   4.297   4.544  14.417
    5CHL1    C5  304   4.267   4.675  14.243
    5CHL1    C6  305   4.253   4.579  14.155
    5CHL1    H6  306   4.285   4.478  14.185
    5CHL1    C7  307   4.237   4.608  14.009
    5CHL1   H7A  308   4.329   4.571  13.968
    5CHL1   H7B  309   4.149   4.555  13.968
    5CHL1    C8  310   4.246   4.753  13.958
    5CHL1    H8  311   4.353   4.784  13.955
    5CHL1   C14  312   4.181   4.770  13.822
    5CHL1   H14  313   4.074   4.738  13.832
    5CHL1   C15  314   4.243   4.685  13.714
    5CHL1  H15A  315   4.351   4.685  13.739
    5CHL1  H15B  316   4.198   4.585  13.718
    5CHL1   C16  317   4.217   4.759  13.583
    5CHL1  H16A  318   4.314   4.791  13.539
    5CHL1  H16B  319   4.161   4.699  13.509
    5CHL1   C17  320   4.139   4.887  13.621
    5CHL1   H17  321   4.031   4.860  13.620
    5CHL1   C13  322   4.182   4.912  13.766
    5CHL1   C18  323   4.325   4.974  13.769
    5CHL1  H18A  324   4.369   4.975  13.870
    5CHL1  H18B  325   4.395   4.919  13.706
    5CHL1  H18C  326   4.321   5.080  13.736
    5CHL1   C12  327   4.091   4.989  13.856
    5CHL1  H12A  328   4.076   5.096  13.831
    5CHL1  H12B  329   3.991   4.941  13.850
    5CHL1   C11  330   4.162   4.981  13.993
    5CHL1  H11A  331   4.250   5.044  14.003
    5CHL1  H11B  332   4.113   5.050  14.054
    5CHL1    C9  333   4.176   4.837  14.055
    5CHL1    H9  334   4.072   4.794  14.057
    5CHL1   C10  335   4.246   4.817  14.197
    5CHL1   C19  336   4.364   4.914  14.203
    5CHL1  H19A  337   4.331   5.021  14.207
    5CHL1  H19B  338   4.421   4.895  14.296
    5CHL1  H19C  339   4.427   4.901  14.113
    5CHL1    C1  340   4.157   4.849  14.311
    5CHL1   H1A  341   4.164   4.957  14.291
    5CHL1   H1B  342   4.061   4.794  14.294
    5CHL1    C2  343   4.166   4.839  14.460
    5CHL1   H2A  344   4.072   4.869  14.514
    5CHL1   H2B  345   4.246   4.910  14.488
    5CHL1   C20  346   4.171   4.999  13.524
    5CHL1   H20  347   4.280   5.016  13.523
    5CHL1   C21  348   4.114   5.129  13.576
    5CHL1  H21A  349   4.163   5.183  13.657
    5CHL1  H21B  350   4.015   5.105  13.618
    5CHL1  H21C  351   4.109   5.194  13.487
    5CHL1   C22  352   4.130   4.971  13.376
    5CHL1  H22A  353   4.159   4.867  13.352
    5CHL1  H22B  354   4.021   4.971  13.357
    5CHL1   C23  355   4.202   5.066  13.278
    5CHL1  H23A  356   4.152   5.158  13.248
    5CHL1  H23B  357   4.293   5.106  13.326
    5CHL1   C24  358   4.229   4.998  13.145
    5CHL1  H24A  359   4.140   4.938  13.115
    5CHL1  H24B  360   4.249   5.072  13.065
    5CHL1   C25  361   4.351   4.913  13.155
    5CHL1   H25  362   4.339   4.833  13.234
    5CHL1   C26  363   4.362   4.847  13.026
    5CHL1  H26A  364   4.462   4.798  13.045
    5CHL1  H26B  365   4.278   4.774  13.013
    5CHL1  H26C  366   4.380   4.896  12.930
    5CHL1   C27  367   4.484   4.986  13.172
    5CHL1  H27A  368   4.569   4.915  13.169
    5CHL1  H27B  369   4.499   5.061  13.091
    5CHL1  H27C  370   4.485   5.037  13.269
    6CHL1    C3  371   3.007   2.696  14.474
    6CHL1    H3  372   3.058   2.793  14.452
    6CHL1    O3  373   3.017   2.672  14.613
    6CHL1   H3'  374   2.959   2.595  14.630
    6CHL1    C4  375   2.859   2.703  14.436
    6CHL1   H4A  376   2.811   2.604  14.451
    6CHL1   H4B  377   2.810   2.774  14.505
    6CHL1    C5  378   2.844   2.744  14.292
    6CHL1    C6  379   2.779   2.855  14.259
    6CHL1    H6  380   2.725   2.914  14.335
    6CHL1    C7  381   2.772   2.901  14.117
    6CHL1   H7A  382   2.670   2.925  14.091
    6CHL1   H7B  383   2.834   2.993  14.103
    6CHL1    C8  384   2.805   2.791  14.015
    6CHL1    H8  385   2.716   2.723  14.011
    6CHL1   C14  386   2.833   2.852  13.882
    6CHL1   H14  387   2.917   2.926  13.894
    6CHL1   C15  388   2.729   2.937  13.832
    6CHL1  H15A  389   2.632   2.885  13.845
    6CHL1  H15B  390   2.735   3.031  13.888
    6CHL1   C16  391   2.765   2.957  13.688
    6CHL1  H16A  392   2.679   2.934  13.626
    6CHL1  H16B  393   2.797   3.061  13.674
    6CHL1   C17  394   2.873   2.862  13.652
    6CHL1   H17  395   2.963   2.926  13.663
    6CHL1   C13  396   2.863   2.763  13.765
    6CHL1   C18  397   2.746   2.667  13.728
    6CHL1  H18A  398   2.716   2.601  13.812
    6CHL1  H18B  399   2.654   2.720  13.692
    6CHL1  H18C  400   2.780   2.603  13.644
    6CHL1   C12  401   2.993   2.698  13.801
    6CHL1  H12A  402   3.018   2.627  13.721
    6CHL1  H12B  403   3.071   2.777  13.803
    6CHL1   C11  404   2.977   2.627  13.936
    6CHL1  H11A  405   2.900   2.549  13.919
    6CHL1  H11B  406   3.070   2.576  13.964
    6CHL1    C9  407   2.930   2.720  14.052
    6CHL1    H9  408   3.005   2.804  14.060
    6CHL1   C10  409   2.921   2.654  14.192
    6CHL1   C19  410   2.838   2.524  14.180
    6CHL1  H19A  411   2.826   2.474  14.278
    6CHL1  H19B  412   2.737   2.546  14.139
    6CHL1  H19C  413   2.889   2.452  14.113
    6CHL1    C1  414   3.064   2.620  14.242
    6CHL1   H1A  415   3.105   2.536  14.183
    6CHL1   H1B  416   3.125   2.711  14.223
    6CHL1    C2  417   3.073   2.585  14.392
    6CHL1   H2A  418   3.179   2.568  14.425
    6CHL1   H2B  419   3.017   2.492  14.412
    6CHL1   C20  420   2.862   2.810  13.511
    6CHL1   H20  421   2.769   2.751  13.490
    6CHL1   C21  422   2.986   2.727  13.478
    6CHL1  H21A  423   3.009   2.722  13.370
    6CHL1  H21B  424   2.967   2.624  13.512
    6CHL1  H21C  425   3.073   2.770  13.531
    6CHL1   C22  426   2.852   2.921  13.416
    6CHL1  H22A  427   2.768   2.985  13.433
    6CHL1  H22B  428   2.941   2.988  13.417
    6CHL1   C23  429   2.820   2.867  13.285
    6CHL1  H23A  430   2.879   2.783  13.243
    6CHL1  H23B  431   2.710   2.857  13.255
    6CHL1   C24  432   2.872   2.978  13.217
    6CHL1  H24A  433   2.791   3.052  13.243
    6CHL1  H24B  434   2.972   3.025  13.222
    6CHL1   C25  435   2.857   2.919  13.093
    6CHL1   H25  436   2.744   2.943  13.095
    6CHL1   C26  437   2.902   3.010  13.030
    6CHL1  H26A  438   2.993   3.032  12.974
    6CHL1  H26B  439   2.891   2.988  12.927
    6CHL1  H26C  440   2.826   3.088  13.035
    6CHL1   C27  441   2.959   2.836  13.008
    6CHL1  H27A  442   2.966   2.846  12.892
    6CHL1  H27B  443   3.063   2.877  13.027
    6CHL1  H27C  444   2.919   2.740  13.014
    7CHL1    C3  445   4.575   2.672  14.488
    7CHL1    H3  446   4.527   2.771  14.503
    7CHL1    O3  447   4.634   2.624  14.609
    7CHL1   H3'  448   4.708   2.684  14.628
    7CHL1    C4  449   4.472   2.569  14.442
    7CHL1   H4A  450   4.515   2.467  14.437
    7CHL1   H4B  451   4.394   2.565  14.522
    7CHL1    C5  452   4.416   2.609  14.309
    7CHL1    C6  453   4.287   2.632  14.295
    7CHL1    H6  454   4.219   2.611  14.379
    7CHL1    C7  455   4.231   2.666  14.162
    7CHL1   H7A  456   4.143   2.601  14.160
    7CHL1   H7B  457   4.206   2.774  14.156
    7CHL1    C8  458   4.314   2.632  14.038
    7CHL1    H8  459   4.313   2.521  14.030
    7CHL1   C14  460   4.268   2.700  13.908
    7CHL1   H14  461   4.262   2.810  13.919
    7CHL1   C15  462   4.138   2.665  13.852
    7CHL1  H15A  463   4.138   2.564  13.896
    7CHL1  H15B  464   4.038   2.705  13.852
    7CHL1   C16  465   4.123   2.712  13.713
    7CHL1  H16A  466   4.049   2.655  13.652
    7CHL1  H16B  467   4.081   2.817  13.713
    7CHL1   C17  468   4.270   2.721  13.677
    7CHL1   H17  469   4.287   2.831  13.680
    7CHL1   C13  470   4.349   2.659  13.787
    7CHL1   C18  471   4.349   2.504  13.763
    7CHL1  H18A  472   4.248   2.465  13.738
    7CHL1  H18B  473   4.414   2.475  13.678
    7CHL1  H18C  474   4.383   2.449  13.852
    7CHL1   C12  475   4.480   2.728  13.809
    7CHL1  H12A  476   4.546   2.721  13.720
    7CHL1  H12B  477   4.461   2.836  13.828
    7CHL1   C11  478   4.541   2.669  13.935
    7CHL1  H11A  479   4.563   2.562  13.915
    7CHL1  H11B  480   4.632   2.727  13.950
    7CHL1    C9  481   4.453   2.683  14.062
    7CHL1    H9  482   4.439   2.793  14.080
    7CHL1   C10  483   4.514   2.627  14.193
    7CHL1   C19  484   4.571   2.486  14.163
    7CHL1  H19A  485   4.614   2.438  14.254
    7CHL1  H19B  486   4.490   2.421  14.125
    7CHL1  H19C  487   4.652   2.485  14.087
    7CHL1    C1  488   4.618   2.730  14.243
    7CHL1   H1A  489   4.688   2.734  14.158
    7CHL1   H1B  490   4.578   2.833  14.251
    7CHL1    C2  491   4.679   2.692  14.379
    7CHL1   H2A  492   4.758   2.763  14.412
    7CHL1   H2B  493   4.718   2.590  14.368
    7CHL1   C20  494   4.291   2.674  13.541
    7CHL1   H20  495   4.250   2.570  13.526
    7CHL1   C21  496   4.427   2.682  13.478
    7CHL1  H21A  497   4.471   2.781  13.502
    7CHL1  H21B  498   4.420   2.674  13.367
    7CHL1  H21C  499   4.484   2.597  13.518
    7CHL1   C22  500   4.214   2.773  13.468
    7CHL1  H22A  501   4.124   2.817  13.516
    7CHL1  H22B  502   4.260   2.864  13.422
    7CHL1   C23  503   4.157   2.668  13.362
    7CHL1  H23A  504   4.228   2.636  13.282
    7CHL1  H23B  505   4.110   2.585  13.415
    7CHL1   C24  506   4.003   2.675  13.329
    7CHL1  H24A  507   3.964   2.763  13.396
    7CHL1  H24B  508   4.086   2.749  13.333
    7CHL1   C25  509   3.943   2.633  13.155
    7CHL1   H25  510   3.862   2.561  13.160
    7CHL1   C26  511   3.848   2.734  13.050
    7CHL1  H26A  512   3.944   2.738  13.013
    7CHL1  H26B  513   3.822   2.730  12.939
    7CHL1  H26C  514   3.828   2.844  13.056
    7CHL1   C27  515   4.068   2.582  13.051
    7CHL1  H27A  516   4.054   2.551  12.943
    7CHL1  H27B  517   4.152   2.654  13.030
    7CHL1  H27C  518   4.121   2.496  13.087
    8CHL1    C3  519   2.252   2.760  14.484
    8CHL1    H3  520   2.355   2.719  14.488
    8CHL1    O3  521   2.185   2.727  14.605
    8CHL1   H3'  522   2.106   2.783  14.603
    8CHL1    C4  523   2.254   2.912  14.475
    8CHL1   H4A  524   2.151   2.953  14.485
    8CHL1   H4B  525   2.309   2.951  14.563
    8CHL1    C5  526   2.318   2.954  14.345
    8CHL1    C6  527   2.427   3.032  14.345
    8CHL1    H6  528   2.471   3.068  14.439
    8CHL1    C7  529   2.489   3.087  14.222
    8CHL1   H7A  530   2.515   3.194  14.233
    8CHL1   H7B  531   2.586   3.040  14.210
    8CHL1    C8  532   2.396   3.062  14.099
    8CHL1    H8  533   2.318   3.139  14.102
    8CHL1   C14  534   2.468   3.070  13.971
    8CHL1   H14  535   2.537   2.987  13.976
    8CHL1   C15  536   2.557   3.184  13.953
    8CHL1  H15A  537   2.516   3.278  13.984
    8CHL1  H15B  538   2.660   3.175  13.997
    8CHL1   C16  539   2.555   3.196  13.803
    8CHL1  H16A  540   2.547   3.297  13.763
    8CHL1  H16B  541   2.647   3.153  13.771
    8CHL1   C17  542   2.482   3.086  13.737
    8CHL1   H17  543   2.534   2.996  13.736
    8CHL1   C13  544   2.387   3.053  13.842
    8CHL1   C18  545   2.283   3.157  13.828
    8CHL1  H18A  546   2.209   3.148  13.907
    8CHL1  H18B  547   2.323   3.255  13.847
    8CHL1  H18C  548   2.239   3.153  13.727
    8CHL1   C12  549   2.331   2.917  13.832
    8CHL1  H12A  550   2.268   2.918  13.742
    8CHL1  H12B  551   2.415   2.845  13.819
    8CHL1   C11  552   2.250   2.898  13.959
    8CHL1  H11A  553   2.161   2.963  13.952
    8CHL1  H11B  554   2.214   2.795  13.959
    8CHL1    C9  555   2.330   2.926  14.092
    8CHL1    H9  556   2.416   2.854  14.086
    8CHL1   C10  557   2.250   2.897  14.219
    8CHL1   C19  558   2.112   2.966  14.208
    8CHL1  H19A  559   2.044   2.911  14.139
    8CHL1  H19B  560   2.058   2.969  14.304
    8CHL1  H19C  561   2.122   3.070  14.172
    8CHL1    C1  562   2.235   2.743  14.231
    8CHL1   H1A  563   2.171   2.707  14.147
    8CHL1   H1B  564   2.335   2.695  14.220
    8CHL1    C2  565   2.176   2.699  14.365
    8CHL1   H2A  566   2.176   2.589  14.373
    8CHL1   H2B  567   2.071   2.737  14.370
    8CHL1   C20  568   2.478   3.081  13.588
    8CHL1   H20  569   2.381   3.134  13.586
    8CHL1   C21  570   2.456   2.950  13.515
    8CHL1  H21A  571   2.427   2.970  13.410
    8CHL1  H21B  572   2.383   2.890  13.568
    8CHL1  H21C  573   2.550   2.895  13.502
    8CHL1   C22  574   2.601   3.143  13.512
    8CHL1  H22A  575   2.611   3.242  13.560
    8CHL1  H22B  576   2.700   3.115  13.532
    8CHL1   C23  577   2.606   3.133  13.351
    8CHL1  H23A  578   2.603   3.037  13.302
    8CHL1  H23B  579   2.509   3.138  13.330
    8CHL1   C24  580   2.660   3.254  13.265
    8CHL1  H24A  581   2.637   3.352  13.301
    8CHL1  H24B  582   2.744   3.245  13.328
    8CHL1   C25  583   2.674   3.260  13.100
    8CHL1   H25  584   2.690   3.153  13.104
    8CHL1   C26  585   2.570   3.237  13.046
    8CHL1  H26A  586   2.586   3.239  12.938
    8CHL1  H26B  587   2.507   3.165  13.103
    8CHL1  H26C  588   2.530   3.334  13.048
    8CHL1   C27  589   2.748   3.376  12.977
    8CHL1  H27A  590   2.731   3.366  12.876
    8CHL1  H27B  591   2.768   3.486  12.972
    8CHL1  H27C  592   2.847   3.413  13.007
    9CHL1    C3  593   5.404   4.016  14.487
    9CHL1    H3  594   5.366   4.118  14.472
    9CHL1    O3  595   5.414   3.977  14.623
    9CHL1   H3'  596   5.322   3.953  14.641
    9CHL1    C4  597   5.309   3.916  14.420
    9CHL1   H4A  598   5.352   3.819  14.452
    9CHL1   H4B  599   5.206   3.927  14.459
    9CHL1    C5  600   5.301   3.915  14.271
    9CHL1    C6  601   5.194   3.888  14.198
    9CHL1    H6  602   5.103   3.864  14.251
    9CHL1    C7  603   5.195   3.862  14.050
    9CHL1   H7A  604   5.126   3.785  14.014
    9CHL1   H7B  605   5.170   3.955  14.000
    9CHL1    C8  606   5.325   3.815  13.989
    9CHL1    H8  607   5.323   3.704  13.995
    9CHL1   C14  608   5.330   3.847  13.843
    9CHL1   H14  609   5.310   3.956  13.837
    9CHL1   C15  610   5.219   3.791  13.767
    9CHL1  H15A  611   5.216   3.689  13.804
    9CHL1  H15B  612   5.128   3.850  13.779
    9CHL1   C16  613   5.263   3.783  13.627
    9CHL1  H16A  614   5.269   3.673  13.621
    9CHL1  H16B  615   5.187   3.815  13.555
    9CHL1   C17  616   5.396   3.861  13.626
    9CHL1   H17  617   5.376   3.968  13.620
    9CHL1   C13  618   5.452   3.831  13.758
    9CHL1   C18  619   5.495   3.690  13.737
    9CHL1  H18A  620   5.579   3.656  13.676
    9CHL1  H18B  621   5.572   3.701  13.807
    9CHL1  H18C  622   5.422   3.607  13.751
    9CHL1   C12  623   5.552   3.925  13.821
    9CHL1  H12A  624   5.652   3.917  13.774
    9CHL1  H12B  625   5.517   4.028  13.805
    9CHL1   C11  626   5.552   3.901  13.973
    9CHL1  H11A  627   5.640   3.840  14.002
    9CHL1  H11B  628   5.573   3.996  14.022
    9CHL1    C9  629   5.425   3.905  14.053
    9CHL1    H9  630   5.384   4.007  14.029
    9CHL1   C10  631   5.431   3.924  14.208
    9CHL1   C19  632   5.495   3.810  14.255
    9CHL1  H19A  633   5.581   3.797  14.187
    9CHL1  H19B  634   5.534   3.798  14.353
    9CHL1  H19C  635   5.424   3.726  14.258
    9CHL1    C1  636   5.525   4.024  14.275
    9CHL1   H1A  637   5.623   3.994  14.244
    9CHL1   H1B  638   5.503   4.123  14.239
    9CHL1    C2  639   5.541   4.012  14.428
    9CHL1   H2A  640   5.610   4.090  14.462
    9CHL1   H2B  641   5.592   3.920  14.468
    9CHL1   C20  642   5.479   3.837  13.507
    9CHL1   H20  643   5.508   3.731  13.512
    9CHL1   C21  644   5.620   3.883  13.512
    9CHL1  H21A  645   5.664   3.798  13.570
    9CHL1  H21B  646   5.640   3.979  13.559
    9CHL1  H21C  647   5.661   3.885  13.411
    9CHL1   C22  648   5.395   3.885  13.382
    9CHL1  H22A  649   5.287   3.871  13.398
    9CHL1  H22B  650   5.436   3.982  13.355
    9CHL1   C23  651   5.397   3.800  13.257
    9CHL1  H23A  652   5.496   3.784  13.297
    9CHL1  H23B  653   5.332   3.714  13.268
    9CHL1   C24  654   5.370   3.815  13.099
    9CHL1  H24A  655   5.275   3.750  13.098
    9CHL1  H24B  656   5.339   3.917  13.112
    9CHL1   C25  657   5.461   3.767  12.958
    9CHL1   H25  658   5.520   3.678  12.984
    9CHL1   C26  659   5.375   3.786  12.837
    9CHL1  H26A  660   5.272   3.751  12.853
    9CHL1  H26B  661   5.369   3.894  12.823
    9CHL1  H26C  662   5.424   3.730  12.752
    9CHL1   C27  663   5.598   3.782  12.872
    9CHL1  H27A  664   5.577   3.882  12.842
    9CHL1  H27B  665   5.697   3.780  12.916
    9CHL1  H27C  666   5.633   3.722  12.788
   10CHL1    C3  667   4.578   5.387  14.487
   10CHL1    H3  668   4.613   5.288  14.453
   10CHL1    O3  669   4.511   5.370  14.610
   10CHL1   H3'  670   4.577   5.330  14.670
   10CHL1    C4  671   4.697   5.478  14.509
   10CHL1   H4A  672   4.670   5.568  14.567
   10CHL1   H4B  673   4.770   5.420  14.573
   10CHL1    C5  674   4.754   5.534  14.381
   10CHL1    C6  675   4.879   5.539  14.365
   10CHL1    H6  676   4.924   5.469  14.439
   10CHL1    C7  677   4.949   5.587  14.236
   10CHL1   H7A  678   5.052   5.612  14.239
   10CHL1   H7B  679   4.966   5.516  14.155
   10CHL1    C8  680   4.876   5.655  14.133
   10CHL1    H8  681   4.877   5.754  14.178
   10CHL1   C14  682   4.949   5.663  13.999
   10CHL1   H14  683   4.915   5.582  13.947
   10CHL1   C15  684   5.103   5.656  13.979
   10CHL1  H15A  685   5.128   5.724  14.059
   10CHL1  H15B  686   5.173   5.569  13.995
   10CHL1   C16  687   5.103   5.694  13.831
   10CHL1  H16A  688   5.126   5.797  13.821
   10CHL1  H16B  689   5.172   5.640  13.765
   10CHL1   C17  690   4.959   5.701  13.769
   10CHL1   H17  691   4.920   5.610  13.721
   10CHL1   C13  692   4.877   5.734  13.890
   10CHL1   C18  693   4.893   5.875  13.934
   10CHL1  H18A  694   4.849   5.937  13.856
   10CHL1  H18B  695   4.844   5.885  14.032
   10CHL1  H18C  696   4.999   5.896  13.953
   10CHL1   C12  697   4.732   5.682  13.884
   10CHL1  H12A  698   4.678   5.757  13.824
   10CHL1  H12B  699   4.728   5.582  13.834
   10CHL1   C11  700   4.666   5.674  14.022
   10CHL1  H11A  701   4.672   5.775  14.066
   10CHL1  H11B  702   4.561   5.644  14.016
   10CHL1    C9  703   4.741   5.588  14.124
   10CHL1    H9  704   4.746   5.483  14.083
   10CHL1   C10  705   4.673   5.576  14.264
   10CHL1   C19  706   4.636   5.717  14.314
   10CHL1  H19A  707   4.723   5.786  14.307
   10CHL1  H19B  708   4.556   5.751  14.247
   10CHL1  H19C  709   4.601   5.721  14.419
   10CHL1    C1  710   4.558   5.475  14.250
   10CHL1   H1A  711   4.488   5.516  14.175
   10CHL1   H1B  712   4.598   5.378  14.211
   10CHL1    C2  713   4.484   5.445  14.381
   10CHL1   H2A  714   4.404   5.371  14.361
   10CHL1   H2B  715   4.438   5.539  14.418
   10CHL1   C20  716   4.958   5.773  13.641
   10CHL1   H20  717   5.005   5.869  13.671
   10CHL1   C21  718   4.829   5.809  13.580
   10CHL1  H21A  719   4.779   5.716  13.547
   10CHL1  H21B  720   4.857   5.872  13.492
   10CHL1  H21C  721   4.774   5.865  13.657
   10CHL1   C22  722   5.029   5.690  13.529
   10CHL1  H22A  723   5.040   5.770  13.455
   10CHL1  H22B  724   5.127   5.658  13.563
   10CHL1   C23  725   4.967   5.580  13.448
   10CHL1  H23A  726   4.939   5.502  13.520
   10CHL1  H23B  727   4.886   5.634  13.397
   10CHL1   C24  728   5.042   5.515  13.332
   10CHL1  H24A  729   5.127   5.460  13.371
   10CHL1  H24B  730   4.976   5.442  13.283
   10CHL1   C25  731   5.096   5.607  13.225
   10CHL1   H25  732   5.192   5.637  13.273
   10CHL1   C26  733   5.154   5.541  13.105
   10CHL1  H26A  734   5.221   5.489  13.174
   10CHL1  H26B  735   5.090   5.477  13.044
   10CHL1  H26C  736   5.235   5.583  13.043
   10CHL1   C27  737   5.008   5.716  13.172
   10CHL1  H27A  738   4.994   5.794  13.250
   10CHL1  H27B  739   5.051   5.762  13.082
   10CHL1  H27C  740   4.916   5.673  13.130
   11CHL1    C3  741   2.637   2.010  14.482
   11CHL1    H3  742   2.553   1.935  14.475
   11CHL1    O3  743   2.669   2.021  14.619
   11CHL1   H3'  744   2.582   2.023  14.660
   11CHL1    C4  745   2.758   1.958  14.402
   11CHL1   H4A  746   2.844   2.027  14.417
   11CHL1   H4B  747   2.789   1.861  14.446
   11CHL1    C5  748   2.725   1.945  14.254
   11CHL1    C6  749   2.743   1.828  14.190
   11CHL1    H6  750   2.796   1.744  14.239
   11CHL1    C7  751   2.698   1.808  14.048
   11CHL1   H7A  752   2.758   1.732  13.995
   11CHL1   H7B  753   2.592   1.772  14.053
   11CHL1    C8  754   2.692   1.942  13.971
   11CHL1    H8  755   2.793   1.987  13.965
   11CHL1   C14  756   2.647   1.923  13.828
   11CHL1   H14  757   2.548   1.873  13.833
   11CHL1   C15  758   2.736   1.836  13.740
   11CHL1  H15A  759   2.843   1.856  13.749
   11CHL1  H15B  760   2.732   1.728  13.765
   11CHL1   C16  761   2.687   1.882  13.601
   11CHL1  H16A  762   2.756   1.878  13.517
   11CHL1  H16B  763   2.606   1.822  13.573
   11CHL1   C17  764   2.592   2.002  13.611
   11CHL1   H17  765   2.490   1.970  13.622
   11CHL1   C13  766   2.628   2.053  13.747
   11CHL1   C18  767   2.759   2.129  13.722
   11CHL1  H18A  768   2.824   2.080  13.646
   11CHL1  H18B  769   2.730   2.228  13.683
   11CHL1  H18C  770   2.818   2.142  13.814
   11CHL1   C12  771   2.522   2.136  13.816
   11CHL1  H12A  772   2.499   2.226  13.759
   11CHL1  H12B  773   2.427   2.090  13.808
   11CHL1   C11  774   2.559   2.162  13.962
   11CHL1  H11A  775   2.647   2.229  13.952
   11CHL1  H11B  776   2.477   2.216  14.013
   11CHL1    C9  777   2.599   2.038  14.047
   11CHL1    H9  778   2.503   1.984  14.062
   11CHL1   C10  779   2.659   2.069  14.188
   11CHL1   C19  780   2.772   2.173  14.171
   11CHL1  H19A  781   2.817   2.199  14.269
   11CHL1  H19B  782   2.851   2.141  14.101
   11CHL1  H19C  783   2.728   2.268  14.134
   11CHL1    C1  784   2.553   2.132  14.282
   11CHL1   H1A  785   2.512   2.226  14.239
   11CHL1   H1B  786   2.474   2.061  14.291
   11CHL1    C2  787   2.585   2.145  14.431
   11CHL1   H2A  788   2.490   2.168  14.486
   11CHL1   H2B  789   2.654   2.229  14.447
   11CHL1   C20  790   2.584   2.081  13.481
   11CHL1   H20  791   2.690   2.102  13.456
   11CHL1   C21  792   2.501   2.207  13.498
   11CHL1  H21A  793   2.403   2.185  13.545
   11CHL1  H21B  794   2.485   2.250  13.397
   11CHL1  H21C  795   2.556   2.282  13.558
   11CHL1   C22  796   2.524   2.003  13.361
   11CHL1  H22A  797   2.565   1.905  13.366
   11CHL1  H22B  798   2.414   1.990  13.370
   11CHL1   C23  799   2.564   2.057  13.221
   11CHL1  H23A  800   2.505   2.148  13.203
   11CHL1  H23B  801   2.673   2.081  13.222
   11CHL1   C24  802   2.542   1.955  13.108
   11CHL1  H24A  803   2.612   1.871  13.121
   11CHL1  H24B  804   2.436   1.925  13.120
   11CHL1   C25  805   2.559   1.995  12.960
   11CHL1   H25  806   2.499   2.088  12.948
   11CHL1   C26  807   2.702   2.026  12.924
   11CHL1  H26A  808   2.768   1.937  12.938
   11CHL1  H26B  809   2.705   2.054  12.816
   11CHL1  H26C  810   2.736   2.108  12.989
   11CHL1   C27  811   2.511   1.889  12.859
   11CHL1  H27A  812   2.589   1.816  12.833
   11CHL1  H27B  813   2.422   1.837  12.899
   11CHL1  H27C  814   2.482   1.935  12.763
   12CHL1    C3  815   5.034   1.979  14.477
   12CHL1    H3  816   4.992   2.078  14.460
   12CHL1    O3  817   5.031   1.958  14.617
   12CHL1   H3'  818   5.055   2.040  14.660
   12CHL1    C4  819   4.933   1.892  14.402
   12CHL1   H4A  820   4.940   1.788  14.440
   12CHL1   H4B  821   4.835   1.933  14.436
   12CHL1    C5  822   4.945   1.889  14.251
   12CHL1    C6  823   4.838   1.893  14.171
   12CHL1    H6  824   4.740   1.896  14.220
   12CHL1    C7  825   4.842   1.880  14.020
   12CHL1   H7A  826   4.767   1.807  13.982
   12CHL1   H7B  827   4.817   1.978  13.974
   12CHL1    C8  828   4.980   1.838  13.966
   12CHL1    H8  829   4.989   1.728  13.984
   12CHL1   C14  830   4.986   1.875  13.816
   12CHL1   H14  831   4.978   1.985  13.809
   12CHL1   C15  832   4.880   1.816  13.719
   12CHL1  H15A  833   4.852   1.710  13.739
   12CHL1  H15B  834   4.790   1.879  13.722
   12CHL1   C16  835   4.946   1.822  13.580
   12CHL1  H16A  836   4.944   1.720  13.533
   12CHL1  H16B  837   4.897   1.893  13.512
   12CHL1   C17  838   5.093   1.869  13.601
   12CHL1   H17  839   5.098   1.979  13.590
   12CHL1   C13  840   5.116   1.847  13.749
   12CHL1   C18  841   5.112   1.705  13.764
   12CHL1  H18A  842   5.173   1.660  13.695
   12CHL1  H18B  843   5.168   1.708  13.854
   12CHL1  H18C  844   5.029   1.635  13.780
   12CHL1   C12  845   5.236   1.913  13.825
   12CHL1  H12A  846   5.335   1.880  13.787
   12CHL1  H12B  847   5.227   2.022  13.807
   12CHL1   C11  848   5.235   1.888  13.979
   12CHL1  H11A  849   5.270   1.785  14.000
   12CHL1  H11B  850   5.310   1.953  14.026
   12CHL1    C9  851   5.094   1.909  14.042
   12CHL1    H9  852   5.075   2.018  14.028
   12CHL1   C10  853   5.087   1.887  14.196
   12CHL1   C19  854   5.143   1.758  14.230
   12CHL1  H19A  855   5.254   1.752  14.224
   12CHL1  H19B  856   5.111   1.717  14.328
   12CHL1  H19C  857   5.105   1.695  14.152
   12CHL1    C1  858   5.181   1.978  14.271
   12CHL1   H1A  859   5.285   1.964  14.234
   12CHL1   H1B  860   5.138   2.072  14.239
   12CHL1    C2  861   5.176   1.962  14.424
   12CHL1   H2A  862   5.244   2.035  14.474
   12CHL1   H2B  863   5.214   1.862  14.453
   12CHL1   C20  864   5.181   1.808  13.491
   12CHL1   H20  865   5.162   1.698  13.480
   12CHL1   C21  866   5.331   1.821  13.520
   12CHL1  H21A  867   5.365   1.926  13.531
   12CHL1  H21B  868   5.391   1.769  13.441
   12CHL1  H21C  869   5.352   1.770  13.616
   12CHL1   C22  870   5.139   1.876  13.361
   12CHL1  H22A  871   5.041   1.834  13.329
   12CHL1  H22B  872   5.122   1.985  13.379
   12CHL1   C23  873   5.241   1.863  13.250
   12CHL1  H23A  874   5.330   1.926  13.269
   12CHL1  H23B  875   5.268   1.756  13.233
   12CHL1   C24  876   5.185   1.919  13.128
   12CHL1  H24A  877   5.146   2.022  13.152
   12CHL1  H24B  878   5.258   1.934  13.044
   12CHL1   C25  879   5.073   1.834  13.078
   12CHL1   H25  880   4.997   1.785  13.143
   12CHL1   C26  881   4.983   1.959  13.040
   12CHL1  H26A  882   5.072   1.996  12.977
   12CHL1  H26B  883   4.915   1.885  12.997
   12CHL1  H26C  884   4.963   2.042  12.970
   12CHL1   C27  885   5.134   1.709  12.998
   12CHL1  H27A  886   5.231   1.736  12.951
   12CHL1  H27B  887   5.159   1.624  13.066
   12CHL1  H27C  888   5.073   1.663  12.917
   13CHL1    C3  889   3.830   1.215  14.482
   13CHL1    H3  890   3.753   1.283  14.437
   13CHL1    O3  891   3.860   1.256  14.614
   13CHL1   H3'  892   3.917   1.335  14.605
   13CHL1    C4  893   3.774   1.073  14.489
   13CHL1   H4A  894   3.842   1.007  14.547
   13CHL1   H4B  895   3.681   1.082  14.547
   13CHL1    C5  896   3.757   1.015  14.350
   13CHL1    C6  897   3.649   0.956  14.306
   13CHL1    H6  898   3.570   0.943  14.378
   13CHL1    C7  899   3.621   0.907  14.167
   13CHL1   H7A  900   3.552   0.821  14.170
   13CHL1   H7B  901   3.577   0.986  14.099
   13CHL1    C8  902   3.740   0.880  14.088
   13CHL1    H8  903   3.779   0.788  14.136
   13CHL1   C14  904   3.698   0.859  13.944
   13CHL1   H14  905   3.654   0.956  13.906
   13CHL1   C15  906   3.594   0.750  13.906
   13CHL1  H15A  907   3.584   0.668  13.979
   13CHL1  H15B  908   3.494   0.795  13.893
   13CHL1   C16  909   3.646   0.697  13.771
   13CHL1  H16A  910   3.677   0.591  13.778
   13CHL1  H16B  911   3.567   0.700  13.699
   13CHL1   C17  912   3.760   0.793  13.726
   13CHL1   H17  913   3.707   0.883  13.687
   13CHL1   C13  914   3.821   0.835  13.861
   13CHL1   C18  915   3.895   0.712  13.921
   13CHL1  H18A  916   3.981   0.687  13.859
   13CHL1  H18B  917   3.933   0.731  14.024
   13CHL1  H18C  918   3.827   0.624  13.929
   13CHL1   C12  919   3.905   0.964  13.867
   13CHL1  H12A  920   3.998   0.949  13.812
   13CHL1  H12B  921   3.848   1.048  13.820
   13CHL1   C11  922   3.947   1.004  14.009
   13CHL1  H11A  923   4.023   0.933  14.044
   13CHL1  H11B  924   3.995   1.104  14.006
   13CHL1    C9  925   3.829   1.002  14.106
   13CHL1    H9  926   3.767   1.093  14.078
   13CHL1   C10  927   3.869   1.022  14.254
   13CHL1   C19  928   3.951   0.901  14.305
   13CHL1  H19A  929   3.890   0.808  14.316
   13CHL1  H19B  930   4.033   0.878  14.236
   13CHL1  H19C  931   3.994   0.926  14.404
   13CHL1    C1  932   3.942   1.156  14.264
   13CHL1   H1A  933   4.044   1.140  14.224
   13CHL1   H1B  934   3.886   1.229  14.202
   13CHL1    C2  935   3.959   1.215  14.403
   13CHL1   H2A  936   3.997   1.318  14.389
   13CHL1   H2B  937   4.033   1.153  14.457
   13CHL1   C20  938   3.851   0.739  13.614
   13CHL1   H20  939   3.905   0.649  13.651
   13CHL1   C21  940   3.957   0.844  13.573
   13CHL1  H21A  941   4.032   0.853  13.653
   13CHL1  H21B  942   3.908   0.942  13.554
   13CHL1  H21C  943   4.014   0.815  13.482
   13CHL1   C22  944   3.780   0.695  13.484
   13CHL1  H22A  945   3.858   0.673  13.407
   13CHL1  H22B  946   3.729   0.600  13.507
   13CHL1   C23  947   3.680   0.796  13.424
   13CHL1  H23A  948   3.598   0.804  13.498
   13CHL1  H23B  949   3.723   0.897  13.415
   13CHL1   C24  950   3.627   0.760  13.282
   13CHL1  H24A  951   3.711   0.737  13.213
   13CHL1  H24B  952   3.577   0.662  13.295
   13CHL1   C25  953   3.540   0.876  13.218
   13CHL1   H25  954   3.598   0.966  13.203
   13CHL1   C26  955   3.496   0.851  13.070
   13CHL1  H26A  956   3.395   0.883  13.032
   13CHL1  H26B  957   3.556   0.785  13.006
   13CHL1  H26C  958   3.449   0.768  13.099
   13CHL1   C27  959   3.433   0.928  13.315
   13CHL1  H27A  960   3.355   0.857  13.314
   13CHL1  H27B  961   3.450   0.933  13.424
   13CHL1  H27C  962   3.347   0.976  13.283
   14CHL1    C3  963   2.648   6.347  14.480
   14CHL1    H3  964   2.724   6.268  14.460
   14CHL1    O3  965   2.632   6.364  14.619
   14CHL1   H3'  966   2.719   6.387  14.652
   14CHL1    C4  967   2.696   6.476  14.417
   14CHL1   H4A  968   2.628   6.557  14.455
   14CHL1   H4B  969   2.797   6.506  14.454
   14CHL1    C5  970   2.692   6.460  14.264
   14CHL1    C6  971   2.797   6.482  14.182
   14CHL1    H6  972   2.886   6.524  14.229
   14CHL1    C7  973   2.786   6.498  14.031
   14CHL1   H7A  974   2.858   6.569  13.985
   14CHL1   H7B  975   2.816   6.409  13.977
   14CHL1    C8  976   2.641   6.534  13.991
   14CHL1    H8  977   2.600   6.633  14.026
   14CHL1   C14  978   2.638   6.535  13.841
   14CHL1   H14  979   2.683   6.438  13.810
   14CHL1   C15  980   2.714   6.644  13.763
   14CHL1  H15A  981   2.690   6.744  13.806
   14CHL1  H15B  982   2.822   6.623  13.757
   14CHL1   C16  983   2.658   6.637  13.625
   14CHL1  H16A  984   2.612   6.735  13.595
   14CHL1  H16B  985   2.730   6.604  13.547
   14CHL1   C17  986   2.547   6.534  13.640
   14CHL1   H17  987   2.581   6.430  13.617
   14CHL1   C13  988   2.502   6.528  13.785
   14CHL1   C18  989   2.419   6.653  13.820
   14CHL1  H18A  990   2.459   6.741  13.769
   14CHL1  H18B  991   2.315   6.646  13.784
   14CHL1  H18C  992   2.416   6.671  13.929
   14CHL1   C12  993   2.445   6.396  13.840
   14CHL1  H12A  994   2.347   6.380  13.803
   14CHL1  H12B  995   2.501   6.310  13.802
   14CHL1   C11  996   2.427   6.397  13.988
   14CHL1  H11A  997   2.358   6.480  14.013
   14CHL1  H11B  998   2.380   6.302  14.020
   14CHL1    C9  999   2.560   6.421  14.053
   14CHL1    H9 1000   2.618   6.330  14.031
   14CHL1   C10 1001   2.555   6.431  14.205
   14CHL1   C19 1002   2.446   6.529  14.234
   14CHL1  H19A 1003   2.442   6.604  14.155
   14CHL1  H19B 1004   2.344   6.486  14.219
   14CHL1  H19C 1005   2.450   6.575  14.334
   14CHL1    C1 1006   2.508   6.302  14.269
   14CHL1   H1A 1007   2.404   6.282  14.236
   14CHL1   H1B 1008   2.574   6.223  14.228
   14CHL1    C2 1009   2.512   6.310  14.422
   14CHL1   H2A 1010   2.483   6.212  14.462
   14CHL1   H2B 1011   2.439   6.388  14.456
   14CHL1   C20 1012   2.450   6.569  13.543
   14CHL1   H20 1013   2.402   6.668  13.561
   14CHL1   C21 1014   2.362   6.450  13.583
   14CHL1  H21A 1015   2.373   6.340  13.577
   14CHL1  H21B 1016   2.303   6.403  13.516
   14CHL1  H21C 1017   2.273   6.498  13.623
   14CHL1   C22 1018   2.513   6.591  13.402
   14CHL1  H22A 1019   2.617   6.615  13.385
   14CHL1  H22B 1020   2.529   6.481  13.391
   14CHL1   C23 1021   2.439   6.679  13.290
   14CHL1  H23A 1022   2.331   6.685  13.279
   14CHL1  H23B 1023   2.461   6.783  13.284
   14CHL1   C24 1024   2.467   6.626  13.151
   14CHL1  H24A 1025   2.566   6.657  13.117
   14CHL1  H24B 1026   2.513   6.527  13.167
   14CHL1   C25 1027   2.354   6.627  13.041
   14CHL1   H25 1028   2.340   6.730  13.023
   14CHL1   C26 1029   2.473   6.572  12.920
   14CHL1  H26A 1030   2.493   6.466  12.893
   14CHL1  H26B 1031   2.444   6.555  12.816
   14CHL1  H26C 1032   2.567   6.624  12.911
   14CHL1   C27 1033   2.167   6.611  13.062
   14CHL1  H27A 1034   2.148   6.507  13.040
   14CHL1  H27B 1035   2.099   6.569  13.137
   14CHL1  H27C 1036   2.086   6.597  12.988
   15CHL1    C3 1037   1.394   5.592  14.480
   15CHL1    H3 1038   1.293   5.638  14.471
   15CHL1    O3 1039   1.419   5.573  14.618
   15CHL1   H3' 1040   1.348   5.627  14.658
   15CHL1    C4 1041   1.397   5.456  14.412
   15CHL1   H4A 1042   1.500   5.416  14.425
   15CHL1   H4B 1043   1.327   5.389  14.467
   15CHL1    C5 1044   1.363   5.468  14.265
   15CHL1    C6 1045   1.258   5.404  14.209
   15CHL1    H6 1046   1.195   5.336  14.269
   15CHL1    C7 1047   1.227   5.409  14.062
   15CHL1   H7A 1048   1.220   5.306  14.024
   15CHL1   H7B 1049   1.129   5.458  14.042
   15CHL1    C8 1050   1.341   5.474  13.979
   15CHL1    H8 1051   1.419   5.394  13.966
   15CHL1   C14 1052   1.288   5.526  13.846
   15CHL1   H14 1053   1.213   5.605  13.870
   15CHL1   C15 1054   1.210   5.431  13.760
   15CHL1  H15A 1055   1.284   5.354  13.780
   15CHL1  H15B 1056   1.111   5.398  13.796
   15CHL1   C16 1057   1.216   5.486  13.617
   15CHL1  H16A 1058   1.247   5.417  13.537
   15CHL1  H16B 1059   1.116   5.521  13.589
   15CHL1   C17 1060   1.318   5.601  13.620
   15CHL1   H17 1061   1.251   5.689  13.634
   15CHL1   C13 1062   1.395   5.582  13.752
   15CHL1   C18 1063   1.509   5.479  13.724
   15CHL1  H18A 1064   1.580   5.525  13.652
   15CHL1  H18B 1065   1.567   5.451  13.813
   15CHL1  H18C 1066   1.471   5.385  13.679
   15CHL1   C12 1067   1.442   5.710  13.822
   15CHL1  H12A 1068   1.521   5.763  13.766
   15CHL1  H12B 1069   1.355   5.777  13.837
   15CHL1   C11 1070   1.498   5.675  13.959
   15CHL1  H11A 1071   1.587   5.613  13.936
   15CHL1  H11B 1072   1.534   5.767  14.009
   15CHL1    C9 1073   1.399   5.595  14.049
   15CHL1    H9 1074   1.310   5.660  14.064
   15CHL1   C10 1075   1.456   5.565  14.188
   15CHL1   C19 1076   1.598   5.504  14.171
   15CHL1  H19A 1077   1.597   5.407  14.119
   15CHL1  H19B 1078   1.666   5.570  14.113
   15CHL1  H19C 1079   1.645   5.492  14.271
   15CHL1    C1 1080   1.466   5.701  14.266
   15CHL1   H1A 1081   1.545   5.765  14.221
   15CHL1   H1B 1082   1.369   5.754  14.254
   15CHL1    C2 1083   1.495   5.690  14.417
   15CHL1   H2A 1084   1.481   5.789  14.465
   15CHL1   H2B 1085   1.601   5.660  14.432
   15CHL1   C20 1086   1.396   5.620  13.489
   15CHL1   H20 1087   1.473   5.540  13.475
   15CHL1   C21 1088   1.471   5.756  13.491
   15CHL1  H21A 1089   1.553   5.754  13.566
   15CHL1  H21B 1090   1.400   5.837  13.515
   15CHL1  H21C 1091   1.517   5.778  13.393
   15CHL1   C22 1092   1.307   5.613  13.363
   15CHL1  H22A 1093   1.233   5.531  13.370
   15CHL1  H22B 1094   1.251   5.708  13.350
   15CHL1   C23 1095   1.391   5.588  13.237
   15CHL1  H23A 1096   1.455   5.677  13.220
   15CHL1  H23B 1097   1.456   5.500  13.255
   15CHL1   C24 1098   1.306   5.565  13.112
   15CHL1  H24A 1099   1.257   5.468  13.126
   15CHL1  H24B 1100   1.226   5.642  13.104
   15CHL1   C25 1101   1.388   5.557  12.983
   15CHL1   H25 1102   1.480   5.497  13.003
   15CHL1   C26 1103   1.313   5.493  12.865
   15CHL1  H26A 1104   1.249   5.406  12.893
   15CHL1  H26B 1105   1.248   5.570  12.818
   15CHL1  H26C 1106   1.388   5.460  12.790
   15CHL1   C27 1107   1.420   5.699  12.937
   15CHL1  H27A 1108   1.323   5.750  12.922
   15CHL1  H27B 1109   1.478   5.756  13.013
   15CHL1  H27C 1110   1.474   5.699  12.840
   16CHL1    C3 1111   1.055   2.106  14.473
   16CHL1    H3 1112   1.158   2.086  14.437
   16CHL1    O3 1113   1.054   2.088  14.614
   16CHL1   H3' 1114   1.125   2.145  14.645
   16CHL1    C4 1115   1.006   2.244  14.441
   16CHL1   H4A 1116   0.904   2.250  14.482
   16CHL1   H4B 1117   1.069   2.318  14.493
   16CHL1    C5 1118   1.006   2.260  14.290
   16CHL1    C6 1119   1.082   2.355  14.236
   16CHL1    H6 1120   1.129   2.427  14.304
   16CHL1    C7 1121   1.072   2.391  14.091
   16CHL1   H7A 1122   1.053   2.500  14.077
   16CHL1   H7B 1123   1.167   2.370  14.041
   16CHL1    C8 1124   0.958   2.313  14.018
   16CHL1    H8 1125   0.862   2.342  14.062
   16CHL1   C14 1126   0.975   2.334  13.868
   16CHL1   H14 1127   1.071   2.280  13.852
   16CHL1   C15 1128   1.002   2.474  13.805
   16CHL1  H15A 1129   0.956   2.561  13.849
   16CHL1  H15B 1130   1.106   2.507  13.814
   16CHL1   C16 1131   0.949   2.463  13.663
   16CHL1  H16A 1132   0.852   2.516  13.650
   16CHL1  H16B 1133   1.023   2.504  13.592
   16CHL1   C17 1134   0.924   2.314  13.638
   16CHL1   H17 1135   1.021   2.268  13.612
   16CHL1   C13 1136   0.878   2.262  13.775
   16CHL1   C18 1137   0.737   2.314  13.793
   16CHL1  H18A 1138   0.708   2.284  13.893
   16CHL1  H18B 1139   0.719   2.422  13.774
   16CHL1  H18C 1140   0.665   2.266  13.731
   16CHL1   C12 1141   0.879   2.113  13.809
   16CHL1  H12A 1142   0.797   2.060  13.757
   16CHL1  H12B 1143   0.973   2.068  13.774
   16CHL1   C11 1144   0.858   2.087  13.960
   16CHL1  H11A 1145   0.754   2.112  13.978
   16CHL1  H11B 1146   0.865   1.979  13.980
   16CHL1    C9 1147   0.949   2.169  14.056
   16CHL1    H9 1148   1.051   2.131  14.042
   16CHL1   C10 1149   0.919   2.160  14.208
   16CHL1   C19 1150   0.768   2.172  14.240
   16CHL1  H19A 1151   0.719   2.085  14.193
   16CHL1  H19B 1152   0.742   2.173  14.348
   16CHL1  H19C 1153   0.718   2.256  14.195
   16CHL1    C1 1154   0.960   2.021  14.250
   16CHL1   H1A 1155   0.897   1.943  14.202
   16CHL1   H1B 1156   1.064   2.003  14.215
   16CHL1    C2 1157   0.964   2.009  14.401
   16CHL1   H2A 1158   1.032   1.923  14.406
   16CHL1   H2B 1159   0.863   1.997  14.448
   16CHL1   C20 1160   0.832   2.291  13.522
   16CHL1   H20 1161   0.730   2.331  13.547
   16CHL1   C21 1162   0.833   2.142  13.495
   16CHL1  H21A 1163   0.772   2.111  13.579
   16CHL1  H21B 1164   0.915   2.074  13.517
   16CHL1  H21C 1165   0.784   2.117  13.397
   16CHL1   C22 1166   0.868   2.358  13.392
   16CHL1  H22A 1167   0.906   2.456  13.416
   16CHL1  H22B 1168   0.952   2.305  13.344
   16CHL1   C23 1169   0.745   2.374  13.305
   16CHL1  H23A 1170   0.732   2.275  13.254
   16CHL1  H23B 1171   0.654   2.411  13.356
   16CHL1   C24 1172   0.756   2.481  13.200
   16CHL1  H24A 1173   0.761   2.579  13.237
   16CHL1  H24B 1174   0.855   2.449  13.161
   16CHL1   C25 1175   0.631   2.530  13.121
   16CHL1   H25 1176   0.546   2.557  13.185
   16CHL1   C26 1177   0.629   2.630  13.002
   16CHL1  H26A 1178   0.651   2.722  13.048
   16CHL1  H26B 1179   0.700   2.615  12.919
   16CHL1  H26C 1180   0.546   2.641  12.930
   16CHL1   C27 1181   0.583   2.412  13.086
   16CHL1  H27A 1182   0.494   2.428  13.035
   16CHL1  H27B 1183   0.627   2.355  13.018
   16CHL1  H27C 1184   0.586   2.330  13.152
   17CHL1    C3 1185   1.852   6.344  14.484
   17CHL1    H3 1186   1.949   6.399  14.488
   17CHL1    O3 1187   1.823   6.299  14.614
   17CHL1   H3' 1188   1.904   6.251  14.641
   17CHL1    C4 1189   1.740   6.441  14.441
   17CHL1   H4A 1190   1.640   6.398  14.465
   17CHL1   H4B 1191   1.750   6.531  14.506
   17CHL1    C5 1192   1.741   6.477  14.295
   17CHL1    C6 1193   1.742   6.604  14.253
   17CHL1    H6 1194   1.745   6.685  14.327
   17CHL1    C7 1195   1.733   6.643  14.108
   17CHL1   H7A 1196   1.662   6.726  14.093
   17CHL1   H7B 1197   1.829   6.686  14.079
   17CHL1    C8 1198   1.696   6.525  14.011
   17CHL1    H8 1199   1.587   6.508  14.020
   17CHL1   C14 1200   1.721   6.556  13.863
   17CHL1   H14 1201   1.828   6.574  13.850
   17CHL1   C15 1202   1.664   6.685  13.806
   17CHL1  H15A 1203   1.558   6.699  13.831
   17CHL1  H15B 1204   1.719   6.764  13.857
   17CHL1   C16 1205   1.678   6.674  13.654
   17CHL1  H16A 1206   1.584   6.705  13.607
   17CHL1  H16B 1207   1.759   6.735  13.613
   17CHL1   C17 1208   1.712   6.525  13.629
   17CHL1   H17 1209   1.816   6.530  13.646
   17CHL1   C13 1210   1.691   6.448  13.761
   17CHL1   C18 1211   1.550   6.403  13.756
   17CHL1  H18A 1212   1.486   6.486  13.721
   17CHL1  H18B 1213   1.547   6.319  13.684
   17CHL1  H18C 1214   1.519   6.367  13.856
   17CHL1   C12 1215   1.784   6.332  13.796
   17CHL1  H12A 1216   1.773   6.251  13.724
   17CHL1  H12B 1217   1.882   6.371  13.781
   17CHL1   C11 1218   1.768   6.286  13.944
   17CHL1  H11A 1219   1.668   6.241  13.947
   17CHL1  H11B 1220   1.845   6.210  13.967
   17CHL1    C9 1221   1.766   6.396  14.055
   17CHL1    H9 1222   1.870   6.413  14.079
   17CHL1   C10 1223   1.746   6.355  14.202
   17CHL1   C19 1224   1.616   6.277  14.208
   17CHL1  H19A 1225   1.594   6.248  14.312
   17CHL1  H19B 1226   1.535   6.339  14.165
   17CHL1  H19C 1227   1.628   6.183  14.150
   17CHL1    C1 1228   1.867   6.266  14.245
   17CHL1   H1A 1229   1.869   6.178  14.178
   17CHL1   H1B 1230   1.963   6.318  14.231
   17CHL1    C2 1231   1.868   6.223  14.391
   17CHL1   H2A 1232   1.963   6.169  14.411
   17CHL1   H2B 1233   1.785   6.151  14.406
   17CHL1   C20 1234   1.695   6.473  13.484
   17CHL1   H20 1235   1.749   6.545  13.416
   17CHL1   C21 1236   1.548   6.478  13.439
   17CHL1  H21A 1237   1.505   6.578  13.456
   17CHL1  H21B 1238   1.489   6.402  13.493
   17CHL1  H21C 1239   1.542   6.457  13.330
   17CHL1   C22 1240   1.756   6.335  13.453
   17CHL1  H22A 1241   1.863   6.329  13.474
   17CHL1  H22B 1242   1.706   6.257  13.514
   17CHL1   C23 1243   1.753   6.297  13.305
   17CHL1  H23A 1244   1.794   6.193  13.302
   17CHL1  H23B 1245   1.650   6.297  13.265
   17CHL1   C24 1246   1.841   6.379  13.212
   17CHL1  H24A 1247   1.819   6.487  13.205
   17CHL1  H24B 1248   1.941   6.367  13.249
   17CHL1   C25 1249   1.850   6.308  13.077
   17CHL1   H25 1250   1.878   6.201  13.095
   17CHL1   C26 1251   1.731   6.323  12.989
   17CHL1  H26A 1252   1.723   6.429  12.956
   17CHL1  H26B 1253   1.747   6.255  12.902
   17CHL1  H26C 1254   1.644   6.294  13.050
   17CHL1   C27 1255   1.958   6.364  12.997
   17CHL1  H27A 1256   1.983   6.309  12.904
   17CHL1  H27B 1257   1.937   6.471  12.974
   17CHL1  H27C 1258   2.040   6.350  13.068
   18CHL1    C3 1259   4.263   0.551  14.474
   18CHL1    H3 1260   4.167   0.500  14.451
   18CHL1    O3 1261   4.267   0.569  14.614
   18CHL1   H3' 1262   4.194   0.631  14.631
   18CHL1    C4 1263   4.379   0.461  14.427
   18CHL1   H4A 1264   4.475   0.487  14.475
   18CHL1   H4B 1265   4.353   0.361  14.468
   18CHL1    C5 1266   4.397   0.458  14.276
   18CHL1    C6 1267   4.425   0.344  14.211
   18CHL1    H6 1268   4.435   0.249  14.266
   18CHL1    C7 1269   4.453   0.339  14.064
   18CHL1   H7A 1270   4.555   0.297  14.046
   18CHL1   H7B 1271   4.380   0.273  14.015
   18CHL1    C8 1272   4.447   0.472  13.987
   18CHL1    H8 1273   4.551   0.515  13.996
   18CHL1   C14 1274   4.397   0.441  13.845
   18CHL1   H14 1275   4.290   0.417  13.850
   18CHL1   C15 1276   4.465   0.324  13.767
   18CHL1  H15A 1277   4.572   0.310  13.798
   18CHL1  H15B 1278   4.410   0.230  13.787
   18CHL1   C16 1279   4.461   0.366  13.619
   18CHL1  H16A 1280   4.568   0.375  13.602
   18CHL1  H16B 1281   4.421   0.292  13.548
   18CHL1   C17 1282   4.392   0.507  13.607
   18CHL1   H17 1283   4.285   0.487  13.590
   18CHL1   C13 1284   4.392   0.561  13.755
   18CHL1   C18 1285   4.516   0.612  13.783
   18CHL1  H18A 1286   4.586   0.526  13.790
   18CHL1  H18B 1287   4.531   0.674  13.699
   18CHL1  H18C 1288   4.543   0.676  13.867
   18CHL1   C12 1289   4.307   0.675  13.807
   18CHL1  H12A 1290   4.330   0.768  13.749
   18CHL1  H12B 1291   4.205   0.642  13.789
   18CHL1   C11 1292   4.333   0.702  13.959
   18CHL1  H11A 1293   4.423   0.766  13.972
   18CHL1  H11B 1294   4.251   0.767  13.993
   18CHL1    C9 1295   4.349   0.572  14.047
   18CHL1    H9 1296   4.249   0.523  14.039
   18CHL1   C10 1297   4.375   0.591  14.199
   18CHL1   C19 1298   4.504   0.672  14.220
   18CHL1  H19A 1299   4.594   0.613  14.194
   18CHL1  H19B 1300   4.502   0.762  14.156
   18CHL1  H19C 1301   4.514   0.709  14.324
   18CHL1    C1 1302   4.255   0.671  14.255
   18CHL1   H1A 1303   4.257   0.771  14.206
   18CHL1   H1B 1304   4.160   0.621  14.225
   18CHL1    C2 1305   4.259   0.689  14.407
   18CHL1   H2A 1306   4.167   0.744  14.437
   18CHL1   H2B 1307   4.346   0.749  14.440
   18CHL1   C20 1308   4.441   0.588  13.481
   18CHL1   H20 1309   4.551   0.602  13.478
   18CHL1   C21 1310   4.382   0.730  13.473
   18CHL1  H21A 1311   4.412   0.779  13.378
   18CHL1  H21B 1312   4.419   0.792  13.556
   18CHL1  H21C 1313   4.271   0.724  13.477
   18CHL1   C22 1314   4.412   0.520  13.346
   18CHL1  H22A 1315   4.417   0.409  13.354
   18CHL1  H22B 1316   4.310   0.548  13.315
   18CHL1   C23 1317   4.508   0.559  13.232
   18CHL1  H23A 1318   4.542   0.665  13.232
   18CHL1  H23B 1319   4.597   0.498  13.249
   18CHL1   C24 1320   4.449   0.515  13.098
   18CHL1  H24A 1321   4.421   0.408  13.113
   18CHL1  H24B 1322   4.361   0.576  13.072
   18CHL1   C25 1323   4.544   0.516  12.979
   18CHL1   H25 1324   4.585   0.619  12.971
   18CHL1   C26 1325   4.649   0.412  13.008
   18CHL1  H26A 1326   4.712   0.387  12.919
   18CHL1  H26B 1327   4.714   0.448  13.089
   18CHL1  H26C 1328   4.613   0.328  13.061
   18CHL1   C27 1329   4.481   0.485  12.844
   18CHL1  H27A 1330   4.401   0.557  12.820
   18CHL1  H27B 1331   4.556   0.492  12.763
   18CHL1  H27C 1332   4.442   0.381  12.846
   19CHL1    C3 1333   2.655   0.492  14.476
   19CHL1    H3 1334   2.602   0.588  14.455
   19CHL1    O3 1335   2.667   0.472  14.616
   19CHL1   H3' 1336   2.579   0.443  14.644
   19CHL1    C4 1337   2.576   0.375  14.417
   19CHL1   H4A 1338   2.638   0.283  14.434
   19CHL1   H4B 1339   2.481   0.356  14.471
   19CHL1    C5 1340   2.551   0.414  14.273
   19CHL1    C6 1341   2.431   0.412  14.218
   19CHL1    H6 1342   2.343   0.381  14.276
   19CHL1    C7 1343   2.414   0.455  14.076
   19CHL1   H7A 1344   2.339   0.400  14.027
   19CHL1   H7B 1345   2.382   0.560  14.077
   19CHL1    C8 1346   2.534   0.436  13.981
   19CHL1    H8 1347   2.550   0.326  13.965
   19CHL1   C14 1348   2.507   0.496  13.845
   19CHL1   H14 1349   2.470   0.600  13.864
   19CHL1   C15 1350   2.399   0.432  13.769
   19CHL1  H15A 1351   2.415   0.321  13.774
   19CHL1  H15B 1352   2.309   0.475  13.816
   19CHL1   C16 1353   2.406   0.473  13.625
   19CHL1  H16A 1354   2.411   0.382  13.562
   19CHL1  H16B 1355   2.315   0.533  13.599
   19CHL1   C17 1356   2.539   0.547  13.620
   19CHL1   H17 1357   2.511   0.652  13.641
   19CHL1   C13 1358   2.617   0.495  13.743
   19CHL1   C18 1359   2.674   0.353  13.716
   19CHL1  H18A 1360   2.606   0.281  13.666
   19CHL1  H18B 1361   2.769   0.358  13.660
   19CHL1  H18C 1362   2.699   0.311  13.815
   19CHL1   C12 1363   2.723   0.583  13.805
   19CHL1  H12A 1364   2.809   0.578  13.735
   19CHL1  H12B 1365   2.684   0.686  13.811
   19CHL1   C11 1366   2.764   0.533  13.946
   19CHL1  H11A 1367   2.817   0.436  13.933
   19CHL1  H11B 1368   2.834   0.606  13.990
   19CHL1    C9 1369   2.644   0.514  14.045
   19CHL1    H9 1370   2.602   0.614  14.066
   19CHL1   C10 1371   2.672   0.466  14.188
   19CHL1   C19 1372   2.728   0.342  14.159
   19CHL1  H19A 1373   2.654   0.272  14.114
   19CHL1  H19B 1374   2.827   0.340  14.107
   19CHL1  H19C 1375   2.752   0.301  14.255
   19CHL1    C1 1376   2.789   0.533  14.262
   19CHL1   H1A 1377   2.887   0.507  14.213
   19CHL1   H1B 1378   2.772   0.640  14.250
   19CHL1    C2 1379   2.796   0.498  14.412
   19CHL1   H2A 1380   2.857   0.577  14.459
   19CHL1   H2B 1381   2.843   0.398  14.429
   19CHL1   C20 1382   2.597   0.544  13.480
   19CHL1   H20 1383   2.631   0.441  13.454
   19CHL1   C21 1384   2.716   0.640  13.465
   19CHL1  H21A 1385   2.685   0.744  13.490
   19CHL1  H21B 1386   2.752   0.640  13.361
   19CHL1  H21C 1387   2.803   0.609  13.526
   19CHL1   C22 1388   2.483   0.586  13.383
   19CHL1  H22A 1389   2.409   0.506  13.377
   19CHL1  H22B 1390   2.424   0.669  13.428
   19CHL1   C23 1391   2.526   0.629  13.242
   19CHL1  H23A 1392   2.430   0.645  13.186
   19CHL1  H23B 1393   2.575   0.727  13.248
   19CHL1   C24 1394   2.622   0.526  13.173
   19CHL1  H24A 1395   2.698   0.487  13.241
   19CHL1  H24B 1396   2.596   0.421  13.178
   19CHL1   C25 1397   2.649   0.538  13.019
   19CHL1   H25 1398   2.729   0.614  13.020
   19CHL1   C26 1399   2.705   0.404  12.966
   19CHL1  H26A 1400   2.629   0.323  12.960
   19CHL1  H26B 1401   2.746   0.421  12.865
   19CHL1  H26C 1402   2.786   0.368  13.034
   19CHL1   C27 1403   2.541   0.590  12.918
   19CHL1  H27A 1404   2.450   0.532  12.900
   19CHL1  H27B 1405   2.503   0.690  12.944
   19CHL1  H27C 1406   2.581   0.584  12.815
   20CHL1    C3 1407   1.909   0.718  14.474
   20CHL1    H3 1408   1.921   0.829  14.473
   20CHL1    O3 1409   1.916   0.675  14.609
   20CHL1   H3' 1410   2.012   0.675  14.629
   20CHL1    C4 1411   1.775   0.682  14.410
   20CHL1   H4A 1412   1.755   0.573  14.421
   20CHL1   H4B 1413   1.696   0.735  14.468
   20CHL1    C5 1414   1.767   0.719  14.264
   20CHL1    C6 1415   1.666   0.790  14.213
   20CHL1    H6 1416   1.595   0.837  14.282
   20CHL1    C7 1417   1.636   0.806  14.067
   20CHL1   H7A 1418   1.532   0.806  14.032
   20CHL1   H7B 1419   1.639   0.911  14.052
   20CHL1    C8 1420   1.729   0.720  13.977
   20CHL1    H8 1421   1.681   0.622  13.971
   20CHL1   C14 1422   1.728   0.767  13.832
   20CHL1   H14 1423   1.782   0.843  13.882
   20CHL1   C15 1424   1.602   0.821  13.752
   20CHL1  H15A 1425   1.515   0.761  13.779
   20CHL1  H15B 1426   1.565   0.926  13.756
   20CHL1   C16 1427   1.636   0.809  13.603
   20CHL1  H16A 1428   1.566   0.749  13.545
   20CHL1  H16B 1429   1.611   0.911  13.561
   20CHL1   C17 1430   1.784   0.750  13.595
   20CHL1   H17 1431   1.873   0.805  13.613
   20CHL1   C13 1432   1.819   0.695  13.733
   20CHL1   C18 1433   1.749   0.570  13.713
   20CHL1  H18A 1434   1.804   0.513  13.634
   20CHL1  H18B 1435   1.758   0.529  13.814
   20CHL1  H18C 1436   1.642   0.576  13.689
   20CHL1   C12 1437   1.970   0.692  13.783
   20CHL1  H12A 1438   2.035   0.629  13.718
   20CHL1  H12B 1439   2.025   0.788  13.780
   20CHL1   C11 1440   1.979   0.650  13.931
   20CHL1  H11A 1441   1.947   0.546  13.926
   20CHL1  H11B 1442   2.085   0.659  13.965
   20CHL1    C9 1443   1.878   0.715  14.032
   20CHL1    H9 1444   1.926   0.814  14.044
   20CHL1   C10 1445   1.880   0.665  14.179
   20CHL1   C19 1446   1.849   0.524  14.174
   20CHL1  H19A 1447   1.835   0.465  14.267
   20CHL1  H19B 1448   1.761   0.510  14.110
   20CHL1  H19C 1449   1.936   0.482  14.122
   20CHL1    C1 1450   2.018   0.681  14.246
   20CHL1   H1A 1451   2.092   0.613  14.198
   20CHL1   H1B 1452   2.046   0.786  14.227
   20CHL1    C2 1453   2.024   0.653  14.397
   20CHL1   H2A 1454   2.120   0.697  14.434
   20CHL1   H2B 1455   2.024   0.543  14.413
   20CHL1   C20 1456   1.835   0.710  13.454
   20CHL1   H20 1457   1.775   0.623  13.428
   20CHL1   C21 1458   1.989   0.685  13.460
   20CHL1  H21A 1459   2.046   0.763  13.517
   20CHL1  H21B 1460   2.038   0.678  13.361
   20CHL1  H21C 1461   2.005   0.588  13.511
   20CHL1   C22 1462   1.799   0.818  13.348
   20CHL1  H22A 1463   1.693   0.850  13.356
   20CHL1  H22B 1464   1.869   0.893  13.383
   20CHL1   C23 1465   1.825   0.790  13.200
   20CHL1  H23A 1466   1.935   0.786  13.181
   20CHL1  H23B 1467   1.779   0.691  13.186
   20CHL1   C24 1468   1.759   0.886  13.097
   20CHL1  H24A 1469   1.653   0.907  13.122
   20CHL1  H24B 1470   1.816   0.980  13.094
   20CHL1   C25 1471   1.763   0.836  12.952
   20CHL1   H25 1472   1.698   0.746  12.942
   20CHL1   C26 1473   1.721   0.942  12.850
   20CHL1  H26A 1474   1.621   0.981  12.876
   20CHL1  H26B 1475   1.794   1.026  12.851
   20CHL1  H26C 1476   1.718   0.899  12.747
   20CHL1   C27 1477   1.902   0.800  12.916
   20CHL1  H27A 1478   1.941   0.714  12.975
   20CHL1  H27B 1479   1.904   0.773  12.808
   20CHL1  H27C 1480   1.972   0.886  12.931
   21CHL1    C3 1481   7.173   2.755  14.484
   21CHL1    H3 1482   7.088   2.816  14.443
   21CHL1    O3 1483   7.157   2.732  14.622
   21CHL1   H3' 1484   7.160   2.821  14.661
   21CHL1    C4 1485   7.174   2.620  14.413
   21CHL1   H4A 1486   7.255   2.558  14.457
   21CHL1   H4B 1487   7.077   2.572  14.434
   21CHL1    C5 1488   7.193   2.630  14.264
   21CHL1    C6 1489   7.104   2.578  14.180
   21CHL1    H6 1490   7.020   2.528  14.221
   21CHL1    C7 1491   7.108   2.578  14.031
   21CHL1   H7A 1492   7.097   2.477  13.988
   21CHL1   H7B 1493   7.031   2.647  13.988
   21CHL1    C8 1494   7.240   2.627  13.986
   21CHL1    H8 1495   7.320   2.551  14.002
   21CHL1   C14 1496   7.227   2.663  13.837
   21CHL1   H14 1497   7.159   2.753  13.833
   21CHL1   C15 1498   7.176   2.559  13.742
   21CHL1  H15A 1499   7.229   2.465  13.768
   21CHL1  H15B 1500   7.067   2.548  13.752
   21CHL1   C16 1501   7.219   2.611  13.603
   21CHL1  H16A 1502   7.277   2.530  13.553
   21CHL1  H16B 1503   7.131   2.636  13.543
   21CHL1   C17 1504   7.311   2.736  13.626
   21CHL1   H17 1505   7.252   2.830  13.631
   21CHL1   C13 1506   7.355   2.701  13.770
   21CHL1   C18 1507   7.456   2.581  13.789
   21CHL1  H18A 1508   7.555   2.585  13.745
   21CHL1  H18B 1509   7.487   2.568  13.895
   21CHL1  H18C 1510   7.426   2.489  13.740
   21CHL1   C12 1511   7.367   2.817  13.853
   21CHL1  H12A 1512   7.463   2.847  13.849
   21CHL1  H12B 1513   7.317   2.907  13.814
   21CHL1   C11 1514   7.382   2.792  13.999
   21CHL1  H11A 1515   7.473   2.744  14.037
   21CHL1  H11B 1516   7.372   2.896  14.014
   21CHL1    C9 1517   7.273   2.744  14.072
   21CHL1    H9 1518   7.198   2.827  14.064
   21CHL1   C10 1519   7.306   2.717  14.221
   21CHL1   C19 1520   7.443   2.648  14.248
   21CHL1  H19A 1521   7.527   2.720  14.236
   21CHL1  H19B 1522   7.446   2.610  14.351
   21CHL1  H19C 1523   7.464   2.566  14.177
   21CHL1    C1 1524   7.298   2.846  14.305
   21CHL1   H1A 1525   7.390   2.898  14.303
   21CHL1   H1B 1526   7.222   2.918  14.269
   21CHL1    C2 1527   7.301   2.829  14.456
   21CHL1   H2A 1528   7.312   2.931  14.500
   21CHL1   H2B 1529   7.390   2.771  14.489
   21CHL1   C20 1530   7.402   2.772  13.506
   21CHL1   H20 1531   7.453   2.673  13.506
   21CHL1   C21 1532   7.496   2.914  13.505
   21CHL1  H21A 1533   7.587   2.958  13.559
   21CHL1  H21B 1534   7.427   2.990  13.509
   21CHL1  H21C 1535   7.578   2.927  13.434
   21CHL1   C22 1536   7.335   2.741  13.371
   21CHL1  H22A 1537   7.278   2.648  13.369
   21CHL1  H22B 1538   7.274   2.832  13.372
   21CHL1   C23 1539   7.424   2.716  13.247
   21CHL1  H23A 1540   7.481   2.802  13.270
   21CHL1  H23B 1541   7.496   2.631  13.250
   21CHL1   C24 1542   7.348   2.728  13.111
   21CHL1  H24A 1543   7.296   2.634  13.097
   21CHL1  H24B 1544   7.274   2.808  13.130
   21CHL1   C25 1545   7.419   2.760  12.974
   21CHL1   H25 1546   7.510   2.698  12.959
   21CHL1   C26 1547   7.345   2.785  12.845
   21CHL1  H26A 1548   7.263   2.861  12.856
   21CHL1  H26B 1549   7.415   2.826  12.766
   21CHL1  H26C 1550   7.311   2.687  12.821
   21CHL1   C27 1551   7.453   2.895  12.967
   21CHL1  H27A 1552   7.360   2.955  12.975
   21CHL1  H27B 1553   7.515   2.919  13.054
   21CHL1  H27C 1554   7.510   2.936  12.884
   22CHL1    C3 1555   0.452   5.437  14.484
   22CHL1    H3 1556   0.497   5.534  14.456
   22CHL1    O3 1557   0.429   5.419  14.621
   22CHL1   H3' 1558   0.385   5.333  14.627
   22CHL1    C4 1559   0.323   5.420  14.413
   22CHL1   H4A 1560   0.293   5.320  14.452
   22CHL1   H4B 1561   0.246   5.492  14.447
   22CHL1    C5 1562   0.332   5.419  14.261
   22CHL1    C6 1563   0.255   5.498  14.185
   22CHL1    H6 1564   0.187   5.567  14.236
   22CHL1    C7 1565   0.248   5.486  14.035
   22CHL1   H7A 1566   0.143   5.489  13.998
   22CHL1   H7B 1567   0.302   5.572  13.992
   22CHL1    C8 1568   0.316   5.357  13.981
   22CHL1    H8 1569   0.260   5.268  13.996
   22CHL1   C14 1570   0.339   5.360  13.831
   22CHL1   H14 1571   0.401   5.448  13.813
   22CHL1   C15 1572   0.219   5.390  13.744
   22CHL1  H15A 1573   0.174   5.304  13.785
   22CHL1  H15B 1574   0.152   5.473  13.768
   22CHL1   C16 1575   0.258   5.358  13.601
   22CHL1  H16A 1576   0.187   5.300  13.539
   22CHL1  H16B 1577   0.267   5.455  13.550
   22CHL1   C17 1578   0.393   5.282  13.616
   22CHL1   H17 1579   0.468   5.362  13.605
   22CHL1   C13 1580   0.412   5.243  13.764
   22CHL1   C18 1581   0.365   5.103  13.782
   22CHL1  H18A 1582   0.330   5.080  13.884
   22CHL1  H18B 1583   0.292   5.100  13.700
   22CHL1  H18C 1584   0.425   5.016  13.761
   22CHL1   C12 1585   0.545   5.238  13.827
   22CHL1  H12A 1586   0.600   5.150  13.785
   22CHL1  H12B 1587   0.595   5.333  13.803
   22CHL1   C11 1588   0.525   5.225  13.979
   22CHL1  H11A 1589   0.493   5.121  14.004
   22CHL1  H11B 1590   0.624   5.244  14.017
   22CHL1    C9 1591   0.444   5.333  14.053
   22CHL1    H9 1592   0.500   5.427  14.040
   22CHL1   C10 1593   0.425   5.313  14.206
   22CHL1   C19 1594   0.390   5.165  14.229
   22CHL1  H19A 1595   0.313   5.137  14.157
   22CHL1  H19B 1596   0.473   5.095  14.206
   22CHL1  H19C 1597   0.359   5.145  14.334
   22CHL1    C1 1598   0.547   5.335  14.293
   22CHL1   H1A 1599   0.582   5.231  14.294
   22CHL1   H1B 1600   0.618   5.408  14.249
   22CHL1    C2 1601   0.542   5.327  14.445
   22CHL1   H2A 1602   0.642   5.337  14.492
   22CHL1   H2B 1603   0.506   5.225  14.477
   22CHL1   C20 1604   0.410   5.181  13.502
   22CHL1   H20 1605   0.318   5.119  13.486
   22CHL1   C21 1606   0.531   5.088  13.525
   22CHL1  H21A 1607   0.617   5.149  13.558
   22CHL1  H21B 1608   0.559   5.030  13.436
   22CHL1  H21C 1609   0.513   5.008  13.599
   22CHL1   C22 1610   0.432   5.264  13.376
   22CHL1  H22A 1611   0.341   5.319  13.344
   22CHL1  H22B 1612   0.513   5.338  13.398
   22CHL1   C23 1613   0.481   5.180  13.263
   22CHL1  H23A 1614   0.589   5.162  13.279
   22CHL1  H23B 1615   0.431   5.080  13.258
   22CHL1   C24 1616   0.460   5.253  13.134
   22CHL1  H24A 1617   0.355   5.257  13.102
   22CHL1  H24B 1618   0.505   5.354  13.131
   22CHL1   C25 1619   0.532   5.178  13.033
   22CHL1   H25 1620   0.503   5.069  13.029
   22CHL1   C26 1621   0.500   5.238  12.903
   22CHL1  H26A 1622   0.556   5.331  12.879
   22CHL1  H26B 1623   0.552   5.152  12.862
   22CHL1  H26C 1624   0.395   5.236  12.871
   22CHL1   C27 1625   0.680   5.195  13.051
   22CHL1  H27A 1626   0.715   5.298  13.034
   22CHL1  H27B 1627   0.733   5.160  13.139
   22CHL1  H27C 1628   0.724   5.116  12.984
   23CHL1    C3 1629   0.276   2.108  14.476
   23CHL1    H3 1630   0.242   2.211  14.453
   23CHL1    O3 1631   0.259   2.085  14.615
   23CHL1   H3' 1632   0.183   2.137  14.641
   23CHL1    C4 1633   0.194   2.008  14.394
   23CHL1   H4A 1634   0.230   1.904  14.414
   23CHL1   H4B 1635   0.088   2.005  14.425
   23CHL1    C5 1636   0.210   2.051  14.249
   23CHL1    C6 1637   0.108   2.098  14.177
   23CHL1    H6 1638   0.010   2.108  14.224
   23CHL1    C7 1639   0.122   2.134  14.032
   23CHL1   H7A 1640   0.032   2.101  13.976
   23CHL1   H7B 1641   0.130   2.244  14.023
   23CHL1    C8 1642   0.247   2.071  13.967
   23CHL1    H8 1643   0.232   1.961  13.961
   23CHL1   C14 1644   0.265   2.126  13.827
   23CHL1   H14 1645   0.287   2.235  13.843
   23CHL1   C15 1646   0.144   2.125  13.733
   23CHL1  H15A 1647   0.089   2.028  13.737
   23CHL1  H15B 1648   0.076   2.211  13.752
   23CHL1   C16 1649   0.202   2.135  13.594
   23CHL1  H16A 1650   0.180   2.042  13.538
   23CHL1  H16B 1651   0.164   2.223  13.538
   23CHL1   C17 1652   0.353   2.140  13.614
   23CHL1   H17 1653   0.377   2.249  13.626
   23CHL1   C13 1654   0.384   2.072  13.751
   23CHL1   C18 1655   0.385   1.920  13.728
   23CHL1  H18A 1656   0.313   1.892  13.649
   23CHL1  H18B 1657   0.487   1.889  13.695
   23CHL1  H18C 1658   0.364   1.865  13.822
   23CHL1   C12 1659   0.506   2.114  13.834
   23CHL1  H12A 1660   0.602   2.078  13.792
   23CHL1  H12B 1661   0.502   2.225  13.835
   23CHL1   C11 1662   0.503   2.067  13.980
   23CHL1  H11A 1663   0.534   1.960  13.978
   23CHL1  H11B 1664   0.578   2.121  14.040
   23CHL1    C9 1665   0.370   2.101  14.051
   23CHL1    H9 1666   0.376   2.212  14.061
   23CHL1   C10 1667   0.351   2.048  14.193
   23CHL1   C19 1668   0.383   1.901  14.182
   23CHL1  H19A 1669   0.330   1.846  14.102
   23CHL1  H19B 1670   0.488   1.898  14.154
   23CHL1  H19C 1671   0.368   1.849  14.278
   23CHL1    C1 1672   0.447   2.120  14.291
   23CHL1   H1A 1673   0.546   2.079  14.271
   23CHL1   H1B 1674   0.451   2.230  14.270
   23CHL1    C2 1675   0.424   2.092  14.440
   23CHL1   H2A 1676   0.489   2.154  14.504
   23CHL1   H2B 1677   0.451   1.985  14.457
   23CHL1   C20 1678   0.421   2.092  13.489
   23CHL1   H20 1679   0.420   1.983  13.466
   23CHL1   C21 1680   0.555   2.123  13.521
   23CHL1  H21A 1681   0.604   2.031  13.563
   23CHL1  H21B 1682   0.571   2.209  13.587
   23CHL1  H21C 1683   0.603   2.157  13.429
   23CHL1   C22 1684   0.384   2.175  13.366
   23CHL1  H22A 1685   0.278   2.154  13.346
   23CHL1  H22B 1686   0.402   2.284  13.388
   23CHL1   C23 1687   0.451   2.140  13.234
   23CHL1  H23A 1688   0.559   2.166  13.242
   23CHL1  H23B 1689   0.445   2.034  13.207
   23CHL1   C24 1690   0.381   2.221  13.124
   23CHL1  H24A 1691   0.273   2.225  13.111
   23CHL1  H24B 1692   0.394   2.323  13.167
   23CHL1   C25 1693   0.435   2.194  12.982
   23CHL1   H25 1694   0.397   2.103  12.932
   23CHL1   C26 1695   0.365   2.309  12.887
   23CHL1  H26A 1696   0.366   2.415  12.921
   23CHL1  H26B 1697   0.403   2.315  12.785
   23CHL1  H26C 1698   0.257   2.304  12.869
   23CHL1   C27 1699   0.591   2.142  12.997
   23CHL1  H27A 1700   0.675   2.190  13.045
   23CHL1  H27B 1701   0.627   2.066  13.069
   23CHL1  H27C 1702   0.642   2.158  12.903
   24CHL1    C3 1703   1.157   6.770  14.486
   24CHL1    H3 1704   1.048   6.767  14.461
   24CHL1    O3 1705   1.181   6.711  14.611
   24CHL1   H3' 1706   1.277   6.721  14.620
   24CHL1    C4 1707   1.239   6.694  14.380
   24CHL1   H4A 1708   1.345   6.698  14.411
   24CHL1   H4B 1709   1.208   6.588  14.381
   24CHL1    C5 1710   1.223   6.751  14.241
   24CHL1    C6 1711   1.176   6.676  14.140
   24CHL1    H6 1712   1.159   6.568  14.158
   24CHL1    C7 1713   1.146   6.728  14.001
   24CHL1   H7A 1714   1.195   6.665  13.924
   24CHL1   H7B 1715   1.037   6.721  13.984
   24CHL1    C8 1716   1.196   6.874  13.978
   24CHL1    H8 1717   1.305   6.873  13.967
   24CHL1   C14 1718   1.134   6.939  13.853
   24CHL1   H14 1719   1.030   6.957  13.873
   24CHL1   C15 1720   1.123   6.863  13.718
   24CHL1  H15A 1721   1.220   6.818  13.692
   24CHL1  H15B 1722   1.044   6.785  13.720
   24CHL1   C16 1723   1.085   6.973  13.618
   24CHL1  H16A 1724   1.159   6.977  13.536
   24CHL1  H16B 1725   0.986   6.954  13.570
   24CHL1   C17 1726   1.084   7.108  13.697
   24CHL1   H17 1727   0.978   7.124  13.731
   24CHL1   C13 1728   1.165   7.084  13.827
   24CHL1   C18 1729   1.315   7.098  13.809
   24CHL1  H18A 1730   1.336   7.201  13.777
   24CHL1  H18B 1731   1.369   7.084  13.905
   24CHL1  H18C 1732   1.351   7.024  13.735
   24CHL1   C12 1733   1.118   7.167  13.948
   24CHL1  H12A 1734   1.147   7.273  13.939
   24CHL1  H12B 1735   1.007   7.165  13.944
   24CHL1   C11 1736   1.177   7.113  14.081
   24CHL1  H11A 1737   1.283   7.141  14.084
   24CHL1  H11B 1738   1.126   7.166  14.164
   24CHL1    C9 1739   1.170   6.958  14.104
   24CHL1    H9 1740   1.066   6.932  14.127
   24CHL1   C10 1741   1.243   6.903  14.230
   24CHL1   C19 1742   1.390   6.941  14.232
   24CHL1  H19A 1743   1.400   7.052  14.241
   24CHL1  H19B 1744   1.436   6.896  14.322
   24CHL1  H19C 1745   1.439   6.905  14.140
   24CHL1    C1 1746   1.184   6.969  14.352
   24CHL1   H1A 1747   1.201   7.079  14.352
   24CHL1   H1B 1748   1.078   6.940  14.332
   24CHL1    C2 1749   1.202   6.915  14.493
   24CHL1   H2A 1750   1.140   6.975  14.564
   24CHL1   H2B 1751   1.307   6.924  14.525
   24CHL1   C20 1752   1.123   7.221  13.604
   24CHL1   H20 1753   1.221   7.198  13.559
   24CHL1   C21 1754   1.143   7.354  13.673
   24CHL1  H21A 1755   1.217   7.356  13.754
   24CHL1  H21B 1756   1.046   7.381  13.717
   24CHL1  H21C 1757   1.178   7.432  13.602
   24CHL1   C22 1758   1.022   7.231  13.487
   24CHL1  H22A 1759   0.952   7.146  13.485
   24CHL1  H22B 1760   0.951   7.313  13.507
   24CHL1   C23 1761   1.093   7.238  13.351
   24CHL1  H23A 1762   1.163   7.326  13.347
   24CHL1  H23B 1763   1.158   7.149  13.338
   24CHL1   C24 1764   0.988   7.236  13.239
   24CHL1  H24A 1765   0.960   7.135  13.207
   24CHL1  H24B 1766   0.902   7.301  13.268
   24CHL1   C25 1767   1.043   7.281  13.108
   24CHL1   H25 1768   1.068   7.378  13.159
   24CHL1   C26 1769   1.174   7.191  13.062
   24CHL1  H26A 1770   1.162   7.084  13.064
   24CHL1  H26B 1771   1.213   7.209  12.959
   24CHL1  H26C 1772   1.271   7.221  13.111
   24CHL1   C27 1773   0.941   7.333  12.997
   24CHL1  H27A 1774   0.898   7.254  12.939
   24CHL1  H27B 1775   0.860   7.396  13.034
   24CHL1  H27C 1776   0.982   7.402  12.920
   25CHL1    C3 1777   7.224   1.378  14.484
   25CHL1    H3 1778   7.286   1.289  14.506
   25CHL1    O3 1779   7.196   1.440  14.608
   25CHL1   H3' 1780   7.180   1.373  14.675
   25CHL1    C4 1781   7.301   1.474  14.391
   25CHL1   H4A 1782   7.251   1.573  14.393
   25CHL1   H4B 1783   7.402   1.494  14.434
   25CHL1    C5 1784   7.308   1.423  14.248
   25CHL1    C6 1785   7.424   1.421  14.188
   25CHL1    H6 1786   7.502   1.451  14.253
   25CHL1    C7 1787   7.455   1.391  14.045
   25CHL1   H7A 1788   7.499   1.481  13.996
   25CHL1   H7B 1789   7.528   1.307  14.037
   25CHL1    C8 1790   7.325   1.367  13.966
   25CHL1    H8 1791   7.288   1.469  13.944
   25CHL1   C14 1792   7.354   1.293  13.838
   25CHL1   H14 1793   7.384   1.189  13.868
   25CHL1   C15 1794   7.474   1.343  13.756
   25CHL1  H15A 1795   7.478   1.454  13.755
   25CHL1  H15B 1796   7.567   1.302  13.801
   25CHL1   C16 1797   7.447   1.289  13.616
   25CHL1  H16A 1798   7.431   1.376  13.548
   25CHL1  H16B 1799   7.529   1.225  13.579
   25CHL1   C17 1800   7.312   1.215  13.622
   25CHL1   H17 1801   7.334   1.108  13.648
   25CHL1   C13 1802   7.236   1.273  13.745
   25CHL1   C18 1803   7.173   1.410  13.707
   25CHL1  H18A 1804   7.250   1.475  13.663
   25CHL1  H18B 1805   7.087   1.403  13.638
   25CHL1  H18C 1806   7.134   1.458  13.799
   25CHL1   C12 1807   7.135   1.186  13.824
   25CHL1  H12A 1808   7.041   1.177  13.765
   25CHL1  H12B 1809   7.175   1.084  13.842
   25CHL1   C11 1810   7.100   1.245  13.962
   25CHL1  H11A 1811   7.032   1.330  13.945
   25CHL1  H11B 1812   7.045   1.168  14.020
   25CHL1    C9 1813   7.222   1.289  14.048
   25CHL1    H9 1814   7.273   1.193  14.076
   25CHL1   C10 1815   7.184   1.366  14.179
   25CHL1   C19 1816   7.093   1.486  14.144
   25CHL1  H19A 1817   7.112   1.575  14.207
   25CHL1  H19B 1818   7.100   1.515  14.038
   25CHL1  H19C 1819   6.988   1.457  14.164
   25CHL1    C1 1820   7.110   1.275  14.281
   25CHL1   H1A 1821   7.012   1.251  14.234
   25CHL1   H1B 1822   7.163   1.179  14.295
   25CHL1    C2 1823   7.090   1.342  14.419
   25CHL1   H2A 1824   7.031   1.277  14.486
   25CHL1   H2B 1825   7.035   1.438  14.408
   25CHL1   C20 1826   7.246   1.221  13.486
   25CHL1   H20 1827   7.181   1.310  13.470
   25CHL1   C21 1828   7.159   1.109  13.497
   25CHL1  H21A 1829   7.097   1.122  13.587
   25CHL1  H21B 1830   7.199   1.005  13.499
   25CHL1  H21C 1831   7.101   1.125  13.405
   25CHL1   C22 1832   7.330   1.192  13.359
   25CHL1  H22A 1833   7.391   1.283  13.348
   25CHL1  H22B 1834   7.392   1.104  13.384
   25CHL1   C23 1835   7.265   1.166  13.219
   25CHL1  H23A 1836   7.201   1.075  13.217
   25CHL1  H23B 1837   7.201   1.253  13.193
   25CHL1   C24 1838   7.377   1.148  13.112
   25CHL1  H24A 1839   7.459   1.218  13.141
   25CHL1  H24B 1840   7.419   1.045  13.120
   25CHL1   C25 1841   7.347   1.180  12.963
   25CHL1   H25 1842   7.293   1.095  12.915
   25CHL1   C26 1843   7.262   1.305  12.946
   25CHL1  H26A 1844   7.276   1.345  12.843
   25CHL1  H26B 1845   7.154   1.283  12.961
   25CHL1  H26C 1846   7.293   1.383  13.018
   25CHL1   C27 1847   7.478   1.207  12.885
   25CHL1  H27A 1848   7.457   1.234  12.780
   25CHL1  H27B 1849   7.528   1.294  12.933
   25CHL1  H27C 1850   7.549   1.122  12.887
   26CHL1    C3 1851   1.658   0.057  14.484
   26CHL1    H3 1852   1.732  -0.025  14.500
   26CHL1    O3 1853   1.575   0.064  14.597
   26CHL1   H3' 1854   1.634   0.047  14.671
   26CHL1    C4 1855   1.725   0.193  14.468
   26CHL1   H4A 1856   1.643   0.266  14.461
   26CHL1   H4B 1857   1.784   0.218  14.559
   26CHL1    C5 1858   1.810   0.205  14.345
   26CHL1    C6 1859   1.937   0.246  14.346
   26CHL1    H6 1860   1.985   0.278  14.440
   26CHL1    C7 1861   2.012   0.263  14.217
   26CHL1   H7A 1862   2.071   0.358  14.218
   26CHL1   H7B 1863   2.086   0.180  14.214
   26CHL1    C8 1864   1.925   0.250  14.086
   26CHL1    H8 1865   1.856   0.327  14.055
   26CHL1   C14 1866   2.010   0.237  13.966
   26CHL1   H14 1867   2.070   0.146  13.987
   26CHL1   C15 1868   2.112   0.343  13.940
   26CHL1  H15A 1869   2.098   0.447  13.968
   26CHL1  H15B 1870   2.189   0.310  14.008
   26CHL1   C16 1871   2.139   0.323  13.792
   26CHL1  H16A 1872   2.128   0.418  13.733
   26CHL1  H16B 1873   2.236   0.276  13.781
   26CHL1   C17 1874   2.062   0.204  13.741
   26CHL1   H17 1875   2.121   0.115  13.774
   26CHL1   C13 1876   1.942   0.210  13.833
   26CHL1   C18 1877   1.857   0.321  13.785
   26CHL1  H18A 1878   1.815   0.299  13.685
   26CHL1  H18B 1879   1.770   0.343  13.850
   26CHL1  H18C 1880   1.918   0.414  13.775
   26CHL1   C12 1881   1.857   0.089  13.851
   26CHL1  H12A 1882   1.802   0.068  13.757
   26CHL1  H12B 1883   1.929   0.008  13.876
   26CHL1   C11 1884   1.758   0.107  13.966
   26CHL1  H11A 1885   1.682   0.183  13.939
   26CHL1  H11B 1886   1.708   0.010  13.976
   26CHL1    C9 1887   1.830   0.138  14.100
   26CHL1    H9 1888   1.895   0.052  14.124
   26CHL1   C10 1889   1.736   0.161  14.219
   26CHL1   C19 1890   1.640   0.274  14.185
   26CHL1  H19A 1891   1.566   0.241  14.112
   26CHL1  H19B 1892   1.601   0.329  14.272
   26CHL1  H19C 1893   1.682   0.354  14.129
   26CHL1    C1 1894   1.657   0.031  14.240
   26CHL1   H1A 1895   1.590   0.015  14.153
   26CHL1   H1B 1896   1.732  -0.050  14.245
   26CHL1    C2 1897   1.570   0.026  14.364
   26CHL1   H2A 1898   1.523  -0.074  14.373
   26CHL1   H2B 1899   1.490   0.102  14.351
   26CHL1   C20 1900   2.056   0.212  13.589
   26CHL1   H20 1901   2.003   0.307  13.561
   26CHL1   C21 1902   1.978   0.094  13.533
   26CHL1  H21A 1903   1.964   0.102  13.423
   26CHL1  H21B 1904   1.877   0.095  13.578
   26CHL1  H21C 1905   2.032   0.001  13.557
   26CHL1   C22 1906   2.193   0.225  13.519
   26CHL1  H22A 1907   2.229   0.324  13.549
   26CHL1  H22B 1908   2.268   0.147  13.546
   26CHL1   C23 1909   2.184   0.242  13.368
   26CHL1  H23A 1910   2.143   0.153  13.315
   26CHL1  H23B 1911   2.119   0.332  13.349
   26CHL1   C24 1912   2.315   0.270  13.301
   26CHL1  H24A 1913   2.381   0.327  13.368
   26CHL1  H24B 1914   2.377   0.181  13.280
   26CHL1   C25 1915   2.276   0.343  13.172
   26CHL1   H25 1916   2.226   0.442  13.195
   26CHL1   C26 1917   2.395   0.369  13.101
   26CHL1  H26A 1918   2.475   0.292  13.104
   26CHL1  H26B 1919   2.382   0.407  13.002
   26CHL1  H26C 1920   2.413   0.455  13.162
   26CHL1   C27 1921   2.210   0.270  13.060
   26CHL1  H27A 1922   2.170   0.349  12.992
   26CHL1  H27B 1923   2.287   0.213  13.001
   26CHL1  H27C 1924   2.136   0.202  13.100
   27CHL1    C3 1925   0.282   6.702  14.482
   27CHL1    H3 1926   0.304   6.593  14.475
   27CHL1    O3 1927   0.303   6.749  14.614
   27CHL1   H3' 1928   0.225   6.719  14.665
   27CHL1    C4 1929   0.384   6.769  14.389
   27CHL1   H4A 1930   0.386   6.880  14.413
   27CHL1   H4B 1931   0.488   6.744  14.414
   27CHL1    C5 1932   0.355   6.721  14.245
   27CHL1    C6 1933   0.444   6.676  14.156
   27CHL1    H6 1934   0.546   6.661  14.190
   27CHL1    C7 1935   0.417   6.656  14.009
   27CHL1   H7A 1936   0.510   6.669  13.950
   27CHL1   H7B 1937   0.379   6.553  13.996
   27CHL1    C8 1938   0.308   6.750  13.954
   27CHL1    H8 1939   0.342   6.853  13.962
   27CHL1   C14 1940   0.264   6.724  13.807
   27CHL1   H14 1941   0.247   6.616  13.810
   27CHL1   C15 1942   0.366   6.723  13.696
   27CHL1  H15A 1943   0.420   6.807  13.731
   27CHL1  H15B 1944   0.439   6.643  13.688
   27CHL1   C16 1945   0.293   6.747  13.566
   27CHL1  H16A 1946   0.324   6.844  13.523
   27CHL1  H16B 1947   0.308   6.666  13.491
   27CHL1   C17 1948   0.146   6.755  13.603
   27CHL1   H17 1949   0.100   6.655  13.615
   27CHL1   C13 1950   0.145   6.806  13.746
   27CHL1   C18 1951   0.170   6.952  13.744
   27CHL1  H18A 1952   0.087   7.014  13.705
   27CHL1  H18B 1953   0.173   6.974  13.850
   27CHL1  H18C 1954   0.267   6.975  13.699
   27CHL1   C12 1955   0.023   6.790  13.832
   27CHL1  H12A 1956  -0.070   6.843  13.826
   27CHL1  H12B 1957  -0.035   6.715  13.780
   27CHL1   C11 1958   0.068   6.787  13.981
   27CHL1  H11A 1959   0.046   6.883  14.000
   27CHL1  H11B 1960   0.005   6.750  14.057
   27CHL1    C9 1961   0.192   6.727  14.044
   27CHL1    H9 1962   0.172   6.617  14.041
   27CHL1   C10 1963   0.215   6.745  14.202
   27CHL1   C19 1964   0.220   6.879  14.258
   27CHL1  H19A 1965   0.310   6.941  14.228
   27CHL1  H19B 1966   0.119   6.907  14.226
   27CHL1  H19C 1967   0.197   6.927  14.354
   27CHL1    C1 1968   0.110   6.681  14.292
   27CHL1   H1A 1969   0.005   6.708  14.268
   27CHL1   H1B 1970   0.123   6.574  14.271
   27CHL1    C2 1971   0.132   6.719  14.441
   27CHL1   H2A 1972   0.070   6.652  14.501
   27CHL1   H2B 1973   0.093   6.822  14.464
   27CHL1   C20 1974   0.082   6.823  13.485
   27CHL1   H20 1975   0.125   6.922  13.460
   27CHL1   C21 1976  -0.047   6.854  13.520
   27CHL1  H21A 1977  -0.044   6.949  13.575
   27CHL1  H21B 1978  -0.101   6.768  13.572
   27CHL1  H21C 1979  -0.107   6.894  13.438
   27CHL1   C22 1980   0.052   6.735  13.367
   27CHL1  H22A 1981   0.148   6.685  13.349
   27CHL1  H22B 1982  -0.025   6.659  13.396
   27CHL1   C23 1983   0.000   6.807  13.241
   27CHL1  H23A 1984  -0.032   6.731  13.168
   27CHL1  H23B 1985  -0.089   6.870  13.258
   27CHL1   C24 1986   0.105   6.896  13.176
   27CHL1  H24A 1987   0.057   6.949  13.091
   27CHL1  H24B 1988   0.142   6.975  13.245
   27CHL1   C25 1989   0.221   6.813  13.121
   27CHL1   H25 1990   0.263   6.745  13.199
   27CHL1   C26 1991   0.177   6.731  13.000
   27CHL1  H26A 1992   0.268   6.699  12.945
   27CHL1  H26B 1993   0.122   6.641  13.030
   27CHL1  H26C 1994   0.113   6.788  12.932
   27CHL1   C27 1995   0.331   6.907  13.077
   27CHL1  H27A 1996   0.299   6.976  12.997
   27CHL1  H27B 1997   0.354   6.970  13.166
   27CHL1  H27C 1998   0.419   6.848  13.044
   28CHL1    C3 1999   0.281   0.720  14.480
   28CHL1    H3 2000   0.175   0.683  14.478
   28CHL1    O3 2001   0.317   0.746  14.614
   28CHL1   H3' 2002   0.326   0.843  14.616
   28CHL1    C4 2003   0.366   0.608  14.422
   28CHL1   H4A 2004   0.474   0.620  14.444
   28CHL1   H4B 2005   0.333   0.516  14.478
   28CHL1    C5 2006   0.347   0.592  14.273
   28CHL1    C6 2007   0.339   0.470  14.223
   28CHL1    H6 2008   0.346   0.383  14.292
   28CHL1    C7 2009   0.332   0.447  14.076
   28CHL1   H7A 2010   0.418   0.382  14.051
   28CHL1   H7B 2011   0.248   0.387  14.047
   28CHL1    C8 2012   0.320   0.572  13.984
   28CHL1    H8 2013   0.426   0.593  13.962
   28CHL1   C14 2014   0.234   0.564  13.855
   28CHL1   H14 2015   0.130   0.534  13.874
   28CHL1   C15 2016   0.273   0.469  13.770
   28CHL1  H15A 2017   0.384   0.478  13.794
   28CHL1  H15B 2018   0.234   0.377  13.811
   28CHL1   C16 2019   0.246   0.470  13.619
   28CHL1  H16A 2020   0.340   0.471  13.558
   28CHL1  H16B 2021   0.190   0.381  13.580
   28CHL1   C17 2022   0.176   0.600  13.626
   28CHL1   H17 2023   0.072   0.573  13.658
   28CHL1   C13 2024   0.245   0.666  13.748
   28CHL1   C18 2025   0.396   0.694  13.711
   28CHL1  H18A 2026   0.402   0.778  13.641
   28CHL1  H18B 2027   0.455   0.714  13.802
   28CHL1  H18C 2028   0.450   0.611  13.661
   28CHL1   C12 2029   0.169   0.772  13.817
   28CHL1  H12A 2030   0.175   0.860  13.752
   28CHL1  H12B 2031   0.063   0.736  13.827
   28CHL1   C11 2032   0.231   0.804  13.954
   28CHL1  H11A 2033   0.331   0.846  13.929
   28CHL1  H11B 2034   0.165   0.880  13.998
   28CHL1    C9 2035   0.254   0.686  14.054
   28CHL1    H9 2036   0.151   0.652  14.084
   28CHL1   C10 2037   0.326   0.718  14.185
   28CHL1   C19 2038   0.467   0.777  14.157
   28CHL1  H19A 2039   0.459   0.877  14.110
   28CHL1  H19B 2040   0.524   0.788  14.251
   28CHL1  H19C 2041   0.529   0.714  14.089
   28CHL1    C1 2042   0.236   0.819  14.260
   28CHL1   H1A 2043   0.219   0.911  14.201
   28CHL1   H1B 2044   0.137   0.770  14.275
   28CHL1    C2 2045   0.289   0.849  14.399
   28CHL1   H2A 2046   0.224   0.925  14.447
   28CHL1   H2B 2047   0.393   0.889  14.394
   28CHL1   C20 2048   0.170   0.665  13.491
   28CHL1   H20 2049   0.267   0.647  13.437
   28CHL1   C21 2050   0.145   0.815  13.499
   28CHL1  H21A 2051   0.046   0.833  13.546
   28CHL1  H21B 2052   0.146   0.858  13.397
   28CHL1  H21C 2053   0.223   0.868  13.556
   28CHL1   C22 2054   0.055   0.600  13.415
   28CHL1  H22A 2055   0.055   0.489  13.425
   28CHL1  H22B 2056  -0.042   0.638  13.455
   28CHL1   C23 2057   0.059   0.631  13.269
   28CHL1  H23A 2058  -0.034   0.593  13.227
   28CHL1  H23B 2059   0.075   0.738  13.247
   28CHL1   C24 2060   0.157   0.549  13.196
   28CHL1  H24A 2061   0.259   0.557  13.237
   28CHL1  H24B 2062   0.125   0.441  13.204
   28CHL1   C25 2063   0.156   0.595  13.053
   28CHL1   H25 2064   0.057   0.570  13.004
   28CHL1   C26 2065   0.207   0.731  13.014
   28CHL1  H26A 2066   0.159   0.806  13.076
   28CHL1  H26B 2067   0.317   0.728  13.030
   28CHL1  H26C 2068   0.189   0.752  12.906
   28CHL1   C27 2069   0.268   0.519  13.000
   28CHL1  H27A 2070   0.374   0.531  13.012
   28CHL1  H27B 2071   0.247   0.417  13.041
   28CHL1  H27C 2072   0.252   0.540  12.891
   29CHL1    C3 2073   3.689   3.247  11.017
   29CHL1    H3 2074   3.732   3.344  11.050
   29CHL1    O3 2075   3.698   3.237  10.876
   29CHL1   H3' 2076   3.790   3.257  10.855
   29CHL1    C4 2077   3.774   3.137  11.084
   29CHL1   H4A 2078   3.747   3.037  11.040
   29CHL1   H4B 2079   3.880   3.143  11.056
   29CHL1    C5 2080   3.764   3.158  11.235
   29CHL1    C6 2081   3.864   3.173  11.323
   29CHL1    H6 2082   3.967   3.169  11.289
   29CHL1    C7 2083   3.845   3.187  11.471
   29CHL1   H7A 2084   3.923   3.131  11.526
   29CHL1   H7B 2085   3.852   3.295  11.500
   29CHL1    C8 2086   3.707   3.145  11.523
   29CHL1    H8 2087   3.707   3.033  11.525
   29CHL1   C14 2088   3.686   3.213  11.659
   29CHL1   H14 2089   3.672   3.321  11.637
   29CHL1   C15 2090   3.794   3.197  11.767
   29CHL1  H15A 2091   3.846   3.099  11.761
   29CHL1  H15B 2092   3.867   3.277  11.751
   29CHL1   C16 2093   3.722   3.215  11.903
   29CHL1  H16A 2094   3.739   3.132  11.973
   29CHL1  H16B 2095   3.753   3.312  11.947
   29CHL1   C17 2096   3.572   3.234  11.870
   29CHL1   H17 2097   3.573   3.341  11.849
   29CHL1   C13 2098   3.560   3.183  11.728
   29CHL1   C18 2099   3.583   3.043  11.750
   29CHL1  H18A 2100   3.628   2.999  11.840
   29CHL1  H18B 2101   3.481   3.045  11.784
   29CHL1  H18C 2102   3.586   2.977  11.662
   29CHL1   C12 2103   3.438   3.226  11.644
   29CHL1  H12A 2104   3.336   3.190  11.671
   29CHL1  H12B 2105   3.430   3.326  11.668
   29CHL1   C11 2106   3.458   3.204  11.494
   29CHL1  H11A 2107   3.458   3.102  11.516
   29CHL1  H11B 2108   3.368   3.221  11.433
   29CHL1    C9 2109   3.601   3.202  11.431
   29CHL1    H9 2110   3.618   3.311  11.430
   29CHL1   C10 2111   3.623   3.163  11.282
   29CHL1   C19 2112   3.631   3.015  11.239
   29CHL1  H19A 2113   3.641   2.931  11.311
   29CHL1  H19B 2114   3.530   3.047  11.244
   29CHL1  H19C 2115   3.604   2.971  11.141
   29CHL1    C1 2116   3.516   3.246  11.203
   29CHL1   H1A 2117   3.410   3.212  11.219
   29CHL1   H1B 2118   3.523   3.346  11.249
   29CHL1    C2 2119   3.539   3.249  11.053
   29CHL1   H2A 2120   3.495   3.344  11.013
   29CHL1   H2B 2121   3.485   3.163  11.008
   29CHL1   C20 2122   3.473   3.196  11.987
   29CHL1   H20 2123   3.488   3.088  12.007
   29CHL1   C21 2124   3.318   3.204  11.959
   29CHL1  H21A 2125   3.271   3.291  11.923
   29CHL1  H21B 2126   3.255   3.183  12.047
   29CHL1  H21C 2127   3.288   3.152  11.867
   29CHL1   C22 2128   3.510   3.264  12.120
   29CHL1  H22A 2129   3.586   3.343  12.107
   29CHL1  H22B 2130   3.417   3.306  12.164
   29CHL1   C23 2131   3.560   3.172  12.230
   29CHL1  H23A 2132   3.466   3.122  12.248
   29CHL1  H23B 2133   3.636   3.099  12.196
   29CHL1   C24 2134   3.596   3.245  12.359
   29CHL1  H24A 2135   3.676   3.316  12.333
   29CHL1  H24B 2136   3.504   3.302  12.390
   29CHL1   C25 2137   3.647   3.160  12.478
   29CHL1   H25 2138   3.573   3.083  12.496
   29CHL1   C26 2139   3.788   3.102  12.453
   29CHL1  H26A 2140   3.854   3.187  12.428
   29CHL1  H26B 2141   3.828   3.056  12.546
   29CHL1  H26C 2142   3.793   3.026  12.373
   29CHL1   C27 2143   3.653   3.241  12.607
   29CHL1  H27A 2144   3.732   3.318  12.596
   29CHL1  H27B 2145   3.556   3.290  12.629
   29CHL1  H27C 2146   3.680   3.174  12.692
   30CHL1    C3 2147   3.955   4.650  11.012
   30CHL1    H3 2148   3.996   4.546  11.014
   30CHL1    O3 2149   3.930   4.682  10.876
   30CHL1   H3' 2150   3.901   4.774  10.870
   30CHL1    C4 2151   3.823   4.648  11.091
   30CHL1   H4A 2152   3.774   4.748  11.081
   30CHL1   H4B 2153   3.754   4.577  11.042
   30CHL1    C5 2154   3.845   4.611  11.237
   30CHL1    C6 2155   3.781   4.513  11.301
   30CHL1    H6 2156   3.708   4.452  11.246
   30CHL1    C7 2157   3.797   4.484  11.448
   30CHL1   H7A 2158   3.702   4.459  11.498
   30CHL1   H7B 2159   3.860   4.392  11.456
   30CHL1    C8 2160   3.862   4.602  11.527
   30CHL1    H8 2161   3.789   4.682  11.544
   30CHL1   C14 2162   3.904   4.552  11.662
   30CHL1   H14 2163   3.977   4.484  11.617
   30CHL1   C15 2164   3.796   4.493  11.758
   30CHL1  H15A 2165   3.708   4.560  11.751
   30CHL1  H15B 2166   3.762   4.391  11.731
   30CHL1   C16 2167   3.856   4.507  11.902
   30CHL1  H16A 2168   3.792   4.574  11.962
   30CHL1  H16B 2169   3.865   4.421  11.968
   30CHL1   C17 2170   3.999   4.563  11.886
   30CHL1   H17 2171   4.070   4.479  11.872
   30CHL1   C13 2172   3.988   4.637  11.752
   30CHL1   C18 2173   3.902   4.749  11.783
   30CHL1  H18A 2174   3.877   4.801  11.689
   30CHL1  H18B 2175   3.804   4.734  11.833
   30CHL1  H18C 2176   3.965   4.815  11.847
   30CHL1   C12 2177   4.115   4.680  11.684
   30CHL1  H12A 2178   4.160   4.768  11.740
   30CHL1  H12B 2179   4.178   4.591  11.690
   30CHL1   C11 2180   4.099   4.719  11.536
   30CHL1  H11A 2181   4.077   4.816  11.569
   30CHL1  H11B 2182   4.193   4.743  11.483
   30CHL1    C9 2183   3.985   4.651  11.449
   30CHL1    H9 2184   4.030   4.560  11.412
   30CHL1   C10 2185   3.951   4.694  11.305
   30CHL1   C19 2186   3.872   4.817  11.319
   30CHL1  H19A 2187   3.795   4.822  11.400
   30CHL1  H19B 2188   3.961   4.874  11.347
   30CHL1  H19C 2189   3.833   4.868  11.230
   30CHL1    C1 2190   4.082   4.712  11.221
   30CHL1   H1A 2191   4.148   4.790  11.267
   30CHL1   H1B 2192   4.138   4.616  11.224
   30CHL1    C2 2193   4.058   4.746  11.073
   30CHL1   H2A 2194   4.153   4.736  11.016
   30CHL1   H2B 2195   4.024   4.851  11.064
   30CHL1   C20 2196   4.048   4.637  12.010
   30CHL1   H20 2197   4.002   4.737  12.016
   30CHL1   C21 2198   4.197   4.660  11.998
   30CHL1  H21A 2199   4.251   4.681  12.092
   30CHL1  H21B 2200   4.211   4.752  11.937
   30CHL1  H21C 2201   4.247   4.573  11.950
   30CHL1   C22 2202   4.017   4.567  12.142
   30CHL1  H22A 2203   3.908   4.548  12.152
   30CHL1  H22B 2204   4.069   4.470  12.151
   30CHL1   C23 2205   4.055   4.657  12.259
   30CHL1  H23A 2206   4.057   4.588  12.345
   30CHL1  H23B 2207   4.156   4.702  12.257
   30CHL1   C24 2208   3.953   4.771  12.265
   30CHL1  H24A 2209   3.939   4.831  12.174
   30CHL1  H24B 2210   3.855   4.736  12.305
   30CHL1   C25 2211   4.000   4.888  12.340
   30CHL1   H25 2212   4.097   4.930  12.314
   30CHL1   C26 2213   3.902   4.992  12.363
   30CHL1  H26A 2214   3.797   4.961  12.385
   30CHL1  H26B 2215   3.937   5.038  12.460
   30CHL1  H26C 2216   3.915   5.064  12.287
   30CHL1   C27 2217   3.997   4.849  12.469
   30CHL1  H27A 2218   3.890   4.840  12.489
   30CHL1  H27B 2219   4.054   4.757  12.494
   30CHL1  H27C 2220   4.029   4.923  12.547
   31CHL1    C3 2221   3.183   4.837  11.011
   31CHL1    H3 2222   3.084   4.798  11.047
   31CHL1    O3 2223   3.188   4.820  10.870
   31CHL1   H3' 2224   3.111   4.871  10.835
   31CHL1    C4 2225   3.194   4.986  11.045
   31CHL1   H4A 2226   3.286   5.028  11.001
   31CHL1   H4B 2227   3.108   5.038  10.997
   31CHL1    C5 2228   3.193   5.009  11.194
   31CHL1    C6 2229   3.102   5.089  11.251
   31CHL1    H6 2230   3.034   5.150  11.188
   31CHL1    C7 2231   3.091   5.103  11.399
   31CHL1   H7A 2232   3.073   5.207  11.423
   31CHL1   H7B 2233   3.000   5.045  11.427
   31CHL1    C8 2234   3.216   5.052  11.478
   31CHL1    H8 2235   3.299   5.125  11.457
   31CHL1   C14 2236   3.192   5.032  11.629
   31CHL1   H14 2237   3.112   4.956  11.641
   31CHL1   C15 2238   3.129   5.142  11.700
   31CHL1  H15A 2239   3.163   5.218  11.626
   31CHL1  H15B 2240   3.019   5.142  11.698
   31CHL1   C16 2241   3.182   5.143  11.846
   31CHL1  H16A 2242   3.255   5.223  11.869
   31CHL1  H16B 2243   3.098   5.150  11.918
   31CHL1   C17 2244   3.263   5.014  11.859
   31CHL1   H17 2245   3.188   4.937  11.886
   31CHL1   C13 2246   3.313   4.993  11.714
   31CHL1   C18 2247   3.433   5.090  11.692
   31CHL1  H18A 2248   3.516   5.066  11.761
   31CHL1  H18B 2249   3.471   5.085  11.589
   31CHL1  H18C 2250   3.403   5.196  11.711
   31CHL1   C12 2251   3.341   4.851  11.670
   31CHL1  H12A 2252   3.432   4.813  11.720
   31CHL1  H12B 2253   3.254   4.791  11.703
   31CHL1   C11 2254   3.358   4.841  11.516
   31CHL1  H11A 2255   3.459   4.878  11.490
   31CHL1  H11B 2256   3.354   4.733  11.490
   31CHL1    C9 2257   3.256   4.917  11.426
   31CHL1    H9 2258   3.160   4.860  11.434
   31CHL1   C10 2259   3.292   4.922  11.275
   31CHL1   C19 2260   3.429   4.990  11.250
   31CHL1  H19A 2261   3.513   4.928  11.287
   31CHL1  H19B 2262   3.448   5.005  11.142
   31CHL1  H19C 2263   3.435   5.090  11.297
   31CHL1    C1 2264   3.293   4.775  11.228
   31CHL1   H1A 2265   3.379   4.721  11.273
   31CHL1   H1B 2266   3.199   4.727  11.266
   31CHL1    C2 2267   3.296   4.757  11.076
   31CHL1   H2A 2268   3.290   4.648  11.056
   31CHL1   H2B 2269   3.393   4.792  11.035
   31CHL1   C20 2270   3.363   5.019  11.975
   31CHL1   H20 2271   3.443   5.094  11.955
   31CHL1   C21 2272   3.435   4.882  11.995
   31CHL1  H21A 2273   3.495   4.856  11.907
   31CHL1  H21B 2274   3.362   4.800  12.012
   31CHL1  H21C 2275   3.505   4.886  12.081
   31CHL1   C22 2276   3.296   5.063  12.106
   31CHL1  H22A 2277   3.216   5.140  12.101
   31CHL1  H22B 2278   3.244   4.974  12.148
   31CHL1   C23 2279   3.400   5.117  12.202
   31CHL1  H23A 2280   3.498   5.067  12.185
   31CHL1  H23B 2281   3.416   5.225  12.194
   31CHL1   C24 2282   3.355   5.079  12.338
   31CHL1  H24A 2283   3.260   5.121  12.377
   31CHL1  H24B 2284   3.353   4.967  12.337
   31CHL1   C25 2285   3.452   5.110  12.441
   31CHL1   H25 2286   3.552   5.076  12.406
   31CHL1   C26 2287   3.455   5.254  12.497
   31CHL1  H26A 2288   3.356   5.280  12.528
   31CHL1  H26B 2289   3.511   5.271  12.590
   31CHL1  H26C 2290   3.487   5.328  12.424
   31CHL1   C27 2291   3.410   5.009  12.544
   31CHL1  H27A 2292   3.460   4.910  12.540
   31CHL1  H27B 2293   3.494   5.051  12.582
   31CHL1  H27C 2294   3.354   5.041  12.633
   32CHL1    C3 2295   3.929   2.462  11.014
   32CHL1    H3 2296   3.825   2.423  11.024
   32CHL1    O3 2297   3.965   2.469  10.877
   32CHL1   H3' 2298   3.928   2.389  10.837
   32CHL1    C4 2299   3.941   2.602  11.078
   32CHL1   H4A 2300   4.043   2.640  11.061
   32CHL1   H4B 2301   3.872   2.671  11.025
   32CHL1    C5 2302   3.910   2.597  11.226
   32CHL1    C6 2303   3.808   2.665  11.278
   32CHL1    H6 2304   3.743   2.729  11.216
   32CHL1    C7 2305   3.772   2.658  11.422
   32CHL1   H7A 2306   3.739   2.757  11.460
   32CHL1   H7B 2307   3.688   2.587  11.430
   32CHL1    C8 2308   3.886   2.602  11.511
   32CHL1    H8 2309   3.964   2.681  11.521
   32CHL1   C14 2310   3.824   2.563  11.642
   32CHL1   H14 2311   3.749   2.485  11.615
   32CHL1   C15 2312   3.744   2.671  11.714
   32CHL1  H15A 2313   3.796   2.769  11.710
   32CHL1  H15B 2314   3.645   2.680  11.665
   32CHL1   C16 2315   3.739   2.618  11.858
   32CHL1  H16A 2316   3.792   2.692  11.923
   32CHL1  H16B 2317   3.636   2.608  11.895
   32CHL1   C17 2318   3.822   2.485  11.862
   32CHL1   H17 2319   3.753   2.401  11.835
   32CHL1   C13 2320   3.918   2.499  11.744
   32CHL1   C18 2321   4.026   2.602  11.784
   32CHL1  H18A 2322   4.061   2.660  11.697
   32CHL1  H18B 2323   3.989   2.677  11.857
   32CHL1  H18C 2324   4.112   2.551  11.830
   32CHL1   C12 2325   3.971   2.368  11.681
   32CHL1  H12A 2326   4.036   2.309  11.748
   32CHL1  H12B 2327   3.883   2.305  11.655
   32CHL1   C11 2328   4.041   2.397  11.547
   32CHL1  H11A 2329   4.137   2.448  11.568
   32CHL1  H11B 2330   4.064   2.299  11.500
   32CHL1    C9 2331   3.946   2.475  11.451
   32CHL1    H9 2332   3.859   2.405  11.440
   32CHL1   C10 2333   3.995   2.497  11.309
   32CHL1   C19 2334   4.134   2.555  11.323
   32CHL1  H19A 2335   4.164   2.570  11.218
   32CHL1  H19B 2336   4.136   2.651  11.378
   32CHL1  H19C 2337   4.210   2.488  11.367
   32CHL1    C1 2338   4.001   2.361  11.233
   32CHL1   H1A 2339   4.076   2.294  11.281
   32CHL1   H1B 2340   3.900   2.316  11.246
   32CHL1    C2 2341   4.026   2.365  11.082
   32CHL1   H2A 2342   4.012   2.262  11.040
   32CHL1   H2B 2343   4.128   2.399  11.056
   32CHL1   C20 2344   3.874   2.452  12.004
   32CHL1   H20 2345   3.939   2.534  12.042
   32CHL1   C21 2346   3.959   2.323  12.006
   32CHL1  H21A 2347   4.063   2.343  11.971
   32CHL1  H21B 2348   3.914   2.246  11.942
   32CHL1  H21C 2349   3.968   2.283  12.110
   32CHL1   C22 2350   3.752   2.444  12.097
   32CHL1  H22A 2351   3.699   2.543  12.097
   32CHL1  H22B 2352   3.679   2.367  12.063
   32CHL1   C23 2353   3.783   2.423  12.243
   32CHL1  H23A 2354   3.829   2.325  12.265
   32CHL1  H23B 2355   3.849   2.504  12.282
   32CHL1   C24 2356   3.657   2.429  12.319
   32CHL1  H24A 2357   3.603   2.525  12.296
   32CHL1  H24B 2358   3.582   2.348  12.303
   32CHL1   C25 2359   3.696   2.421  12.462
   32CHL1   H25 2360   3.756   2.510  12.498
   32CHL1   C26 2361   3.566   2.431  12.514
   32CHL1  H26A 2362   3.532   2.526  12.466
   32CHL1  H26B 2363   3.476   2.369  12.510
   32CHL1  H26C 2364   3.601   2.446  12.619
   32CHL1   C27 2365   3.752   2.294  12.522
   32CHL1  H27A 2366   3.766   2.306  12.631
   32CHL1  H27B 2367   3.678   2.213  12.503
   32CHL1  H27C 2368   3.850   2.277  12.477
   33CHL1    C3 2369   2.097   3.544  11.015
   33CHL1    H3 2370   2.207   3.541  11.036
   33CHL1    O3 2371   2.078   3.558  10.876
   33CHL1   H3' 2372   1.984   3.536  10.865
   33CHL1    C4 2373   2.031   3.414  11.061
   33CHL1   H4A 2374   1.926   3.404  11.025
   33CHL1   H4B 2375   2.084   3.331  11.009
   33CHL1    C5 2376   2.037   3.407  11.213
   33CHL1    C6 2377   2.090   3.301  11.265
   33CHL1    H6 2378   2.099   3.239  11.184
   33CHL1    C7 2379   2.134   3.263  11.403
   33CHL1   H7A 2380   2.114   3.158  11.435
   33CHL1   H7B 2381   2.243   3.276  11.405
   33CHL1    C8 2382   2.065   3.367  11.491
   33CHL1    H8 2383   1.959   3.333  11.493
   33CHL1   C14 2384   2.120   3.370  11.628
   33CHL1   H14 2385   2.230   3.388  11.617
   33CHL1   C15 2386   2.103   3.242  11.707
   33CHL1  H15A 2387   2.010   3.193  11.701
   33CHL1  H15B 2388   2.177   3.171  11.668
   33CHL1   C16 2389   2.103   3.290  11.852
   33CHL1  H16A 2390   2.044   3.237  11.925
   33CHL1  H16B 2391   2.187   3.241  11.896
   33CHL1   C17 2392   2.109   3.449  11.851
   33CHL1   H17 2393   2.212   3.482  11.831
   33CHL1   C13 2394   2.062   3.480  11.714
   33CHL1   C18 2395   1.911   3.459  11.731
   33CHL1  H18A 2396   1.888   3.369  11.791
   33CHL1  H18B 2397   1.865   3.546  11.782
   33CHL1  H18C 2398   1.864   3.446  11.633
   33CHL1   C12 2399   2.112   3.614  11.659
   33CHL1  H12A 2400   2.085   3.697  11.725
   33CHL1  H12B 2401   2.223   3.618  11.646
   33CHL1   C11 2402   2.048   3.629  11.525
   33CHL1  H11A 2403   1.939   3.639  11.542
   33CHL1  H11B 2404   2.086   3.723  11.481
   33CHL1    C9 2405   2.079   3.508  11.432
   33CHL1    H9 2406   2.189   3.517  11.412
   33CHL1   C10 2407   2.008   3.523  11.299
   33CHL1   C19 2408   1.854   3.515  11.315
   33CHL1  H19A 2409   1.821   3.596  11.382
   33CHL1  H19B 2410   1.804   3.527  11.216
   33CHL1  H19C 2411   1.821   3.418  11.357
   33CHL1    C1 2412   2.056   3.653  11.236
   33CHL1   H1A 2413   2.003   3.737  11.285
   33CHL1   H1B 2414   2.165   3.663  11.257
   33CHL1    C2 2415   2.030   3.661  11.087
   33CHL1   H2A 2416   2.067   3.760  11.053
   33CHL1   H2B 2417   1.921   3.656  11.070
   33CHL1   C20 2418   2.039   3.530  11.969
   33CHL1   H20 2419   1.934   3.498  11.980
   33CHL1   C21 2420   2.068   3.678  11.978
   33CHL1  H21A 2421   2.172   3.704  11.949
   33CHL1  H21B 2422   2.057   3.710  12.085
   33CHL1  H21C 2423   1.989   3.723  11.918
   33CHL1   C22 2424   2.101   3.500  12.099
   33CHL1  H22A 2425   2.065   3.398  12.077
   33CHL1  H22B 2426   2.204   3.536  12.078
   33CHL1   C23 2427   2.073   3.517  12.247
   33CHL1  H23A 2428   2.041   3.618  12.268
   33CHL1  H23B 2429   2.000   3.434  12.271
   33CHL1   C24 2430   2.192   3.512  12.348
   33CHL1  H24A 2431   2.209   3.415  12.330
   33CHL1  H24B 2432   2.301   3.525  12.335
   33CHL1   C25 2433   2.142   3.532  12.490
   33CHL1   H25 2434   2.110   3.636  12.479
   33CHL1   C26 2435   2.032   3.432  12.541
   33CHL1  H26A 2436   2.061   3.330  12.569
   33CHL1  H26B 2437   1.993   3.470  12.637
   33CHL1  H26C 2438   1.954   3.419  12.465
   33CHL1   C27 2439   2.249   3.540  12.591
   33CHL1  H27A 2440   2.353   3.559  12.554
   33CHL1  H27B 2441   2.232   3.570  12.696
   33CHL1  H27C 2442   2.237   3.434  12.607
   34CHL1    C3 2443   4.522   5.117  11.011
   34CHL1    H3 2444   4.529   5.011  11.045
   34CHL1    O3 2445   4.483   5.126  10.876
   34CHL1   H3' 2446   4.439   5.041  10.869
   34CHL1    C4 2447   4.423   5.192  11.100
   34CHL1   H4A 2448   4.414   5.299  11.068
   34CHL1   H4B 2449   4.328   5.139  11.080
   34CHL1    C5 2450   4.467   5.177  11.244
   34CHL1    C6 2451   4.398   5.100  11.326
   34CHL1    H6 2452   4.300   5.069  11.290
   34CHL1    C7 2453   4.431   5.075  11.471
   34CHL1   H7A 2454   4.342   5.082  11.538
   34CHL1   H7B 2455   4.468   4.973  11.485
   34CHL1    C8 2456   4.533   5.179  11.523
   34CHL1    H8 2457   4.490   5.281  11.537
   34CHL1   C14 2458   4.587   5.133  11.656
   34CHL1   H14 2459   4.640   5.038  11.632
   34CHL1   C15 2460   4.492   5.101  11.770
   34CHL1  H15A 2461   4.414   5.179  11.770
   34CHL1  H15B 2462   4.451   4.999  11.759
   34CHL1   C16 2463   4.578   5.112  11.895
   34CHL1  H16A 2464   4.537   5.191  11.962
   34CHL1  H16B 2465   4.586   5.017  11.951
   34CHL1   C17 2466   4.716   5.161  11.845
   34CHL1   H17 2467   4.782   5.073  11.831
   34CHL1   C13 2468   4.686   5.226  11.717
   34CHL1   C18 2469   4.632   5.367  11.751
   34CHL1  H18A 2470   4.570   5.365  11.843
   34CHL1  H18B 2471   4.717   5.438  11.766
   34CHL1  H18C 2472   4.570   5.409  11.671
   34CHL1   C12 2473   4.800   5.233  11.625
   34CHL1  H12A 2474   4.871   5.296  11.676
   34CHL1  H12B 2475   4.857   5.143  11.617
   34CHL1   C11 2476   4.753   5.283  11.491
   34CHL1  H11A 2477   4.730   5.390  11.501
   34CHL1  H11B 2478   4.836   5.285  11.427
   34CHL1    C9 2479   4.645   5.195  11.424
   34CHL1    H9 2480   4.687   5.092  11.413
   34CHL1   C10 2481   4.598   5.239  11.282
   34CHL1   C19 2482   4.593   5.396  11.276
   34CHL1  H19A 2483   4.557   5.436  11.372
   34CHL1  H19B 2484   4.693   5.442  11.256
   34CHL1  H19C 2485   4.525   5.434  11.198
   34CHL1    C1 2486   4.686   5.172  11.174
   34CHL1   H1A 2487   4.766   5.243  11.167
   34CHL1   H1B 2488   4.720   5.071  11.206
   34CHL1    C2 2489   4.655   5.177  11.026
   34CHL1   H2A 2490   4.736   5.125  10.969
   34CHL1   H2B 2491   4.651   5.284  10.993
   34CHL1   C20 2492   4.777   5.256  11.944
   34CHL1   H20 2493   4.709   5.327  11.994
   34CHL1   C21 2494   4.905   5.316  11.904
   34CHL1  H21A 2495   4.979   5.250  11.852
   34CHL1  H21B 2496   4.950   5.340  12.001
   34CHL1  H21C 2497   4.894   5.413  11.854
   34CHL1   C22 2498   4.819   5.187  12.061
   34CHL1  H22A 2499   4.738   5.117  12.066
   34CHL1  H22B 2500   4.906   5.131  12.018
   34CHL1   C23 2501   4.832   5.283  12.191
   34CHL1  H23A 2502   4.927   5.324  12.191
   34CHL1  H23B 2503   4.750   5.353  12.211
   34CHL1   C24 2504   4.896   5.239  12.328
   34CHL1  H24A 2505   4.816   5.193  12.271
   34CHL1  H24B 2506   4.988   5.184  12.324
   34CHL1   C25 2507   4.877   5.225  12.490
   34CHL1   H25 2508   4.961   5.279  12.485
   34CHL1   C26 2509   4.749   5.301  12.526
   34CHL1  H26A 2510   4.747   5.332  12.632
   34CHL1  H26B 2511   4.720   5.362  12.438
   34CHL1  H26C 2512   4.656   5.247  12.532
   34CHL1   C27 2513   4.943   5.107  12.598
   34CHL1  H27A 2514   4.873   5.036  12.642
   34CHL1  H27B 2515   5.019   5.040  12.555
   34CHL1  H27C 2516   4.980   5.126  12.699
   35CHL1    C3 2517   2.389   4.966  11.005
   35CHL1    H3 2518   2.294   4.911  10.987
   35CHL1    O3 2519   2.454   5.000  10.883
   35CHL1   H3' 2520   2.465   4.917  10.833
   35CHL1    C4 2521   2.365   5.100  11.077
   35CHL1   H4A 2522   2.462   5.154  11.073
   35CHL1   H4B 2523   2.297   5.164  11.016
   35CHL1    C5 2524   2.320   5.085  11.221
   35CHL1    C6 2525   2.200   5.129  11.266
   35CHL1    H6 2526   2.130   5.178  11.197
   35CHL1    C7 2527   2.155   5.116  11.409
   35CHL1   H7A 2528   2.106   5.206  11.451
   35CHL1   H7B 2529   2.075   5.040  11.416
   35CHL1    C8 2530   2.273   5.084  11.503
   35CHL1    H8 2531   2.339   5.174  11.513
   35CHL1   C14 2532   2.214   5.044  11.637
   35CHL1   H14 2533   2.149   4.956  11.610
   35CHL1   C15 2534   2.122   5.143  11.710
   35CHL1  H15A 2535   2.169   5.244  11.714
   35CHL1  H15B 2536   2.023   5.153  11.660
   35CHL1   C16 2537   2.116   5.089  11.853
   35CHL1  H16A 2538   2.150   5.172  11.920
   35CHL1  H16B 2539   2.015   5.058  11.885
   35CHL1   C17 2540   2.219   4.972  11.862
   35CHL1   H17 2541   2.164   4.877  11.843
   35CHL1   C13 2542   2.312   4.991  11.740
   35CHL1   C18 2543   2.415   5.101  11.774
   35CHL1  H18A 2544   2.489   5.065  11.848
   35CHL1  H18B 2545   2.472   5.134  11.684
   35CHL1  H18C 2546   2.363   5.190  11.813
   35CHL1   C12 2547   2.379   4.867  11.680
   35CHL1  H12A 2548   2.451   4.826  11.753
   35CHL1  H12B 2549   2.305   4.788  11.656
   35CHL1   C11 2550   2.453   4.905  11.550
   35CHL1  H11A 2551   2.534   4.976  11.576
   35CHL1  H11B 2552   2.501   4.813  11.513
   35CHL1    C9 2553   2.357   4.970  11.445
   35CHL1    H9 2554   2.282   4.891  11.422
   35CHL1   C10 2555   2.420   5.005  11.308
   35CHL1   C19 2556   2.555   5.083  11.326
   35CHL1  H19A 2557   2.622   5.031  11.396
   35CHL1  H19B 2558   2.611   5.089  11.231
   35CHL1  H19C 2559   2.538   5.187  11.360
   35CHL1    C1 2560   2.443   4.869  11.234
   35CHL1   H1A 2561   2.519   4.808  11.289
   35CHL1   H1B 2562   2.346   4.814  11.234
   35CHL1    C2 2563   2.485   4.879  11.087
   35CHL1   H2A 2564   2.489   4.776  11.044
   35CHL1   H2B 2565   2.586   4.925  11.086
   35CHL1   C20 2566   2.278   4.962  12.004
   35CHL1   H20 2567   2.329   5.058  12.030
   35CHL1   C21 2568   2.382   4.849  12.013
   35CHL1  H21A 2569   2.411   4.821  12.116
   35CHL1  H21B 2570   2.478   4.878  11.964
   35CHL1  H21C 2571   2.343   4.758  11.963
   35CHL1   C22 2572   2.163   4.939  12.106
   35CHL1  H22A 2573   2.094   5.026  12.106
   35CHL1  H22B 2574   2.104   4.852  12.069
   35CHL1   C23 2575   2.207   4.911  12.251
   35CHL1  H23A 2576   2.127   4.846  12.290
   35CHL1  H23B 2577   2.291   4.841  12.260
   35CHL1   C24 2578   2.237   5.042  12.330
   35CHL1  H24A 2579   2.297   5.107  12.266
   35CHL1  H24B 2580   2.146   5.104  12.338
   35CHL1   C25 2581   2.310   5.028  12.470
   35CHL1   H25 2582   2.411   4.992  12.444
   35CHL1   C26 2583   2.317   5.157  12.549
   35CHL1  H26A 2584   2.214   5.190  12.579
   35CHL1  H26B 2585   2.375   5.138  12.642
   35CHL1  H26C 2586   2.367   5.232  12.486
   35CHL1   C27 2587   2.259   4.925  12.568
   35CHL1  H27A 2588   2.247   4.836  12.506
   35CHL1  H27B 2589   2.313   4.900  12.653
   35CHL1  H27C 2590   2.166   4.947  12.624
   36CHL1    C3 2591   3.373   1.844  11.016
   36CHL1    H3 2592   3.265   1.867  11.031
   36CHL1    O3 2593   3.395   1.841  10.876
   36CHL1   H3' 2594   3.346   1.764  10.846
   36CHL1    C4 2595   3.452   1.957  11.084
   36CHL1   H4A 2596   3.558   1.961  11.049
   36CHL1   H4B 2597   3.406   2.052  11.049
   36CHL1    C5 2598   3.446   1.954  11.236
   36CHL1    C6 2599   3.429   2.061  11.311
   36CHL1    H6 2600   3.409   2.156  11.261
   36CHL1    C7 2601   3.441   2.060  11.460
   36CHL1   H7A 2602   3.499   2.146  11.499
   36CHL1   H7B 2603   3.338   2.064  11.501
   36CHL1    C8 2604   3.509   1.936  11.519
   36CHL1    H8 2605   3.620   1.943  11.509
   36CHL1   C14 2606   3.475   1.940  11.663
   36CHL1   H14 2607   3.364   1.932  11.669
   36CHL1   C15 2608   3.509   2.068  11.744
   36CHL1  H15A 2609   3.611   2.109  11.724
   36CHL1  H15B 2610   3.432   2.147  11.737
   36CHL1   C16 2611   3.503   2.020  11.885
   36CHL1  H16A 2612   3.603   2.038  11.928
   36CHL1  H16B 2613   3.433   2.066  11.957
   36CHL1   C17 2614   3.473   1.871  11.871
   36CHL1   H17 2615   3.364   1.853  11.882
   36CHL1   C13 2616   3.520   1.819  11.735
   36CHL1   C18 2617   3.671   1.802  11.726
   36CHL1  H18A 2618   3.716   1.720  11.786
   36CHL1  H18B 2619   3.712   1.788  11.626
   36CHL1  H18C 2620   3.708   1.898  11.759
   36CHL1   C12 2621   3.455   1.695  11.674
   36CHL1  H12A 2622   3.490   1.606  11.725
   36CHL1  H12B 2623   3.345   1.706  11.680
   36CHL1   C11 2624   3.491   1.678  11.529
   36CHL1  H11A 2625   3.599   1.653  11.527
   36CHL1  H11B 2626   3.440   1.589  11.487
   36CHL1    C9 2627   3.449   1.811  11.456
   36CHL1    H9 2628   3.340   1.816  11.473
   36CHL1   C10 2629   3.455   1.821  11.302
   36CHL1   C19 2630   3.592   1.809  11.281
   36CHL1  H19A 2631   3.629   1.793  11.178
   36CHL1  H19B 2632   3.668   1.868  11.336
   36CHL1  H19C 2633   3.590   1.708  11.329
   36CHL1    C1 2634   3.385   1.704  11.228
   36CHL1   H1A 2635   3.420   1.604  11.265
   36CHL1   H1B 2636   3.280   1.720  11.255
   36CHL1    C2 2637   3.402   1.704  11.074
   36CHL1   H2A 2638   3.331   1.630  11.031
   36CHL1   H2B 2639   3.504   1.672  11.044
   36CHL1   C20 2640   3.542   1.813  11.982
   36CHL1   H20 2641   3.645   1.796  11.966
   36CHL1   C21 2642   3.558   1.667  11.962
   36CHL1  H21A 2643   3.582   1.619  12.057
   36CHL1  H21B 2644   3.604   1.608  11.887
   36CHL1  H21C 2645   3.458   1.663  11.923
   36CHL1   C22 2646   3.504   1.855  12.131
   36CHL1  H22A 2647   3.523   1.964  12.152
   36CHL1  H22B 2648   3.409   1.897  12.157
   36CHL1   C23 2649   3.558   1.722  12.245
   36CHL1  H23A 2650   3.466   1.781  12.293
   36CHL1  H23B 2651   3.540   1.629  12.257
   36CHL1   C24 2652   3.759   1.674  12.323
   36CHL1  H24A 2653   3.779   1.601  12.253
   36CHL1  H24B 2654   3.851   1.745  12.304
   36CHL1   C25 2655   3.853   1.718  12.486
   36CHL1   H25 2656   3.815   1.636  12.545
   36CHL1   C26 2657   3.980   1.705  12.485
   36CHL1  H26A 2658   4.002   1.805  12.436
   36CHL1  H26B 2659   4.017   1.682  12.586
   36CHL1  H26C 2660   3.981   1.622  12.415
   36CHL1   C27 2661   3.844   1.871  12.583
   36CHL1  H27A 2662   3.863   1.857  12.688
   36CHL1  H27B 2663   3.864   1.971  12.535
   36CHL1  H27C 2664   3.740   1.917  12.599
   37CHL1    C3 2665   5.484   4.444  10.995
   37CHL1    H3 2666   5.541   4.532  10.963
   37CHL1    O3 2667   5.464   4.363  10.881
   37CHL1   H3' 2668   5.446   4.425  10.809
   37CHL1    C4 2669   5.565   4.389  11.110
   37CHL1   H4A 2670   5.505   4.301  11.130
   37CHL1   H4B 2671   5.665   4.376  11.069
   37CHL1    C5 2672   5.577   4.436  11.247
   37CHL1    C6 2673   5.694   4.456  11.302
   37CHL1    H6 2674   5.776   4.434  11.236
   37CHL1    C7 2675   5.719   4.507  11.440
   37CHL1   H7A 2676   5.790   4.448  11.499
   37CHL1   H7B 2677   5.760   4.608  11.429
   37CHL1    C8 2678   5.586   4.502  11.514
   37CHL1    H8 2679   5.559   4.396  11.534
   37CHL1   C14 2680   5.602   4.577  11.644
   37CHL1   H14 2681   5.624   4.683  11.614
   37CHL1   C15 2682   5.717   4.540  11.742
   37CHL1  H15A 2683   5.735   4.431  11.745
   37CHL1  H15B 2684   5.808   4.598  11.717
   37CHL1   C16 2685   5.667   4.580  11.879
   37CHL1  H16A 2686   5.648   4.493  11.947
   37CHL1  H16B 2687   5.732   4.652  11.933
   37CHL1   C17 2688   5.529   4.637  11.852
   37CHL1   H17 2689   5.543   4.738  11.811
   37CHL1   C13 2690   5.474   4.579  11.723
   37CHL1   C18 2691   5.425   4.438  11.763
   37CHL1  H18A 2692   5.476   4.403  11.855
   37CHL1  H18B 2693   5.316   4.441  11.784
   37CHL1  H18C 2694   5.443   4.365  11.686
   37CHL1   C12 2695   5.375   4.662  11.633
   37CHL1  H12A 2696   5.277   4.679  11.680
   37CHL1  H12B 2697   5.414   4.763  11.606
   37CHL1   C11 2698   5.347   4.588  11.503
   37CHL1  H11A 2699   5.292   4.495  11.529
   37CHL1  H11B 2700   5.282   4.651  11.440
   37CHL1    C9 2701   5.475   4.557  11.425
   37CHL1    H9 2702   5.514   4.655  11.385
   37CHL1   C10 2703   5.447   4.466  11.304
   37CHL1   C19 2704   5.383   4.328  11.342
   37CHL1  H19A 2705   5.351   4.273  11.251
   37CHL1  H19B 2706   5.452   4.259  11.396
   37CHL1  H19C 2707   5.292   4.342  11.401
   37CHL1    C1 2708   5.371   4.539  11.189
   37CHL1   H1A 2709   5.273   4.569  11.227
   37CHL1   H1B 2710   5.430   4.630  11.161
   37CHL1    C2 2711   5.349   4.463  11.057
   37CHL1   H2A 2712   5.292   4.520  10.981
   37CHL1   H2B 2713   5.298   4.365  11.074
   37CHL1   C20 2714   5.453   4.620  11.982
   37CHL1   H20 2715   5.433   4.519  12.020
   37CHL1   C21 2716   5.319   4.655  11.934
   37CHL1  H21A 2717   5.263   4.603  11.859
   37CHL1  H21B 2718   5.322   4.752  11.876
   37CHL1  H21C 2719   5.253   4.653  12.022
   37CHL1   C22 2720   5.522   4.696  12.100
   37CHL1  H22A 2721   5.631   4.698  12.098
   37CHL1  H22B 2722   5.507   4.802  12.108
   37CHL1   C23 2723   5.472   4.685  12.238
   37CHL1  H23A 2724   5.366   4.653  12.233
   37CHL1  H23B 2725   5.517   4.598  12.285
   37CHL1   C24 2726   5.511   4.822  12.308
   37CHL1  H24A 2727   5.467   4.920  12.318
   37CHL1  H24B 2728   5.430   4.822  12.380
   37CHL1   C25 2729   5.664   4.859  12.315
   37CHL1   H25 2730   5.692   4.892  12.213
   37CHL1   C26 2731   5.699   4.973  12.415
   37CHL1  H26A 2732   5.656   4.968  12.517
   37CHL1  H26B 2733   5.808   4.965  12.436
   37CHL1  H26C 2734   5.673   5.072  12.374
   37CHL1   C27 2735   5.757   4.741  12.350
   37CHL1  H27A 2736   5.728   4.639  12.315
   37CHL1  H27B 2737   5.862   4.761  12.368
   37CHL1  H27C 2738   5.753   4.735  12.457
   38CHL1    C3 2739   2.946   5.628  11.012
   38CHL1    H3 2740   3.014   5.715  11.026
   38CHL1    O3 2741   2.923   5.610  10.874
   38CHL1   H3' 2742   3.009   5.595  10.834
   38CHL1    C4 2743   3.014   5.500  11.061
   38CHL1   H4A 2744   2.953   5.414  11.026
   38CHL1   H4B 2745   3.112   5.493  11.009
   38CHL1    C5 2746   3.031   5.495  11.211
   38CHL1    C6 2747   3.154   5.477  11.261
   38CHL1    H6 2748   3.241   5.461  11.195
   38CHL1    C7 2749   3.185   5.473  11.407
   38CHL1   H7A 2750   3.252   5.386  11.427
   38CHL1   H7B 2751   3.243   5.564  11.433
   38CHL1    C8 2752   3.056   5.468  11.495
   38CHL1    H8 2753   3.009   5.369  11.493
   38CHL1   C14 2754   3.087   5.508  11.637
   38CHL1   H14 2755   3.123   5.612  11.630
   38CHL1   C15 2756   3.204   5.446  11.711
   38CHL1  H15A 2757   3.154   5.357  11.734
   38CHL1  H15B 2758   3.301   5.422  11.663
   38CHL1   C16 2759   3.191   5.483  11.855
   38CHL1  H16A 2760   3.196   5.397  11.926
   38CHL1  H16B 2761   3.270   5.553  11.880
   38CHL1   C17 2762   3.049   5.545  11.865
   38CHL1   H17 2763   3.066   5.654  11.849
   38CHL1   C13 2764   2.969   5.507  11.738
   38CHL1   C18 2765   2.899   5.370  11.763
   38CHL1  H18A 2766   2.971   5.298  11.802
   38CHL1  H18B 2767   2.825   5.374  11.846
   38CHL1  H18C 2768   2.849   5.330  11.673
   38CHL1   C12 2769   2.870   5.610  11.683
   38CHL1  H12A 2770   2.777   5.607  11.745
   38CHL1  H12B 2771   2.914   5.712  11.682
   38CHL1   C11 2772   2.830   5.579  11.539
   38CHL1  H11A 2773   2.769   5.487  11.545
   38CHL1  H11B 2774   2.765   5.662  11.501
   38CHL1    C9 2775   2.949   5.563  11.441
   38CHL1    H9 2776   3.001   5.663  11.440
   38CHL1   C10 2777   2.906   5.530  11.296
   38CHL1   C19 2778   2.807   5.409  11.300
   38CHL1  H19A 2779   2.854   5.320  11.346
   38CHL1  H19B 2780   2.716   5.432  11.358
   38CHL1  H19C 2781   2.771   5.382  11.199
   38CHL1    C1 2782   2.836   5.655  11.236
   38CHL1   H1A 2783   2.736   5.670  11.284
   38CHL1   H1B 2784   2.899   5.744  11.256
   38CHL1    C2 2785   2.813   5.649  11.085
   38CHL1   H2A 2786   2.761   5.741  11.050
   38CHL1   H2B 2787   2.747   5.563  11.064
   38CHL1   C20 2788   2.994   5.525  12.006
   38CHL1   H20 2789   2.969   5.417  12.023
   38CHL1   C21 2790   2.869   5.611  12.027
   38CHL1  H21A 2791   2.841   5.609  12.134
   38CHL1  H21B 2792   2.785   5.571  11.967
   38CHL1  H21C 2793   2.888   5.717  12.000
   38CHL1   C22 2794   3.097   5.564  12.113
   38CHL1  H22A 2795   3.198   5.588  12.074
   38CHL1  H22B 2796   3.060   5.659  12.158
   38CHL1   C23 2797   3.109   5.466  12.229
   38CHL1  H23A 2798   3.005   5.445  12.263
   38CHL1  H23B 2799   3.156   5.369  12.200
   38CHL1   C24 2800   3.190   5.535  12.339
   38CHL1  H24A 2801   3.295   5.549  12.304
   38CHL1  H24B 2802   3.145   5.635  12.356
   38CHL1   C25 2803   3.192   5.465  12.474
   38CHL1   H25 2804   3.213   5.358  12.454
   38CHL1   C26 2805   3.296   5.527  12.566
   38CHL1  H26A 2806   3.311   5.463  12.656
   38CHL1  H26B 2807   3.395   5.543  12.518
   38CHL1  H26C 2808   3.259   5.626  12.603
   38CHL1   C27 2809   3.060   5.471  12.547
   38CHL1  H27A 2810   2.982   5.421  12.486
   38CHL1  H27B 2811   3.071   5.418  12.644
   38CHL1  H27C 2812   3.034   5.577  12.565
   39CHL1    C3 2813   4.248   6.076  11.006
   39CHL1    H3 2814   4.283   6.182  11.001
   39CHL1    O3 2815   4.239   6.019  10.876
   39CHL1   H3' 2816   4.170   6.070  10.832
   39CHL1    C4 2817   4.352   5.999  11.085
   39CHL1   H4A 2818   4.331   5.890  11.075
   39CHL1   H4B 2819   4.449   6.016  11.034
   39CHL1    C5 2820   4.354   6.049  11.228
   39CHL1    C6 2821   4.461   6.104  11.286
   39CHL1    H6 2822   4.554   6.123  11.231
   39CHL1    C7 2823   4.455   6.139  11.432
   39CHL1   H7A 2824   4.555   6.120  11.477
   39CHL1   H7B 2825   4.425   6.244  11.437
   39CHL1    C8 2826   4.339   6.081  11.517
   39CHL1    H8 2827   4.361   5.974  11.534
   39CHL1   C14 2828   4.322   6.149  11.651
   39CHL1   H14 2829   4.307   6.260  11.640
   39CHL1   C15 2830   4.443   6.120  11.732
   39CHL1  H15A 2831   4.490   6.023  11.709
   39CHL1  H15B 2832   4.506   6.208  11.731
   39CHL1   C16 2833   4.392   6.105  11.870
   39CHL1  H16A 2834   4.422   6.084  11.972
   39CHL1  H16B 2835   4.502   6.115  11.886
   39CHL1   C17 2836   4.248   6.173  11.873
   39CHL1   H17 2837   4.225   6.279  11.846
   39CHL1   C13 2838   4.210   6.102  11.745
   39CHL1   C18 2839   4.226   5.950  11.783
   39CHL1  H18A 2840   4.231   5.892  11.691
   39CHL1  H18B 2841   4.313   5.911  11.838
   39CHL1  H18C 2842   4.143   5.921  11.850
   39CHL1   C12 2843   4.084   6.138  11.667
   39CHL1  H12A 2844   3.995   6.110  11.725
   39CHL1  H12B 2845   4.081   6.249  11.650
   39CHL1   C11 2846   4.089   6.068  11.530
   39CHL1  H11A 2847   4.089   5.959  11.549
   39CHL1  H11B 2848   3.998   6.091  11.473
   39CHL1    C9 2849   4.213   6.104  11.444
   39CHL1    H9 2850   4.208   6.216  11.431
   39CHL1   C10 2851   4.220   6.041  11.303
   39CHL1   C19 2852   4.189   5.892  11.310
   39CHL1  H19A 2853   4.194   5.837  11.214
   39CHL1  H19B 2854   4.259   5.842  11.381
   39CHL1  H19C 2855   4.085   5.878  11.343
   39CHL1    C1 2856   4.117   6.119  11.219
   39CHL1   H1A 2857   4.017   6.109  11.266
   39CHL1   H1B 2858   4.146   6.226  11.227
   39CHL1    C2 2859   4.110   6.072  11.073
   39CHL1   H2A 2860   4.040   6.135  11.015
   39CHL1   H2B 2861   4.072   5.967  11.072
   39CHL1   C20 2862   4.174   6.149  12.007
   39CHL1   H20 2863   4.206   6.048  12.040
   39CHL1   C21 2864   4.022   6.149  11.992
   39CHL1  H21A 2865   3.987   6.245  11.950
   39CHL1  H21B 2866   3.975   6.132  12.092
   39CHL1  H21C 2867   3.995   6.064  11.928
   39CHL1   C22 2868   4.197   6.240  12.128
   39CHL1  H22A 2869   4.293   6.287  12.141
   39CHL1  H22B 2870   4.128   6.327  12.132
   39CHL1   C23 2871   4.210   6.162  12.256
   39CHL1  H23A 2872   4.115   6.110  12.278
   39CHL1  H23B 2873   4.296   6.092  12.249
   39CHL1   C24 2874   4.246   6.260  12.363
   39CHL1  H24A 2875   4.338   6.319  12.341
   39CHL1  H24B 2876   4.165   6.333  12.349
   39CHL1   C25 2877   4.269   6.203  12.502
   39CHL1   H25 2878   4.351   6.131  12.500
   39CHL1   C26 2879   4.314   6.326  12.574
   39CHL1  H26A 2880   4.292   6.348  12.678
   39CHL1  H26B 2881   4.410   6.375  12.557
   39CHL1  H26C 2882   4.231   6.369  12.623
   39CHL1   C27 2883   4.152   6.130  12.570
   39CHL1  H27A 2884   4.091   6.213  12.602
   39CHL1  H27B 2885   4.097   6.059  12.505
   39CHL1  H27C 2886   4.150   6.094  12.673
   40CHL1    C3 2887   5.970   2.987  11.014
   40CHL1    H3 2888   6.005   3.089  11.045
   40CHL1    O3 2889   6.007   2.963  10.879
   40CHL1   H3' 2890   5.963   3.030  10.828
   40CHL1    C4 2891   6.040   2.883  11.102
   40CHL1   H4A 2892   6.019   2.779  11.070
   40CHL1   H4B 2893   6.149   2.900  11.087
   40CHL1    C5 2894   5.996   2.904  11.244
   40CHL1    C6 2895   6.088   2.927  11.338
   40CHL1    H6 2896   6.196   2.916  11.318
   40CHL1    C7 2897   6.050   2.940  11.481
   40CHL1   H7A 2898   6.137   2.899  11.535
   40CHL1   H7B 2899   6.048   3.045  11.514
   40CHL1    C8 2900   5.907   2.881  11.511
   40CHL1    H8 2901   5.895   2.775  11.481
   40CHL1   C14 2902   5.871   2.917  11.657
   40CHL1   H14 2903   5.875   3.026  11.652
   40CHL1   C15 2904   5.965   2.890  11.773
   40CHL1  H15A 2905   5.963   2.783  11.789
   40CHL1  H15B 2906   6.070   2.920  11.765
   40CHL1   C16 2907   5.896   2.920  11.900
   40CHL1  H16A 2908   5.937   2.848  11.973
   40CHL1  H16B 2909   5.929   3.013  11.944
   40CHL1   C17 2910   5.746   2.930  11.860
   40CHL1   H17 2911   5.725   3.037  11.856
   40CHL1   C13 2912   5.731   2.894  11.710
   40CHL1   C18 2913   5.697   2.758  11.721
   40CHL1  H18A 2914   5.766   2.721  11.647
   40CHL1  H18B 2915   5.738   2.717  11.808
   40CHL1  H18C 2916   5.594   2.715  11.717
   40CHL1   C12 2917   5.635   2.952  11.610
   40CHL1  H12A 2918   5.537   2.913  11.627
   40CHL1  H12B 2919   5.642   3.059  11.633
   40CHL1   C11 2920   5.659   2.908  11.463
   40CHL1  H11A 2921   5.617   2.808  11.450
   40CHL1  H11B 2922   5.591   2.962  11.396
   40CHL1    C9 2923   5.804   2.936  11.416
   40CHL1    H9 2924   5.815   3.045  11.431
   40CHL1   C10 2925   5.841   2.901  11.269
   40CHL1   C19 2926   5.780   2.763  11.229
   40CHL1  H19A 2927   5.785   2.696  11.315
   40CHL1  H19B 2928   5.673   2.766  11.202
   40CHL1  H19C 2929   5.832   2.715  11.143
   40CHL1    C1 2930   5.779   3.007  11.177
   40CHL1   H1A 2931   5.669   3.002  11.191
   40CHL1   H1B 2932   5.813   3.109  11.208
   40CHL1    C2 2933   5.817   2.986  11.030
   40CHL1   H2A 2934   5.773   3.070  10.973
   40CHL1   H2B 2935   5.774   2.890  10.994
   40CHL1   C20 2936   5.655   2.867  11.963
   40CHL1   H20 2937   5.645   2.756  11.961
   40CHL1   C21 2938   5.524   2.898  11.929
   40CHL1  H21A 2939   5.502   2.817  11.857
   40CHL1  H21B 2940   5.498   2.994  11.883
   40CHL1  H21C 2941   5.459   2.879  12.017
   40CHL1   C22 2942   5.676   2.907  12.104
   40CHL1  H22A 2943   5.781   2.883  12.128
   40CHL1  H22B 2944   5.657   3.016  12.101
   40CHL1   C23 2945   5.586   2.842  12.209
   40CHL1  H23A 2946   5.482   2.883  12.205
   40CHL1  H23B 2947   5.579   2.732  12.198
   40CHL1   C24 2948   5.645   2.887  12.341
   40CHL1  H24A 2949   5.754   2.875  12.343
   40CHL1  H24B 2950   5.619   2.996  12.351
   40CHL1   C25 2951   5.593   2.812  12.461
   40CHL1   H25 2952   5.618   2.875  12.551
   40CHL1   C26 2953   5.449   2.800  12.453
   40CHL1  H26A 2954   5.433   2.907  12.445
   40CHL1  H26B 2955   5.397   2.740  12.376
   40CHL1  H26C 2956   5.427   2.756  12.550
   40CHL1   C27 2957   5.626   2.668  12.479
   40CHL1  H27A 2958   5.575   2.629  12.571
   40CHL1  H27B 2959   5.589   2.611  12.393
   40CHL1  H27C 2960   5.733   2.653  12.489
   41CHL1    C3 2961   4.986   5.907  11.007
   41CHL1    H3 2962   4.926   5.997  10.983
   41CHL1    O3 2963   5.036   5.849  10.888
   41CHL1   H3' 2964   4.959   5.824  10.834
   41CHL1    C4 2965   5.106   5.945  11.097
   41CHL1   H4A 2966   5.183   5.866  11.088
   41CHL1   H4B 2967   5.151   6.034  11.049
   41CHL1    C5 2968   5.076   5.970  11.244
   41CHL1    C6 2969   5.117   6.079  11.309
   41CHL1    H6 2970   5.178   6.153  11.256
   41CHL1    C7 2971   5.092   6.105  11.456
   41CHL1   H7A 2972   5.182   6.148  11.504
   41CHL1   H7B 2973   5.008   6.176  11.467
   41CHL1    C8 2974   5.052   5.976  11.530
   41CHL1    H8 2975   5.146   5.916  11.532
   41CHL1   C14 2976   5.005   6.005  11.673
   41CHL1   H14 2977   4.917   6.073  11.670
   41CHL1   C15 2978   5.107   6.068  11.769
   41CHL1  H15A 2979   5.209   6.025  11.754
   41CHL1  H15B 2980   5.116   6.177  11.754
   41CHL1   C16 2981   5.057   6.027  11.910
   41CHL1  H16A 2982   5.142   5.983  11.966
   41CHL1  H16B 2983   5.015   6.114  11.963
   41CHL1   C17 2984   4.941   5.923  11.891
   41CHL1   H17 2985   4.845   5.979  11.894
   41CHL1   C13 2986   4.954   5.884  11.745
   41CHL1   C18 2987   5.069   5.797  11.750
   41CHL1  H18A 2988   5.028   5.705  11.797
   41CHL1  H18B 2989   5.111   5.775  11.652
   41CHL1  H18C 2990   5.156   5.828  11.810
   41CHL1   C12 2991   4.834   5.820  11.672
   41CHL1  H12A 2992   4.795   5.728  11.720
   41CHL1  H12B 2993   4.753   5.896  11.673
   41CHL1   C11 2994   4.869   5.788  11.526
   41CHL1  H11A 2995   4.926   5.692  11.524
   41CHL1  H11B 2996   4.774   5.771  11.473
   41CHL1    C9 2997   4.942   5.903  11.452
   41CHL1    H9 2998   4.864   5.981  11.435
   41CHL1   C10 2999   4.987   5.864  11.311
   41CHL1   C19 3000   5.070   5.735  11.325
   41CHL1  H19A 3001   5.145   5.736  11.246
   41CHL1  H19B 3002   5.130   5.730  11.418
   41CHL1  H19C 3003   5.009   5.643  11.317
   41CHL1    C1 3004   4.861   5.852  11.220
   41CHL1   H1A 3005   4.789   5.780  11.265
   41CHL1   H1B 3006   4.811   5.950  11.212
   41CHL1    C2 3007   4.892   5.809  11.077
   41CHL1   H2A 3008   4.798   5.791  11.020
   41CHL1   H2B 3009   4.947   5.716  11.089
   41CHL1   C20 3010   4.935   5.818  12.005
   41CHL1   H20 3011   5.034   5.769  12.019
   41CHL1   C21 3012   4.834   5.702  11.978
   41CHL1  H21A 3013   4.733   5.742  11.956
   41CHL1  H21B 3014   4.826   5.635  12.066
   41CHL1  H21C 3015   4.865   5.636  11.894
   41CHL1   C22 3016   4.898   5.890  12.137
   41CHL1  H22A 3017   4.862   5.993  12.112
   41CHL1  H22B 3018   4.810   5.839  12.181
   41CHL1   C23 3019   5.007   5.901  12.245
   41CHL1  H23A 3020   5.090   5.968  12.212
   41CHL1  H23B 3021   4.961   5.947  12.335
   41CHL1   C24 3022   5.066   5.768  12.293
   41CHL1  H24A 3023   4.982   5.697  12.310
   41CHL1  H24B 3024   5.130   5.723  12.214
   41CHL1   C25 3025   5.150   5.788  12.423
   41CHL1   H25 3026   5.079   5.813  12.505
   41CHL1   C26 3027   5.221   5.665  12.468
   41CHL1  H26A 3028   5.141   5.597  12.446
   41CHL1  H26B 3029   5.301   5.633  12.401
   41CHL1  H26C 3030   5.253   5.655  12.573
   41CHL1   C27 3031   5.265   5.882  12.404
   41CHL1  H27A 3032   5.322   5.851  12.314
   41CHL1  H27B 3033   5.231   5.986  12.395
   41CHL1  H27C 3034   5.330   5.874  12.493
   42CHL1    C3 3035   5.966   4.988  11.015
   42CHL1    H3 3036   5.864   4.966  11.054
   42CHL1    O3 3037   5.968   4.979  10.873
   42CHL1   H3' 3038   5.892   4.924  10.850
   42CHL1    C4 3039   6.021   5.123  11.060
   42CHL1   H4A 3040   6.124   5.132  11.019
   42CHL1   H4B 3041   5.962   5.207  11.019
   42CHL1    C5 3042   6.024   5.130  11.210
   42CHL1    C6 3043   5.949   5.217  11.276
   42CHL1    H6 3044   5.889   5.287  11.218
   42CHL1    C7 3045   5.959   5.234  11.424
   42CHL1   H7A 3046   5.971   5.338  11.451
   42CHL1   H7B 3047   5.874   5.199  11.480
   42CHL1    C8 3048   6.078   5.164  11.485
   42CHL1    H8 3049   6.167   5.223  11.454
   42CHL1   C14 3050   6.072   5.162  11.635
   42CHL1   H14 3051   5.991   5.106  11.674
   42CHL1   C15 3052   6.025   5.274  11.718
   42CHL1  H15A 3053   6.077   5.332  11.643
   42CHL1  H15B 3054   5.965   5.358  11.713
   42CHL1   C16 3055   6.076   5.241  11.860
   42CHL1  H16A 3056   6.127   5.320  11.910
   42CHL1  H16B 3057   6.031   5.270  11.952
   42CHL1   C17 3058   6.145   5.107  11.853
   42CHL1   H17 3059   6.051   5.052  11.871
   42CHL1   C13 3060   6.181   5.089  11.701
   42CHL1   C18 3061   6.322   5.119  11.639
   42CHL1  H18A 3062   6.340   5.094  11.535
   42CHL1  H18B 3063   6.348   5.224  11.626
   42CHL1  H18C 3064   6.398   5.080  11.709
   42CHL1   C12 3065   6.143   4.951  11.664
   42CHL1  H12A 3066   6.208   4.906  11.735
   42CHL1  H12B 3067   6.042   4.920  11.699
   42CHL1   C11 3068   6.160   4.925  11.515
   42CHL1  H11A 3069   6.267   4.919  11.487
   42CHL1  H11B 3070   6.116   4.827  11.493
   42CHL1    C9 3071   6.080   5.024  11.430
   42CHL1    H9 3072   5.975   4.985  11.442
   42CHL1   C10 3073   6.111   5.025  11.280
   42CHL1   C19 3074   6.262   5.053  11.258
   42CHL1  H19A 3075   6.325   4.971  11.295
   42CHL1  H19B 3076   6.289   5.068  11.151
   42CHL1  H19C 3077   6.291   5.145  11.312
   42CHL1    C1 3078   6.069   4.889  11.225
   42CHL1   H1A 3079   6.148   4.818  11.260
   42CHL1   H1B 3080   5.971   4.859  11.268
   42CHL1    C2 3081   6.056   4.883  11.074
   42CHL1   H2A 3082   6.009   4.789  11.041
   42CHL1   H2B 3083   6.160   4.896  11.034
   42CHL1   C20 3084   6.221   5.054  11.976
   42CHL1   H20 3085   6.313   5.105  11.970
   42CHL1   C21 3086   6.326   4.947  11.972
   42CHL1  H21A 3087   6.403   4.956  12.052
   42CHL1  H21B 3088   6.379   4.956  11.874
   42CHL1  H21C 3089   6.255   4.869  11.991
   42CHL1   C22 3090   6.158   5.086  12.115
   42CHL1  H22A 3091   6.122   5.192  12.114
   42CHL1  H22B 3092   6.063   5.033  12.125
   42CHL1   C23 3093   6.256   5.061  12.236
   42CHL1  H23A 3094   6.277   4.956  12.257
   42CHL1  H23B 3095   6.354   5.100  12.203
   42CHL1   C24 3096   6.217   5.126  12.371
   42CHL1  H24A 3097   6.151   5.209  12.337
   42CHL1  H24B 3098   6.144   5.076  12.434
   42CHL1   C25 3099   6.336   5.166  12.469
   42CHL1   H25 3100   6.403   5.231  12.404
   42CHL1   C26 3101   6.294   5.220  12.609
   42CHL1  H26A 3102   6.205   5.276  12.586
   42CHL1  H26B 3103   6.221   5.183  12.677
   42CHL1  H26C 3104   6.365   5.295  12.652
   42CHL1   C27 3105   6.454   5.097  12.518
   42CHL1  H27A 3106   6.508   5.061  12.430
   42CHL1  H27B 3107   6.512   5.180  12.571
   42CHL1  H27C 3108   6.401   5.029  12.587
   43CHL1    C3 3109   2.688   6.454  11.010
   43CHL1    H3 3110   2.600   6.523  11.007
   43CHL1    O3 3111   2.714   6.403  10.880
   43CHL1   H3' 3112   2.724   6.480  10.824
   43CHL1    C4 3113   2.810   6.521  11.070
   43CHL1   H4A 3114   2.898   6.454  11.063
   43CHL1   H4B 3115   2.831   6.609  11.004
   43CHL1    C5 3116   2.775   6.557  11.214
   43CHL1    C6 3117   2.760   6.681  11.245
   43CHL1    H6 3118   2.794   6.746  11.163
   43CHL1    C7 3119   2.743   6.738  11.387
   43CHL1   H7A 3120   2.810   6.820  11.422
   43CHL1   H7B 3121   2.646   6.786  11.398
   43CHL1    C8 3122   2.756   6.639  11.500
   43CHL1    H8 3123   2.861   6.617  11.527
   43CHL1   C14 3124   2.690   6.702  11.619
   43CHL1   H14 3125   2.584   6.723  11.589
   43CHL1   C15 3126   2.743   6.836  11.670
   43CHL1  H15A 3127   2.854   6.833  11.665
   43CHL1  H15B 3128   2.701   6.919  11.609
   43CHL1   C16 3129   2.697   6.840  11.814
   43CHL1  H16A 3130   2.786   6.852  11.880
   43CHL1  H16B 3131   2.623   6.921  11.835
   43CHL1   C17 3132   2.628   6.706  11.836
   43CHL1   H17 3133   2.522   6.731  11.807
   43CHL1   C13 3134   2.688   6.610  11.736
   43CHL1   C18 3135   2.829   6.565  11.781
   43CHL1  H18A 3136   2.898   6.648  11.801
   43CHL1  H18B 3137   2.820   6.498  11.869
   43CHL1  H18C 3138   2.875   6.504  11.701
   43CHL1   C12 3139   2.605   6.490  11.693
   43CHL1  H12A 3140   2.606   6.412  11.771
   43CHL1  H12B 3141   2.502   6.529  11.678
   43CHL1   C11 3142   2.662   6.421  11.569
   43CHL1  H11A 3143   2.760   6.378  11.598
   43CHL1  H11B 3144   2.598   6.336  11.539
   43CHL1    C9 3145   2.679   6.519  11.453
   43CHL1    H9 3146   2.578   6.563  11.431
   43CHL1   C10 3147   2.732   6.459  11.319
   43CHL1   C19 3148   2.840   6.355  11.355
   43CHL1  H19A 3149   2.796   6.273  11.414
   43CHL1  H19B 3150   2.883   6.310  11.264
   43CHL1  H19C 3151   2.918   6.403  11.417
   43CHL1    C1 3152   2.617   6.398  11.239
   43CHL1   H1A 3153   2.589   6.317  11.302
   43CHL1   H1B 3154   2.533   6.471  11.229
   43CHL1    C2 3155   2.652   6.341  11.101
   43CHL1   H2A 3156   2.562   6.301  11.052
   43CHL1   H2B 3157   2.731   6.263  11.108
   43CHL1   C20 3158   2.630   6.660  11.975
   43CHL1   H20 3159   2.726   6.627  12.018
   43CHL1   C21 3160   2.546   6.530  11.978
   43CHL1  H21A 3161   2.519   6.516  12.082
   43CHL1  H21B 3162   2.600   6.437  11.963
   43CHL1  H21C 3163   2.458   6.521  11.907
   43CHL1   C22 3164   2.610   6.786  12.061
   43CHL1  H22A 3165   2.707   6.839  12.061
   43CHL1  H22B 3166   2.529   6.860  12.034
   43CHL1   C23 3167   2.604   6.765  12.205
   43CHL1  H23A 3168   2.498   6.749  12.222
   43CHL1  H23B 3169   2.644   6.677  12.255
   43CHL1   C24 3170   2.655   6.893  12.260
   43CHL1  H24A 3171   2.756   6.922  12.246
   43CHL1  H24B 3172   2.582   6.970  12.225
   43CHL1   C25 3173   2.689   6.905  12.401
   43CHL1   H25 3174   2.697   6.799  12.433
   43CHL1   C26 3175   2.777   7.001  12.465
   43CHL1  H26A 3176   2.789   7.027  12.571
   43CHL1  H26B 3177   2.873   6.986  12.439
   43CHL1  H26C 3178   2.749   7.100  12.451
   43CHL1   C27 3179   2.592   6.993  12.451
   43CHL1  H27A 3180   2.543   7.083  12.415
   43CHL1  H27B 3181   2.524   6.954  12.387
   43CHL1  H27C 3182   2.554   6.961  12.546
   44CHL1    C3 3183   5.758   5.706  11.008
   44CHL1    H3 3184   5.647   5.703  11.009
   44CHL1    O3 3185   5.809   5.729  10.878
   44CHL1   H3' 3186   5.756   5.671  10.818
   44CHL1    C4 3187   5.807   5.822  11.094
   44CHL1   H4A 3188   5.916   5.836  11.077
   44CHL1   H4B 3189   5.758   5.916  11.060
   44CHL1    C5 3190   5.783   5.798  11.240
   44CHL1    C6 3191   5.739   5.890  11.321
   44CHL1    H6 3192   5.717   5.983  11.272
   44CHL1    C7 3193   5.725   5.878  11.471
   44CHL1   H7A 3194   5.766   5.966  11.528
   44CHL1   H7B 3195   5.618   5.864  11.497
   44CHL1    C8 3196   5.794   5.763  11.530
   44CHL1    H8 3197   5.900   5.796  11.528
   44CHL1   C14 3198   5.734   5.742  11.672
   44CHL1   H14 3199   5.629   5.711  11.659
   44CHL1   C15 3200   5.746   5.853  11.779
   44CHL1  H15A 3201   5.840   5.915  11.770
   44CHL1  H15B 3202   5.665   5.922  11.763
   44CHL1   C16 3203   5.731   5.776  11.915
   44CHL1  H16A 3204   5.808   5.809  11.989
   44CHL1  H16B 3205   5.631   5.793  11.954
   44CHL1   C17 3206   5.748   5.622  11.891
   44CHL1   H17 3207   5.651   5.570  11.890
   44CHL1   C13 3208   5.791   5.630  11.744
   44CHL1   C18 3209   5.917   5.696  11.769
   44CHL1  H18A 3210   5.963   5.734  11.862
   44CHL1  H18B 3211   5.945   5.591  11.757
   44CHL1  H18C 3212   5.970   5.762  11.697
   44CHL1   C12 3213   5.774   5.507  11.649
   44CHL1  H12A 3214   5.804   5.416  11.694
   44CHL1  H12B 3215   5.666   5.489  11.649
   44CHL1   C11 3216   5.812   5.517  11.500
   44CHL1  H11A 3217   5.915   5.520  11.472
   44CHL1  H11B 3218   5.787   5.427  11.443
   44CHL1    C9 3219   5.766   5.645  11.437
   44CHL1    H9 3220   5.656   5.632  11.431
   44CHL1   C10 3221   5.815   5.665  11.290
   44CHL1   C19 3222   5.963   5.676  11.281
   44CHL1  H19A 3223   5.995   5.751  11.353
   44CHL1  H19B 3224   5.988   5.575  11.307
   44CHL1  H19C 3225   6.018   5.693  11.187
   44CHL1    C1 3226   5.773   5.549  11.200
   44CHL1   H1A 3227   5.820   5.457  11.236
   44CHL1   H1B 3228   5.664   5.538  11.211
   44CHL1    C2 3229   5.816   5.573  11.055
   44CHL1   H2A 3230   5.789   5.488  10.989
   44CHL1   H2B 3231   5.927   5.584  11.045
   44CHL1   C20 3232   5.832   5.556  12.008
   44CHL1   H20 3233   5.935   5.600  12.015
   44CHL1   C21 3234   5.849   5.405  11.995
   44CHL1  H21A 3235   5.913   5.361  12.076
   44CHL1  H21B 3236   5.901   5.398  11.899
   44CHL1  H21C 3237   5.760   5.341  11.987
   44CHL1   C22 3238   5.764   5.579  12.142
   44CHL1  H22A 3239   5.752   5.688  12.157
   44CHL1  H22B 3240   5.664   5.533  12.135
   44CHL1   C23 3241   5.838   5.529  12.267
   44CHL1  H23A 3242   5.798   5.573  12.358
   44CHL1  H23B 3243   5.825   5.422  12.290
   44CHL1   C24 3244   5.965   5.603  12.288
   44CHL1  H24A 3245   6.041   5.569  12.214
   44CHL1  H24B 3246   5.954   5.713  12.286
   44CHL1   C25 3247   6.014   5.578  12.427
   44CHL1   H25 3248   6.117   5.624  12.412
   44CHL1   C26 3249   5.963   5.631  12.559
   44CHL1  H26A 3250   5.878   5.570  12.589
   44CHL1  H26B 3251   6.024   5.590  12.640
   44CHL1  H26C 3252   5.956   5.740  12.573
   44CHL1   C27 3253   6.006   5.429  12.456
   44CHL1  H27A 3254   5.989   5.338  12.400
   44CHL1  H27B 3255   6.081   5.433  12.379
   44CHL1  H27C 3256   6.046   5.401  12.555
   45CHL1    C3 3257   0.865   5.176  11.015
   45CHL1    H3 3258   0.801   5.085  11.025
   45CHL1    O3 3259   0.905   5.186  10.878
   45CHL1   H3' 3260   0.927   5.096  10.854
   45CHL1    C4 3261   0.787   5.301  11.062
   45CHL1   H4A 3262   0.841   5.394  11.042
   45CHL1   H4B 3263   0.694   5.308  11.001
   45CHL1    C5 3264   0.763   5.300  11.212
   45CHL1    C6 3265   0.644   5.314  11.261
   45CHL1    H6 3266   0.563   5.337  11.191
   45CHL1    C7 3267   0.609   5.297  11.405
   45CHL1   H7A 3268   0.510   5.337  11.413
   45CHL1   H7B 3269   0.579   5.199  11.441
   45CHL1    C8 3270   0.725   5.333  11.499
   45CHL1    H8 3271   0.765   5.437  11.490
   45CHL1   C14 3272   0.689   5.300  11.642
   45CHL1   H14 3273   0.674   5.190  11.639
   45CHL1   C15 3274   0.557   5.334  11.710
   45CHL1  H15A 3275   0.523   5.425  11.698
   45CHL1  H15B 3276   0.461   5.300  11.672
   45CHL1   C16 3277   0.587   5.364  11.854
   45CHL1  H16A 3278   0.581   5.467  11.885
   45CHL1  H16B 3279   0.510   5.316  11.910
   45CHL1   C17 3280   0.729   5.315  11.875
   45CHL1   H17 3281   0.714   5.206  11.887
   45CHL1   C13 3282   0.800   5.334  11.741
   45CHL1   C18 3283   0.864   5.476  11.739
   45CHL1  H18A 3284   0.795   5.555  11.773
   45CHL1  H18B 3285   0.946   5.484  11.812
   45CHL1  H18C 3286   0.904   5.502  11.639
   45CHL1   C12 3287   0.907   5.234  11.705
   45CHL1  H12A 3288   0.991   5.248  11.775
   45CHL1  H12B 3289   0.861   5.134  11.720
   45CHL1   C11 3290   0.953   5.248  11.559
   45CHL1  H11A 3291   1.011   5.342  11.550
   45CHL1  H11B 3292   1.020   5.163  11.537
   45CHL1    C9 3293   0.838   5.245  11.455
   45CHL1    H9 3294   0.794   5.143  11.458
   45CHL1   C10 3295   0.878   5.271  11.306
   45CHL1   C19 3296   0.966   5.396  11.298
   45CHL1  H19A 3297   1.061   5.376  11.352
   45CHL1  H19B 3298   0.993   5.418  11.193
   45CHL1  H19C 3299   0.917   5.485  11.343
   45CHL1    C1 3300   0.951   5.148  11.250
   45CHL1   H1A 3301   1.041   5.134  11.314
   45CHL1   H1B 3302   0.883   5.060  11.264
   45CHL1    C2 3303   0.990   5.156  11.101
   45CHL1   H2A 3304   1.039   5.062  11.069
   45CHL1   H2B 3305   1.062   5.239  11.083
   45CHL1   C20 3306   0.794   5.381  11.997
   45CHL1   H20 3307   0.818   5.486  11.979
   45CHL1   C21 3308   0.917   5.293  12.033
   45CHL1  H21A 3309   0.999   5.320  11.966
   45CHL1  H21B 3310   0.897   5.184  12.023
   45CHL1  H21C 3311   0.949   5.311  12.137
   45CHL1   C22 3312   0.701   5.397  12.118
   45CHL1  H22A 3313   0.594   5.416  12.103
   45CHL1  H22B 3314   0.713   5.294  12.111
   45CHL1   C23 3315   0.755   5.445  12.254
   45CHL1  H23A 3316   0.823   5.364  12.294
   45CHL1  H23B 3317   0.808   5.537  12.235
   45CHL1   C24 3318   0.653   5.504  12.362
   45CHL1  H24A 3319   0.548   5.512  12.332
   45CHL1  H24B 3320   0.649   5.412  12.387
   45CHL1   C25 3321   0.679   5.485  12.517
   45CHL1   H25 3322   0.750   5.401  12.542
   45CHL1   C26 3323   0.761   5.604  12.528
   45CHL1  H26A 3324   0.793   5.613  12.632
   45CHL1  H26B 3325   0.846   5.592  12.456
   45CHL1  H26C 3326   0.692   5.683  12.492
   45CHL1   C27 3327   0.556   5.468  12.616
   45CHL1  H27A 3328   0.500   5.373  12.625
   45CHL1  H27B 3329   0.596   5.483  12.719
   45CHL1  H27C 3330   0.480   5.544  12.593
   46CHL1    C3 3331   4.747   6.638  11.012
   46CHL1    H3 3332   4.657   6.703  11.021
   46CHL1    O3 3333   4.801   6.657  10.882
   46CHL1   H3' 3334   4.825   6.751  10.876
   46CHL1    C4 3335   4.850   6.677  11.117
   46CHL1   H4A 3336   4.942   6.615  11.109
   46CHL1   H4B 3337   4.881   6.781  11.096
   46CHL1    C5 3338   4.792   6.662  11.256
   46CHL1    C6 3339   4.789   6.767  11.340
   46CHL1    H6 3340   4.828   6.863  11.304
   46CHL1    C7 3341   4.745   6.759  11.484
   46CHL1   H7A 3342   4.821   6.805  11.550
   46CHL1   H7B 3343   4.649   6.812  11.500
   46CHL1    C8 3344   4.727   6.613  11.530
   46CHL1    H8 3345   4.822   6.560  11.546
   46CHL1   C14 3346   4.654   6.609  11.663
   46CHL1   H14 3347   4.552   6.653  11.645
   46CHL1   C15 3348   4.720   6.689  11.776
   46CHL1  H15A 3349   4.828   6.688  11.788
   46CHL1  H15B 3350   4.689   6.794  11.766
   46CHL1   C16 3351   4.672   6.621  11.901
   46CHL1  H16A 3352   4.744   6.570  11.966
   46CHL1  H16B 3353   4.654   6.703  11.970
   46CHL1   C17 3354   4.565   6.519  11.858
   46CHL1   H17 3355   4.466   6.558  11.826
   46CHL1   C13 3356   4.624   6.472  11.722
   46CHL1   C18 3357   4.753   6.392  11.755
   46CHL1  H18A 3358   4.816   6.378  11.666
   46CHL1  H18B 3359   4.817   6.443  11.830
   46CHL1  H18C 3360   4.728   6.293  11.798
   46CHL1   C12 3361   4.538   6.416  11.608
   46CHL1  H12A 3362   4.537   6.310  11.597
   46CHL1  H12B 3363   4.432   6.448  11.611
   46CHL1   C11 3364   4.610   6.409  11.473
   46CHL1  H11A 3365   4.693   6.336  11.488
   46CHL1  H11B 3366   4.545   6.374  11.392
   46CHL1    C9 3367   4.654   6.540  11.420
   46CHL1    H9 3368   4.560   6.596  11.398
   46CHL1   C10 3369   4.732   6.524  11.287
   46CHL1   C19 3370   4.837   6.412  11.302
   46CHL1  H19A 3371   4.896   6.400  11.209
   46CHL1  H19B 3372   4.901   6.432  11.389
   46CHL1  H19C 3373   4.797   6.312  11.325
   46CHL1    C1 3374   4.640   6.478  11.170
   46CHL1   H1A 3375   4.610   6.372  11.185
   46CHL1   H1B 3376   4.549   6.541  11.168
   46CHL1    C2 3377   4.706   6.492  11.032
   46CHL1   H2A 3378   4.632   6.461  10.955
   46CHL1   H2B 3379   4.797   6.428  11.025
   46CHL1   C20 3380   4.552   6.433  11.982
   46CHL1   H20 3381   4.649   6.384  12.014
   46CHL1   C21 3382   4.459   6.343  11.951
   46CHL1  H21A 3383   4.384   6.370  11.874
   46CHL1  H21B 3384   4.427   6.272  12.031
   46CHL1  H21C 3385   4.535   6.283  11.910
   46CHL1   C22 3386   4.461   6.466  12.095
   46CHL1  H22A 3387   4.453   6.402  12.186
   46CHL1  H22B 3388   4.555   6.510  12.133
   46CHL1   C23 3389   4.316   6.519  12.040
   46CHL1  H23A 3390   4.317   6.565  11.944
   46CHL1  H23B 3391   4.234   6.450  12.028
   46CHL1   C24 3392   4.234   6.616  12.117
   46CHL1  H24A 3393   4.235   6.551  12.199
   46CHL1  H24B 3394   4.274   6.714  12.108
   46CHL1   C25 3395   4.098   6.676  12.130
   46CHL1   H25 3396   4.036   6.591  12.103
   46CHL1   C26 3397   4.040   6.733  12.262
   46CHL1  H26A 3398   4.003   6.689  12.351
   46CHL1  H26B 3399   4.075   6.829  12.307
   46CHL1  H26C 3400   3.937   6.702  12.272
   46CHL1   C27 3401   4.120   6.800  12.044
   46CHL1  H27A 3402   4.172   6.785  11.950
   46CHL1  H27B 3403   4.031   6.836  12.012
   46CHL1  H27C 3404   4.173   6.883  12.095
   47CHL1    C3 3405   1.335   1.624  11.015
   47CHL1    H3 3406   1.261   1.698  11.053
   47CHL1    O3 3407   1.348   1.636  10.875
   47CHL1   H3' 3408   1.422   1.574  10.856
   47CHL1    C4 3409   1.471   1.652  11.085
   47CHL1   H4A 3410   1.556   1.599  11.038
   47CHL1   H4B 3411   1.492   1.761  11.072
   47CHL1    C5 3412   1.464   1.613  11.231
   47CHL1    C6 3413   1.495   1.699  11.326
   47CHL1    H6 3414   1.526   1.793  11.287
   47CHL1    C7 3415   1.496   1.675  11.475
   47CHL1   H7A 3416   1.589   1.714  11.523
   47CHL1   H7B 3417   1.410   1.724  11.523
   47CHL1    C8 3418   1.490   1.525  11.504
   47CHL1    H8 3419   1.587   1.497  11.466
   47CHL1   C14 3420   1.459   1.494  11.652
   47CHL1   H14 3421   1.352   1.528  11.655
   47CHL1   C15 3422   1.514   1.583  11.765
   47CHL1  H15A 3423   1.618   1.601  11.763
   47CHL1  H15B 3424   1.483   1.688  11.763
   47CHL1   C16 3425   1.487   1.504  11.891
   47CHL1  H16A 3426   1.580   1.472  11.942
   47CHL1  H16B 3427   1.428   1.567  11.960
   47CHL1   C17 3428   1.410   1.375  11.849
   47CHL1   H17 3429   1.304   1.407  11.848
   47CHL1   C13 3430   1.452   1.345  11.704
   47CHL1   C18 3431   1.575   1.255  11.730
   47CHL1  H18A 3432   1.614   1.222  11.633
   47CHL1  H18B 3433   1.648   1.311  11.794
   47CHL1  H18C 3434   1.574   1.150  11.756
   47CHL1   C12 3435   1.360   1.272  11.607
   47CHL1  H12A 3436   1.368   1.163  11.626
   47CHL1  H12B 3437   1.258   1.307  11.631
   47CHL1   C11 3438   1.391   1.297  11.457
   47CHL1  H11A 3439   1.485   1.243  11.431
   47CHL1  H11B 3440   1.310   1.251  11.398
   47CHL1    C9 3441   1.396   1.447  11.414
   47CHL1    H9 3442   1.297   1.490  11.435
   47CHL1   C10 3443   1.417   1.474  11.263
   47CHL1   C19 3444   1.518   1.381  11.207
   47CHL1  H19A 3445   1.605   1.420  11.256
   47CHL1  H19B 3446   1.518   1.274  11.232
   47CHL1  H19C 3447   1.538   1.393  11.098
   47CHL1    C1 3448   1.290   1.446  11.189
   47CHL1   H1A 3449   1.282   1.335  11.194
   47CHL1   H1B 3450   1.210   1.499  11.244
   47CHL1    C2 3451   1.281   1.484  11.042
   47CHL1   H2A 3452   1.172   1.479  11.017
   47CHL1   H2B 3453   1.332   1.408  10.978
   47CHL1   C20 3454   1.429   1.265  11.953
   47CHL1   H20 3455   1.539   1.247  11.971
   47CHL1   C21 3456   1.362   1.133  11.911
   47CHL1  H21A 3457   1.353   1.068  11.999
   47CHL1  H21B 3458   1.423   1.078  11.836
   47CHL1  H21C 3459   1.261   1.151  11.872
   47CHL1   C22 3460   1.365   1.311  12.083
   47CHL1  H22A 3461   1.388   1.417  12.106
   47CHL1  H22B 3462   1.255   1.302  12.070
   47CHL1   C23 3463   1.404   1.229  12.206
   47CHL1  H23A 3464   1.340   1.137  12.206
   47CHL1  H23B 3465   1.510   1.197  12.203
   47CHL1   C24 3466   1.380   1.321  12.326
   47CHL1  H24A 3467   1.439   1.413  12.318
   47CHL1  H24B 3468   1.270   1.344  12.329
   47CHL1   C25 3469   1.416   1.264  12.460
   47CHL1   H25 3470   1.516   1.216  12.468
   47CHL1   C26 3471   1.377   1.350  12.581
   47CHL1  H26A 3472   1.266   1.359  12.590
   47CHL1  H26B 3473   1.413   1.302  12.674
   47CHL1  H26C 3474   1.421   1.449  12.567
   47CHL1   C27 3475   1.324   1.161  12.470
   47CHL1  H27A 3476   1.323   1.141  12.578
   47CHL1  H27B 3477   1.220   1.199  12.451
   47CHL1  H27C 3478   1.345   1.070  12.408
   48CHL1    C3 3479   6.806   2.825  11.014
   48CHL1    H3 3480   6.728   2.897  11.046
   48CHL1    O3 3481   6.801   2.816  10.873
   48CHL1   H3' 3482   6.853   2.894  10.847
   48CHL1    C4 3483   6.947   2.874  11.052
   48CHL1   H4A 3484   7.021   2.802  11.011
   48CHL1   H4B 3485   6.967   2.970  11.000
   48CHL1    C5 3486   6.961   2.883  11.203
   48CHL1    C6 3487   6.993   2.997  11.266
   48CHL1    H6 3488   7.016   3.088  11.209
   48CHL1    C7 3489   7.003   3.011  11.415
   48CHL1   H7A 3490   7.087   3.078  11.442
   48CHL1   H7B 3491   6.909   3.055  11.456
   48CHL1    C8 3492   7.020   2.872  11.478
   48CHL1    H8 3493   7.120   2.832  11.450
   48CHL1   C14 3494   7.001   2.880  11.625
   48CHL1   H14 3495   6.899   2.918  11.647
   48CHL1   C15 3496   7.091   2.972  11.696
   48CHL1  H15A 3497   7.196   2.968  11.670
   48CHL1  H15B 3498   7.073   3.073  11.671
   48CHL1   C16 3499   7.052   2.925  11.837
   48CHL1  H16A 3500   7.132   2.945  11.904
   48CHL1  H16B 3501   6.970   2.985  11.878
   48CHL1   C17 3502   6.990   2.787  11.839
   48CHL1   H17 3503   6.886   2.810  11.867
   48CHL1   C13 3504   7.007   2.751  11.702
   48CHL1   C18 3505   7.137   2.692  11.686
   48CHL1  H18A 3506   7.180   2.770  11.735
   48CHL1  H18B 3507   7.187   2.617  11.749
   48CHL1  H18C 3508   7.184   2.696  11.587
   48CHL1   C12 3509   6.902   2.670  11.668
   48CHL1  H12A 3510   6.898   2.583  11.735
   48CHL1  H12B 3511   6.818   2.730  11.706
   48CHL1   C11 3512   6.912   2.655  11.517
   48CHL1  H11A 3513   7.007   2.621  11.485
   48CHL1  H11B 3514   6.852   2.574  11.486
   48CHL1    C9 3515   6.912   2.780  11.430
   48CHL1    H9 3516   6.813   2.826  11.451
   48CHL1   C10 3517   6.924   2.754  11.278
   48CHL1   C19 3518   7.025   2.641  11.244
   48CHL1  H19A 3519   7.061   2.648  11.140
   48CHL1  H19B 3520   7.111   2.641  11.313
   48CHL1  H19C 3521   6.972   2.543  11.252
   48CHL1    C1 3522   6.786   2.704  11.233
   48CHL1   H1A 3523   6.768   2.606  11.281
   48CHL1   H1B 3524   6.711   2.776  11.272
   48CHL1    C2 3525   6.772   2.691  11.081
   48CHL1   H2A 3526   6.669   2.660  11.055
   48CHL1   H2B 3527   6.842   2.614  11.042
   48CHL1   C20 3528   7.030   2.695  11.944
   48CHL1   H20 3529   7.131   2.644  11.926
   48CHL1   C21 3530   6.974   2.563  11.983
   48CHL1  H21A 3531   6.868   2.576  12.006
   48CHL1  H21B 3532   7.033   2.529  12.069
   48CHL1  H21C 3533   7.009   2.487  11.914
   48CHL1   C22 3534   7.018   2.793  12.057
   48CHL1  H22A 3535   7.085   2.718  12.080
   48CHL1  H22B 3536   7.082   2.870  12.080
   48CHL1   C23 3537   6.900   2.835  12.139
   48CHL1  H23A 3538   6.862   2.924  12.088
   48CHL1  H23B 3539   6.827   2.755  12.128
   48CHL1   C24 3540   6.908   2.865  12.289
   48CHL1  H24A 3541   6.947   2.774  12.314
   48CHL1  H24B 3542   6.980   2.903  12.363
   48CHL1   C25 3543   6.783   2.919  12.347
   48CHL1   H25 3544   6.783   3.027  12.325
   48CHL1   C26 3545   6.662   2.879  12.275
   48CHL1  H26A 3546   6.576   2.926  12.329
   48CHL1  H26B 3547   6.661   2.897  12.167
   48CHL1  H26C 3548   6.683   2.773  12.287
   48CHL1   C27 3549   6.767   2.883  12.495
   48CHL1  H27A 3550   6.788   2.782  12.530
   48CHL1  H27B 3551   6.832   2.940  12.559
   48CHL1  H27C 3552   6.663   2.910  12.522
   49CHL1    C3 3553   0.624   5.901  11.014
   49CHL1    H3 3554   0.719   5.947  11.051
   49CHL1    O3 3555   0.636   5.858  10.881
   49CHL1   H3' 3556   0.716   5.805  10.876
   49CHL1    C4 3557   0.595   5.783  11.106
   49CHL1   H4A 3558   0.507   5.734  11.062
   49CHL1   H4B 3559   0.671   5.704  11.102
   49CHL1    C5 3560   0.587   5.845  11.244
   49CHL1    C6 3561   0.655   5.804  11.350
   49CHL1    H6 3562   0.705   5.706  11.344
   49CHL1    C7 3563   0.620   5.865  11.484
   49CHL1   H7A 3564   0.567   5.804  11.547
   49CHL1   H7B 3565   0.707   5.890  11.545
   49CHL1    C8 3566   0.488   5.935  11.510
   49CHL1    H8 3567   0.400   5.863  11.504
   49CHL1   C14 3568   0.498   6.015  11.641
   49CHL1   H14 3569   0.593   6.072  11.639
   49CHL1   C15 3570   0.520   5.950  11.764
   49CHL1  H15A 3571   0.460   5.866  11.732
   49CHL1  H15B 3572   0.623   5.924  11.785
   49CHL1   C16 3573   0.472   6.025  11.887
   49CHL1  H16A 3574   0.410   5.978  11.966
   49CHL1  H16B 3575   0.566   6.052  11.939
   49CHL1   C17 3576   0.384   6.126  11.832
   49CHL1   H17 3577   0.466   6.193  11.846
   49CHL1   C13 3578   0.374   6.081  11.684
   49CHL1   C18 3579   0.266   5.967  11.697
   49CHL1  H18A 3580   0.173   6.002  11.725
   49CHL1  H18B 3581   0.253   5.918  11.601
   49CHL1  H18C 3582   0.254   5.896  11.779
   49CHL1   C12 3583   0.393   6.185  11.572
   49CHL1  H12A 3584   0.308   6.251  11.579
   49CHL1  H12B 3585   0.487   6.236  11.585
   49CHL1   C11 3586   0.411   6.146  11.424
   49CHL1  H11A 3587   0.325   6.099  11.406
   49CHL1  H11B 3588   0.400   6.223  11.348
   49CHL1    C9 3589   0.494   6.026  11.398
   49CHL1    H9 3590   0.595   6.071  11.407
   49CHL1   C10 3591   0.490   5.957  11.261
   49CHL1   C19 3592   0.370   5.874  11.231
   49CHL1  H19A 3593   0.310   5.946  11.182
   49CHL1  H19B 3594   0.350   5.835  11.132
   49CHL1  H19C 3595   0.317   5.816  11.311
   49CHL1    C1 3596   0.504   6.066  11.156
   49CHL1   H1A 3597   0.419   6.137  11.158
   49CHL1   H1B 3598   0.597   6.120  11.185
   49CHL1    C2 3599   0.520   6.013  11.015
   49CHL1   H2A 3600   0.560   6.096  10.953
   49CHL1   H2B 3601   0.423   5.982  10.970
   49CHL1   C20 3602   0.266   6.145  11.931
   49CHL1   H20 3603   0.200   6.058  11.945
   49CHL1   C21 3604   0.184   6.261  11.902
   49CHL1  H21A 3605   0.139   6.274  11.811
   49CHL1  H21B 3606   0.263   6.334  11.894
   49CHL1  H21C 3607   0.102   6.297  11.964
   49CHL1   C22 3608   0.317   6.193  12.065
   49CHL1  H22A 3609   0.409   6.144  12.099
   49CHL1  H22B 3610   0.340   6.302  12.066
   49CHL1   C23 3611   0.211   6.204  12.167
   49CHL1  H23A 3612   0.160   6.302  12.150
   49CHL1  H23B 3613   0.127   6.135  12.160
   49CHL1   C24 3614   0.293   6.190  12.291
   49CHL1  H24A 3615   0.357   6.100  12.297
   49CHL1  H24B 3616   0.363   6.279  12.301
   49CHL1   C25 3617   0.202   6.189  12.406
   49CHL1   H25 3618   0.155   6.285  12.387
   49CHL1   C26 3619   0.091   6.094  12.431
   49CHL1  H26A 3620   0.144   6.001  12.459
   49CHL1  H26B 3621   0.030   6.130  12.518
   49CHL1  H26C 3622   0.032   6.093  12.339
   49CHL1   C27 3623   0.278   6.187  12.527
   49CHL1  H27A 3624   0.322   6.098  12.569
   49CHL1  H27B 3625   0.363   6.258  12.506
   49CHL1  H27C 3626   0.205   6.231  12.602
   50CHL1    C3 3627   5.403   7.277  11.014
   50CHL1    H3 3628   5.300   7.318  11.024
   50CHL1    O3 3629   5.436   7.267  10.878
   50CHL1   H3' 3630   5.449   7.357  10.846
   50CHL1    C4 3631   5.504   7.369  11.083
   50CHL1   H4A 3632   5.606   7.329  11.067
   50CHL1   H4B 3633   5.503   7.469  11.034
   50CHL1    C5 3634   5.469   7.374  11.229
   50CHL1    C6 3635   5.441   7.491  11.288
   50CHL1    H6 3636   5.440   7.585  11.231
   50CHL1    C7 3637   5.412   7.501  11.433
   50CHL1   H7A 3638   5.468   7.587  11.474
   50CHL1   H7B 3639   5.310   7.533  11.449
   50CHL1    C8 3640   5.443   7.366  11.508
   50CHL1    H8 3641   5.552   7.354  11.503
   50CHL1   C14 3642   5.387   7.366  11.647
   50CHL1   H14 3643   5.282   7.360  11.625
   50CHL1   C15 3644   5.379   7.494  11.719
   50CHL1  H15A 3645   5.435   7.575  11.695
   50CHL1  H15B 3646   5.311   7.571  11.676
   50CHL1   C16 3647   5.383   7.448  11.866
   50CHL1  H16A 3648   5.411   7.492  11.961
   50CHL1  H16B 3649   5.332   7.536  11.862
   50CHL1   C17 3650   5.344   7.298  11.878
   50CHL1   H17 3651   5.245   7.253  11.865
   50CHL1   C13 3652   5.414   7.253  11.749
   50CHL1   C18 3653   5.557   7.254  11.787
   50CHL1  H18A 3654   5.587   7.191  11.872
   50CHL1  H18B 3655   5.625   7.251  11.703
   50CHL1  H18C 3656   5.574   7.355  11.814
   50CHL1   C12 3657   5.384   7.124  11.681
   50CHL1  H12A 3658   5.424   7.045  11.746
   50CHL1  H12B 3659   5.275   7.115  11.669
   50CHL1   C11 3660   5.454   7.123  11.544
   50CHL1  H11A 3661   5.563   7.133  11.563
   50CHL1  H11B 3662   5.436   7.026  11.496
   50CHL1    C9 3663   5.406   7.236  11.447
   50CHL1    H9 3664   5.299   7.217  11.449
   50CHL1   C10 3665   5.455   7.235  11.301
   50CHL1   C19 3666   5.584   7.161  11.306
   50CHL1  H19A 3667   5.578   7.054  11.330
   50CHL1  H19B 3668   5.650   7.174  11.216
   50CHL1  H19C 3669   5.629   7.205  11.395
   50CHL1    C1 3670   5.362   7.144  11.223
   50CHL1   H1A 3671   5.369   7.045  11.272
   50CHL1   H1B 3672   5.259   7.184  11.232
   50CHL1    C2 3673   5.401   7.136  11.075
   50CHL1   H2A 3674   5.326   7.073  11.024
   50CHL1   H2B 3675   5.501   7.089  11.064
   50CHL1   C20 3676   5.348   7.247  12.023
   50CHL1   H20 3677   5.440   7.277  12.061
   50CHL1   C21 3678   5.353   7.098  12.023
   50CHL1  H21A 3679   5.452   7.068  11.983
   50CHL1  H21B 3680   5.271   7.060  11.958
   50CHL1  H21C 3681   5.341   7.064  12.127
   50CHL1   C22 3682   5.228   7.295  12.110
   50CHL1  H22A 3683   5.219   7.402  12.125
   50CHL1  H22B 3684   5.139   7.274  12.056
   50CHL1   C23 3685   5.213   7.283  12.255
   50CHL1  H23A 3686   5.112   7.299  12.295
   50CHL1  H23B 3687   5.247   7.181  12.275
   50CHL1   C24 3688   5.278   7.405  12.314
   50CHL1  H24A 3689   5.368   7.395  12.259
   50CHL1  H24B 3690   5.263   7.510  12.285
   50CHL1   C25 3691   5.282   7.381  12.456
   50CHL1   H25 3692   5.199   7.340  12.510
   50CHL1   C26 3693   5.337   7.244  12.475
   50CHL1  H26A 3694   5.371   7.165  12.408
   50CHL1  H26B 3695   5.413   7.303  12.423
   50CHL1  H26C 3696   5.362   7.213  12.577
   50CHL1   C27 3697   5.325   7.512  12.516
   50CHL1  H27A 3698   5.386   7.572  12.449
   50CHL1  H27B 3699   5.256   7.595  12.515
   50CHL1  H27C 3700   5.333   7.510  12.624
   51CHL1    C3 3701   1.130   6.820  10.998
   51CHL1    H3 3702   1.074   6.900  10.948
   51CHL1    O3 3703   1.160   6.748  10.881
   51CHL1   H3' 3704   1.074   6.741  10.839
   51CHL1    C4 3705   1.264   6.861  11.070
   51CHL1   H4A 3706   1.317   6.764  11.066
   51CHL1   H4B 3707   1.316   6.932  11.002
   51CHL1    C5 3708   1.283   6.898  11.218
   51CHL1    C6 3709   1.355   7.013  11.259
   51CHL1    H6 3710   1.373   7.091  11.181
   51CHL1    C7 3711   1.335   7.075  11.398
   51CHL1   H7A 3712   1.418   7.137  11.433
   51CHL1   H7B 3713   1.288   7.173  11.402
   51CHL1    C8 3714   1.253   6.983  11.498
   51CHL1    H8 3715   1.332   6.909  11.516
   51CHL1   C14 3716   1.208   7.052  11.628
   51CHL1   H14 3717   1.115   7.105  11.610
   51CHL1   C15 3718   1.305   7.154  11.688
   51CHL1  H15A 3719   1.408   7.118  11.669
   51CHL1  H15B 3720   1.294   7.255  11.642
   51CHL1   C16 3721   1.270   7.155  11.837
   51CHL1  H16A 3722   1.359   7.116  11.892
   51CHL1  H16B 3723   1.248   7.257  11.874
   51CHL1   C17 3724   1.150   7.057  11.862
   51CHL1   H17 3725   1.055   7.115  11.857
   51CHL1   C13 3726   1.150   6.965  11.738
   51CHL1   C18 3727   1.248   6.859  11.762
   51CHL1  H18A 3728   1.219   6.775  11.827
   51CHL1  H18B 3729   1.280   6.811  11.668
   51CHL1  H18C 3730   1.334   6.911  11.809
   51CHL1   C12 3731   1.020   6.903  11.685
   51CHL1  H12A 3732   0.978   6.830  11.757
   51CHL1  H12B 3733   0.947   6.986  11.675
   51CHL1   C11 3734   1.042   6.825  11.552
   51CHL1  H11A 3735   1.087   6.726  11.572
   51CHL1  H11B 3736   0.938   6.810  11.514
   51CHL1    C9 3737   1.130   6.900  11.445
   51CHL1    H9 3738   1.046   6.971  11.439
   51CHL1   C10 3739   1.163   6.829  11.305
   51CHL1   C19 3740   1.226   6.695  11.339
   51CHL1  H19A 3741   1.270   6.650  11.247
   51CHL1  H19B 3742   1.303   6.712  11.416
   51CHL1  H19C 3743   1.150   6.626  11.379
   51CHL1    C1 3744   1.025   6.793  11.228
   51CHL1   H1A 3745   0.962   6.733  11.296
   51CHL1   H1B 3746   0.953   6.873  11.203
   51CHL1    C2 3747   1.037   6.736  11.085
   51CHL1   H2A 3748   0.937   6.732  11.034
   51CHL1   H2B 3749   1.077   6.634  11.094
   51CHL1   C20 3750   1.160   6.992  12.002
   51CHL1   H20 3751   1.258   6.939  12.007
   51CHL1   C21 3752   1.046   6.889  12.021
   51CHL1  H21A 3753   1.049   6.838  12.120
   51CHL1  H21B 3754   1.053   6.809  11.945
   51CHL1  H21C 3755   0.948   6.940  12.013
   51CHL1   C22 3756   1.159   7.093  12.121
   51CHL1  H22A 3757   1.210   7.188  12.095
   51CHL1  H22B 3758   1.052   7.115  12.144
   51CHL1   C23 3759   1.225   7.043  12.251
   51CHL1  H23A 3760   1.178   6.947  12.283
   51CHL1  H23B 3761   1.334   7.026  12.230
   51CHL1   C24 3762   1.218   7.142  12.368
   51CHL1  H24A 3763   1.281   7.107  12.452
   51CHL1  H24B 3764   1.261   7.239  12.333
   51CHL1   C25 3765   1.078   7.170  12.428
   51CHL1   H25 3766   1.010   7.196  12.344
   51CHL1   C26 3767   1.016   7.053  12.508
   51CHL1  H26A 3768   1.081   7.025  12.593
   51CHL1  H26B 3769   0.919   7.087  12.552
   51CHL1  H26C 3770   0.997   6.962  12.447
   51CHL1   C27 3771   1.090   7.290  12.523
   51CHL1  H27A 3772   0.995   7.304  12.578
   51CHL1  H27B 3773   1.171   7.272  12.597
   51CHL1  H27C 3774   1.116   7.382  12.467
   52CHL1    C3 3775   6.587   0.870  11.013
   52CHL1    H3 3776   6.604   0.980  11.026
   52CHL1    O3 3777   6.578   0.841  10.875
   52CHL1   H3' 3778   6.520   0.908  10.840
   52CHL1    C4 3779   6.701   0.791  11.075
   52CHL1   H4A 3780   6.678   0.684  11.059
   52CHL1   H4B 3781   6.796   0.814  11.024
   52CHL1    C5 3782   6.711   0.818  11.223
   52CHL1    C6 3783   6.822   0.872  11.276
   52CHL1    H6 3784   6.911   0.893  11.215
   52CHL1    C7 3785   6.837   0.903  11.419
   52CHL1   H7A 3786   6.939   0.882  11.458
   52CHL1   H7B 3787   6.816   1.011  11.426
   52CHL1    C8 3788   6.733   0.833  11.504
   52CHL1    H8 3789   6.759   0.726  11.517
   52CHL1   C14 3790   6.736   0.905  11.638
   52CHL1   H14 3791   6.702   1.011  11.613
   52CHL1   C15 3792   6.864   0.926  11.712
   52CHL1  H15A 3793   6.907   0.827  11.712
   52CHL1  H15B 3794   6.920   1.005  11.659
   52CHL1   C16 3795   6.841   0.944  11.862
   52CHL1  H16A 3796   6.876   0.862  11.928
   52CHL1  H16B 3797   6.872   1.045  11.898
   52CHL1   C17 3798   6.692   0.916  11.873
   52CHL1   H17 3799   6.681   1.024  11.835
   52CHL1   C13 3800   6.648   0.840  11.738
   52CHL1   C18 3801   6.670   0.700  11.782
   52CHL1  H18A 3802   6.696   0.641  11.694
   52CHL1  H18B 3803   6.749   0.697  11.859
   52CHL1  H18C 3804   6.575   0.665  11.827
   52CHL1   C12 3805   6.521   0.840  11.650
   52CHL1  H12A 3806   6.432   0.788  11.689
   52CHL1  H12B 3807   6.518   0.948  11.628
   52CHL1   C11 3808   6.486   0.787  11.519
   52CHL1  H11A 3809   6.473   0.679  11.542
   52CHL1  H11B 3810   6.385   0.832  11.491
   52CHL1    C9 3811   6.595   0.845  11.437
   52CHL1    H9 3812   6.575   0.956  11.432
   52CHL1   C10 3813   6.582   0.789  11.300
   52CHL1   C19 3814   6.550   0.640  11.320
   52CHL1  H19A 3815   6.545   0.595  11.220
   52CHL1  H19B 3816   6.631   0.594  11.383
   52CHL1  H19C 3817   6.453   0.612  11.365
   52CHL1    C1 3818   6.463   0.857  11.230
   52CHL1   H1A 3819   6.367   0.829  11.279
   52CHL1   H1B 3820   6.478   0.965  11.245
   52CHL1    C2 3821   6.458   0.827  11.080
   52CHL1   H2A 3822   6.374   0.875  11.034
   52CHL1   H2B 3823   6.436   0.721  11.058
   52CHL1   C20 3824   6.628   0.887  12.036
   52CHL1   H20 3825   6.674   0.794  12.064
   52CHL1   C21 3826   6.465   0.849  12.079
   52CHL1  H21A 3827   6.413   0.779  12.012
   52CHL1  H21B 3828   6.377   0.912  12.054
   52CHL1  H21C 3829   6.414   0.901  12.161
   52CHL1   C22 3830   6.675   1.012  12.120
   52CHL1  H22A 3831   6.779   1.024  12.093
   52CHL1  H22B 3832   6.644   1.117  12.102
   52CHL1   C23 3833   6.649   1.003  12.269
   52CHL1  H23A 3834   6.545   1.000  12.299
   52CHL1  H23B 3835   6.684   0.904  12.299
   52CHL1   C24 3836   6.704   1.123  12.346
   52CHL1  H24A 3837   6.801   1.134  12.303
   52CHL1  H24B 3838   6.666   1.224  12.323
   52CHL1   C25 3839   6.697   1.087  12.497
   52CHL1   H25 3840   6.731   0.983  12.511
   52CHL1   C26 3841   6.765   1.183  12.593
   52CHL1  H26A 3842   6.866   1.149  12.612
   52CHL1  H26B 3843   6.768   1.279  12.537
   52CHL1  H26C 3844   6.735   1.187  12.697
   52CHL1   C27 3845   6.558   1.102  12.540
   52CHL1  H27A 3846   6.542   1.088  12.648
   52CHL1  H27B 3847   6.541   1.210  12.511
   52CHL1  H27C 3848   6.495   1.031  12.485
   53CHL1    C3 3849   1.755   7.390  11.012
   53CHL1    H3 3850   1.661   7.426  11.061
   53CHL1    O3 3851   1.745   7.414  10.873
   53CHL1   H3' 3852   1.771   7.503  10.851
   53CHL1    C4 3853   1.876   7.458  11.080
   53CHL1   H4A 3854   1.973   7.425  11.035
   53CHL1   H4B 3855   1.869   7.567  11.067
   53CHL1    C5 3856   1.869   7.421  11.226
   53CHL1    C6 3857   1.862   7.515  11.320
   53CHL1    H6 3858   1.870   7.620  11.293
   53CHL1    C7 3859   1.850   7.483  11.464
   53CHL1   H7A 3860   1.928   7.543  11.515
   53CHL1   H7B 3861   1.756   7.519  11.507
   53CHL1    C8 3862   1.862   7.331  11.495
   53CHL1    H8 3863   1.958   7.292  11.462
   53CHL1   C14 3864   1.844   7.302  11.643
   53CHL1   H14 3865   1.733   7.290  11.645
   53CHL1   C15 3866   1.869   7.404  11.755
   53CHL1  H15A 3867   1.974   7.425  11.776
   53CHL1  H15B 3868   1.812   7.497  11.746
   53CHL1   C16 3869   1.847   7.325  11.881
   53CHL1  H16A 3870   1.936   7.336  11.949
   53CHL1  H16B 3871   1.755   7.362  11.930
   53CHL1   C17 3872   1.836   7.178  11.834
   53CHL1   H17 3873   1.729   7.155  11.817
   53CHL1   C13 3874   1.901   7.174  11.697
   53CHL1   C18 3875   2.053   7.155  11.719
   53CHL1  H18A 3876   2.083   7.065  11.775
   53CHL1  H18B 3877   2.091   7.129  11.621
   53CHL1  H18C 3878   2.108   7.241  11.763
   53CHL1   C12 3879   1.845   7.076  11.598
   53CHL1  H12A 3880   1.875   6.980  11.637
   53CHL1  H12B 3881   1.734   7.082  11.601
   53CHL1   C11 3882   1.878   7.090  11.449
   53CHL1  H11A 3883   1.986   7.067  11.440
   53CHL1  H11B 3884   1.827   7.015  11.386
   53CHL1    C9 3885   1.823   7.228  11.399
   53CHL1    H9 3886   1.714   7.232  11.408
   53CHL1   C10 3887   1.861   7.271  11.256
   53CHL1   C19 3888   1.996   7.226  11.218
   53CHL1  H19A 3889   2.075   7.301  11.235
   53CHL1  H19B 3890   2.037   7.134  11.264
   53CHL1  H19C 3891   2.005   7.213  11.108
   53CHL1    C1 3892   1.767   7.193  11.168
   53CHL1   H1A 3893   1.795   7.086  11.175
   53CHL1   H1B 3894   1.667   7.210  11.211
   53CHL1    C2 3895   1.764   7.239  11.023
   53CHL1   H2A 3896   1.674   7.196  10.977
   53CHL1   H2B 3897   1.853   7.202  10.968
   53CHL1   C20 3898   1.883   7.088  11.944
   53CHL1   H20 3899   1.990   7.105  11.964
   53CHL1   C21 3900   1.876   6.946  11.896
   53CHL1  H21A 3901   1.946   6.927  11.814
   53CHL1  H21B 3902   1.778   6.930  11.855
   53CHL1  H21C 3903   1.892   6.869  11.973
   53CHL1   C22 3904   1.791   7.123  12.065
   53CHL1  H22A 3905   1.800   7.228  12.097
   53CHL1  H22B 3906   1.685   7.098  12.040
   53CHL1   C23 3907   1.810   7.052  12.198
   53CHL1  H23A 3908   1.748   7.095  12.279
   53CHL1  H23B 3909   1.834   6.942  12.183
   53CHL1   C24 3910   1.923   7.064  12.284
   53CHL1  H24A 3911   1.950   7.070  12.180
   53CHL1  H24B 3912   1.960   7.159  12.322
   53CHL1   C25 3913   1.948   6.947  12.380
   53CHL1   H25 3914   1.946   6.839  12.346
   53CHL1   C26 3915   2.073   6.954  12.431
   53CHL1  H26A 3916   2.117   6.910  12.342
   53CHL1  H26B 3917   2.101   7.061  12.453
   53CHL1  H26C 3918   2.113   6.888  12.508
   53CHL1   C27 3919   1.911   6.995  12.513
   53CHL1  H27A 3920   1.918   7.106  12.512
   53CHL1  H27B 3921   1.810   6.968  12.506
   53CHL1  H27C 3922   1.965   6.956  12.605
   54CHL1    C3 3923   0.434   6.589  11.011
   54CHL1    H3 3924   0.534   6.639  11.007
   54CHL1    O3 3925   0.385   6.563  10.880
   54CHL1   H3' 3926   0.342   6.643  10.846
   54CHL1    C4 3927   0.444   6.462  11.091
   54CHL1   H4A 3928   0.357   6.398  11.067
   54CHL1   H4B 3929   0.534   6.411  11.051
   54CHL1    C5 3930   0.454   6.485  11.240
   54CHL1    C6 3931   0.558   6.438  11.308
   54CHL1    H6 3932   0.635   6.381  11.254
   54CHL1    C7 3933   0.568   6.445  11.457
   54CHL1   H7A 3934   0.601   6.345  11.490
   54CHL1   H7B 3935   0.647   6.513  11.491
   54CHL1    C8 3936   0.434   6.490  11.523
   54CHL1    H8 3937   0.361   6.411  11.500
   54CHL1   C14 3938   0.450   6.518  11.673
   54CHL1   H14 3939   0.520   6.602  11.688
   54CHL1   C15 3940   0.518   6.414  11.760
   54CHL1  H15A 3941   0.452   6.333  11.736
   54CHL1  H15B 3942   0.620   6.378  11.743
   54CHL1   C16 3943   0.480   6.443  11.904
   54CHL1  H16A 3944   0.465   6.346  11.947
   54CHL1  H16B 3945   0.562   6.475  11.967
   54CHL1   C17 3946   0.361   6.546  11.896
   54CHL1   H17 3947   0.417   6.640  11.912
   54CHL1   C13 3948   0.321   6.558  11.744
   54CHL1   C18 3949   0.214   6.463  11.705
   54CHL1  H18A 3950   0.119   6.467  11.762
   54CHL1  H18B 3951   0.195   6.441  11.600
   54CHL1  H18C 3952   0.266   6.369  11.714
   54CHL1   C12 3953   0.266   6.684  11.682
   54CHL1  H12A 3954   0.169   6.705  11.732
   54CHL1  H12B 3955   0.337   6.766  11.702
   54CHL1   C11 3956   0.241   6.662  11.529
   54CHL1  H11A 3957   0.157   6.592  11.508
   54CHL1  H11B 3958   0.199   6.754  11.489
   54CHL1    C9 3959   0.366   6.606  11.453
   54CHL1    H9 3960   0.441   6.688  11.458
   54CHL1   C10 3961   0.343   6.570  11.303
   54CHL1   C19 3962   0.208   6.496  11.281
   54CHL1  H19A 3963   0.199   6.413  11.353
   54CHL1  H19B 3964   0.123   6.565  11.294
   54CHL1  H19C 3965   0.196   6.453  11.179
   54CHL1    C1 3966   0.346   6.702  11.226
   54CHL1   H1A 3967   0.262   6.763  11.266
   54CHL1   H1B 3968   0.441   6.755  11.255
   54CHL1    C2 3969   0.336   6.683  11.074
   54CHL1   H2A 3970   0.373   6.768  11.014
   54CHL1   H2B 3971   0.231   6.657  11.047
   54CHL1   C20 3972   0.259   6.544  12.015
   54CHL1   H20 3973   0.196   6.455  12.020
   54CHL1   C21 3974   0.154   6.651  12.002
   54CHL1  H21A 3975   0.210   6.743  11.976
   54CHL1  H21B 3976   0.100   6.666  12.098
   54CHL1  H21C 3977   0.080   6.621  11.924
   54CHL1   C22 3978   0.324   6.552  12.154
   54CHL1  H22A 3979   0.412   6.484  12.160
   54CHL1  H22B 3980   0.353   6.656  12.174
   54CHL1   C23 3981   0.226   6.521  12.267
   54CHL1  H23A 3982   0.120   6.543  12.248
   54CHL1  H23B 3983   0.225   6.415  12.276
   54CHL1   C24 3984   0.269   6.564  12.404
   54CHL1  H24A 3985   0.378   6.536  12.418
   54CHL1  H24B 3986   0.248   6.668  12.429
   54CHL1   C25 3987   0.187   6.494  12.510
   54CHL1   H25 3988   0.250   6.407  12.504
   54CHL1   C26 3989   0.209   6.547  12.646
   54CHL1  H26A 3990   0.198   6.651  12.672
   54CHL1  H26B 3991   0.145   6.479  12.709
   54CHL1  H26C 3992   0.317   6.536  12.670
   54CHL1   C27 3993   0.039   6.453  12.495
   54CHL1  H27A 3994   0.010   6.386  12.411
   54CHL1  H27B 3995   0.002   6.397  12.585
   54CHL1  H27C 3996  -0.011   6.548  12.478
   55CHL1    C3 3997   6.961   6.722  11.009
   55CHL1    H3 3998   7.017   6.626  11.016
   55CHL1    O3 3999   6.975   6.780  10.879
   55CHL1   H3' 4000   7.062   6.821  10.876
   55CHL1    C4 4001   6.811   6.694  11.028
   55CHL1   H4A 4002   6.752   6.780  10.990
   55CHL1   H4B 4003   6.788   6.610  10.958
   55CHL1    C5 4004   6.767   6.672  11.172
   55CHL1    C6 4005   6.673   6.588  11.208
   55CHL1    H6 4006   6.642   6.530  11.126
   55CHL1    C7 4007   6.640   6.534  11.346
   55CHL1   H7A 4008   6.552   6.467  11.346
   55CHL1   H7B 4009   6.715   6.466  11.394
   55CHL1    C8 4010   6.665   6.634  11.448
   55CHL1    H8 4011   6.572   6.691  11.437
   55CHL1   C14 4012   6.680   6.568  11.582
   55CHL1   H14 4013   6.776   6.510  11.586
   55CHL1   C15 4014   6.561   6.481  11.624
   55CHL1  H15A 4015   6.459   6.518  11.611
   55CHL1  H15B 4016   6.527   6.402  11.559
   55CHL1   C16 4017   6.581   6.473  11.775
   55CHL1  H16A 4018   6.491   6.493  11.834
   55CHL1  H16B 4019   6.578   6.369  11.795
   55CHL1   C17 4020   6.700   6.573  11.811
   55CHL1   H17 4021   6.800   6.523  11.803
   55CHL1   C13 4022   6.700   6.664  11.691
   55CHL1   C18 4023   6.573   6.735  11.695
   55CHL1  H18A 4024   6.585   6.807  11.774
   55CHL1  H18B 4025   6.539   6.783  11.602
   55CHL1  H18C 4026   6.492   6.671  11.725
   55CHL1   C12 4027   6.808   6.769  11.670
   55CHL1  H12A 4028   6.788   6.854  11.739
   55CHL1  H12B 4029   6.906   6.723  11.690
   55CHL1   C11 4030   6.801   6.822  11.526
   55CHL1  H11A 4031   6.707   6.882  11.515
   55CHL1  H11B 4032   6.887   6.887  11.506
   55CHL1    C9 4033   6.795   6.709  11.423
   55CHL1    H9 4034   6.878   6.637  11.443
   55CHL1   C10 4035   6.822   6.757  11.279
   55CHL1   C19 4036   6.732   6.875  11.247
   55CHL1  H19A 4037   6.749   6.924  11.149
   55CHL1  H19B 4038   6.625   6.843  11.246
   55CHL1  H19C 4039   6.738   6.954  11.324
   55CHL1    C1 4040   6.974   6.777  11.259
   55CHL1   H1A 4041   7.006   6.854  11.331
   55CHL1   H1B 4042   7.024   6.680  11.284
   55CHL1    C2 4043   7.015   6.818  11.116
   55CHL1   H2A 4044   7.126   6.823  11.112
   55CHL1   H2B 4045   6.972   6.920  11.098
   55CHL1   C20 4046   6.693   6.648  11.947
   55CHL1   H20 4047   6.719   6.755  11.936
   55CHL1   C21 4048   6.806   6.603  12.030
   55CHL1  H21A 4049   6.770   6.502  12.022
   55CHL1  H21B 4050   6.807   6.611  12.141
   55CHL1  H21C 4051   6.907   6.600  11.985
   55CHL1   C22 4052   6.562   6.629  12.025
   55CHL1  H22A 4053   6.483   6.666  11.957
   55CHL1  H22B 4054   6.534   6.521  12.044
   55CHL1   C23 4055   6.559   6.700  12.160
   55CHL1  H23A 4056   6.453   6.718  12.187
   55CHL1  H23B 4057   6.605   6.629  12.233
   55CHL1   C24 4058   6.628   6.837  12.179
   55CHL1  H24A 4059   6.734   6.833  12.145
   55CHL1  H24B 4060   6.575   6.908  12.113
   55CHL1   C25 4061   6.625   6.884  12.329
   55CHL1   H25 4062   6.529   6.852  12.372
   55CHL1   C26 4063   6.740   6.819  12.411
   55CHL1  H26A 4064   6.735   6.708  12.414
   55CHL1  H26B 4065   6.843   6.843  12.383
   55CHL1  H26C 4066   6.733   6.859  12.513
   55CHL1   C27 4067   6.612   7.035  12.357
   55CHL1  H27A 4068   6.581   7.082  12.451
   55CHL1  H27B 4069   6.710   7.050  12.400
   55CHL1  H27C 4070   6.601   7.098  12.266
   56CHL1    C3 4071   7.488   0.771  11.005
   56CHL1    H3 4072   7.546   0.682  11.038
   56CHL1    O3 4073   7.490   0.791  10.866
   56CHL1   H3' 4074   7.580   0.820  10.854
   56CHL1    C4 4075   7.343   0.757  11.035
   56CHL1   H4A 4076   7.276   0.833  10.993
   56CHL1   H4B 4077   7.308   0.656  10.999
   56CHL1    C5 4078   7.329   0.768  11.179
   56CHL1    C6 4079   7.273   0.679  11.239
   56CHL1    H6 4080   7.241   0.589  11.185
   56CHL1    C7 4081   7.267   0.686  11.382
   56CHL1   H7A 4082   7.172   0.658  11.371
   56CHL1   H7B 4083   7.328   0.622  11.442
   56CHL1    C8 4084   7.261   0.800  11.470
   56CHL1    H8 4085   7.170   0.859  11.445
   56CHL1   C14 4086   7.268   0.778  11.620
   56CHL1   H14 4087   7.358   0.707  11.639
   56CHL1   C15 4088   7.142   0.743  11.691
   56CHL1  H15A 4089   7.049   0.752  11.639
   56CHL1  H15B 4090   7.188   0.659  11.664
   56CHL1   C16 4091   7.148   0.722  11.837
   56CHL1  H16A 4092   7.053   0.754  11.886
   56CHL1  H16B 4093   7.182   0.628  11.887
   56CHL1   C17 4094   7.262   0.810  11.843
   56CHL1   H17 4095   7.355   0.747  11.850
   56CHL1   C13 4096   7.284   0.890  11.706
   56CHL1   C18 4097   7.173   0.996  11.692
   56CHL1  H18A 4098   7.146   1.017  11.588
   56CHL1  H18B 4099   7.086   0.966  11.750
   56CHL1  H18C 4100   7.205   1.089  11.740
   56CHL1   C12 4101   7.414   0.936  11.651
   56CHL1  H12A 4102   7.435   1.041  11.680
   56CHL1  H12B 4103   7.492   0.858  11.659
   56CHL1   C11 4104   7.423   0.945  11.505
   56CHL1  H11A 4105   7.328   1.000  11.489
   56CHL1  H11B 4106   7.520   0.991  11.475
   56CHL1    C9 4107   7.394   0.835  11.421
   56CHL1    H9 4108   7.474   0.761  11.444
   56CHL1   C10 4109   7.394   0.860  11.268
   56CHL1   C19 4110   7.288   0.961  11.233
   56CHL1  H19A 4111   7.187   0.967  11.276
   56CHL1  H19B 4112   7.343   1.024  11.301
   56CHL1  H19C 4113   7.294   1.009  11.133
   56CHL1    C1 4114   7.540   0.882  11.226
   56CHL1   H1A 4115   7.580   0.971  11.279
   56CHL1   H1B 4116   7.601   0.801  11.270
   56CHL1    C2 4117   7.554   0.891  11.073
   56CHL1   H2A 4118   7.662   0.905  11.052
   56CHL1   H2B 4119   7.504   0.977  11.024
   56CHL1   C20 4120   7.217   0.882  11.969
   56CHL1   H20 4121   7.132   0.946  11.958
   56CHL1   C21 4122   7.304   0.981  11.945
   56CHL1  H21A 4123   7.377   0.899  11.968
   56CHL1  H21B 4124   7.355   1.064  11.988
   56CHL1  H21C 4125   7.315   1.062  11.874
   56CHL1   C22 4126   7.211   0.787  12.099
   56CHL1  H22A 4127   7.106   0.756  12.090
   56CHL1  H22B 4128   7.287   0.707  12.089
   56CHL1   C23 4129   7.229   0.821  12.247
   56CHL1  H23A 4130   7.331   0.805  12.286
   56CHL1  H23B 4131   7.199   0.921  12.265
   56CHL1   C24 4132   7.145   0.772  12.358
   56CHL1  H24A 4133   7.042   0.806  12.334
   56CHL1  H24B 4134   7.156   0.663  12.348
   56CHL1   C25 4135   7.201   0.830  12.492
   56CHL1   H25 4136   7.234   0.937  12.489
   56CHL1   C26 4137   7.090   0.811  12.591
   56CHL1  H26A 4138   7.001   0.874  12.569
   56CHL1  H26B 4139   7.059   0.706  12.574
   56CHL1  H26C 4140   7.122   0.830  12.695
   56CHL1   C27 4141   7.327   0.758  12.537
   56CHL1  H27A 4142   7.410   0.784  12.470
   56CHL1  H27B 4143   7.355   0.789  12.640
   56CHL1  H27C 4144   7.303   0.650  12.532
   57SAPC     N 4145   4.072   3.348  14.927
   57SAPC   C12 4146   4.203   3.268  14.917
   57SAPC  H12A 4147   4.182   3.169  14.949
   57SAPC  H12B 4148   4.278   3.311  14.982
   57SAPC   C13 4149   3.975   3.302  14.823
   57SAPC  H13A 4150   3.958   3.195  14.828
   57SAPC  H13B 4151   3.881   3.354  14.828
   57SAPC  H13C 4152   4.019   3.322  14.724
   57SAPC   C14 4153   4.015   3.338  15.066
   57SAPC  H14A 4154   3.997   3.236  15.093
   57SAPC  H14B 4155   4.084   3.381  15.138
   57SAPC  H14C 4156   3.922   3.394  15.076
   57SAPC   C15 4157   4.099   3.493  14.904
   57SAPC  H15A 4158   4.154   3.536  14.987
   57SAPC  H15B 4159   4.158   3.505  14.813
   57SAPC  H15C 4160   4.006   3.548  14.894
   57SAPC   C11 4161   4.273   3.241  14.780
   57SAPC  H11A 4162   4.204   3.172  14.724
   57SAPC  H11B 4163   4.367   3.183  14.797
   57SAPC     P 4164   4.298   3.341  14.551
   57SAPC   O13 4165   4.388   3.231  14.509
   57SAPC   O14 4166   4.153   3.325  14.525
   57SAPC   O12 4167   4.306   3.361  14.709
   57SAPC   O11 4168   4.346   3.477  14.489
   57SAPC    C1 4169   4.398   3.581  14.570
   57SAPC    HA 4170   4.318   3.633  14.625
   57SAPC    HB 4171   4.476   3.544  14.642
   57SAPC    C2 4172   4.468   3.681  14.483
   57SAPC    HS 4173   4.457   3.784  14.524
   57SAPC   O21 4174   4.429   3.682  14.346
   57SAPC   C21 4175   4.310   3.726  14.314
   57SAPC   O22 4176   4.229   3.779  14.388
   57SAPC   C22 4177   4.297   3.708  14.166
   57SAPC   H2R 4178   4.305   3.603  14.132
   57SAPC   H2S 4179   4.201   3.753  14.137
   57SAPC    C3 4180   4.615   3.637  14.490
   57SAPC    HX 4181   4.670   3.660  14.583
   57SAPC    HY 4182   4.652   3.703  14.416
   57SAPC   O31 4183   4.651   3.509  14.449
   57SAPC   C31 4184   4.691   3.507  14.325
   57SAPC   O32 4185   4.687   3.600  14.246
   57SAPC   C32 4186   4.752   3.372  14.310
   57SAPC   H2X 4187   4.679   3.309  14.364
   57SAPC   H2Y 4188   4.850   3.369  14.363
   57SAPC   C23 4189   4.407   3.786  14.103
   57SAPC   H3R 4190   4.510   3.782  14.142
   57SAPC   H3S 4191   4.375   3.888  14.105
   57SAPC   C24 4192   4.408   3.783  13.958
   57SAPC   H4R 4193   4.504   3.837  13.942
   57SAPC   H4S 4194   4.319   3.846  13.933
   57SAPC   C25 4195   4.398   3.660  13.881
   57SAPC   H5R 4196   4.298   3.636  13.847
   57SAPC   C26 4197   4.505   3.593  13.844
   57SAPC   H6R 4198   4.497   3.493  13.804
   57SAPC   C27 4199   4.642   3.635  13.875
   57SAPC   H7R 4200   4.711   3.551  13.852
   57SAPC   H7S 4201   4.645   3.655  13.984
   57SAPC   C28 4202   4.697   3.759  13.815
   57SAPC   H8R 4203   4.719   3.835  13.890
   57SAPC   C29 4204   4.723   3.783  13.689
   57SAPC   H9R 4205   4.768   3.878  13.653
   57SAPC  C210 4206   4.695   3.682  13.592
   57SAPC  H10R 4207   4.611   3.723  13.533
   57SAPC  H10S 4208   4.663   3.586  13.637
   57SAPC  C211 4209   4.813   3.673  13.509
   57SAPC  H11R 4210   4.906   3.730  13.519
   57SAPC  C212 4211   4.804   3.579  13.423
   57SAPC  H12R 4212   4.887   3.590  13.350
   57SAPC  C213 4213   4.681   3.486  13.413
   57SAPC  H13R 4214   4.645   3.450  13.510
   57SAPC  H13S 4215   4.699   3.382  13.393
   57SAPC  C214 4216   4.574   3.519  13.314
   57SAPC  H14R 4217   4.532   3.616  13.343
   57SAPC  C215 4218   4.538   3.462  13.193
   57SAPC  H15R 4219   4.482   3.528  13.131
   57SAPC  C216 4220   4.577   3.348  13.098
   57SAPC  H16R 4221   4.492   3.288  13.064
   57SAPC  H16S 4222   4.647   3.270  13.138
   57SAPC  C217 4223   4.643   3.387  12.966
   57SAPC  H17R 4224   4.677   3.298  12.925
   57SAPC  H17S 4225   4.743   3.417  12.957
   57SAPC  C218 4226   4.591   3.488  12.871
   57SAPC  H18R 4227   4.601   3.594  12.907
   57SAPC  H18S 4228   4.484   3.475  12.852
   57SAPC  C219 4229   4.675   3.462  12.741
   57SAPC  H19R 4230   4.691   3.387  12.668
   57SAPC  H19S 4231   4.780   3.471  12.726
   57SAPC  C220 4232   4.608   3.503  12.637
   57SAPC  H20R 4233   4.620   3.591  12.704
   57SAPC  H20S 4234   4.501   3.517  12.622
   57SAPC  H20T 4235   4.682   3.512  12.551
   57SAPC   C33 4236   4.771   3.324  14.166
   57SAPC   H3X 4237   4.821   3.226  14.167
   57SAPC   H3Y 4238   4.850   3.378  14.121
   57SAPC   C34 4239   4.648   3.320  14.076
   57SAPC   H4X 4240   4.689   3.307  13.973
   57SAPC   H4Y 4241   4.592   3.416  14.074
   57SAPC   C35 4242   4.565   3.196  14.111
   57SAPC   H5X 4243   4.543   3.193  14.220
   57SAPC   H5Y 4244   4.630   3.108  14.088
   57SAPC   C36 4245   4.430   3.184  14.040
   57SAPC   H6X 4246   4.370   3.273  14.070
   57SAPC   H6Y 4247   4.372   3.097  14.079
   57SAPC   C37 4248   4.444   3.167  13.888
   57SAPC   H7X 4249   4.488   3.066  13.869
   57SAPC   H7Y 4250   4.513   3.244  13.850
   57SAPC   C38 4251   4.309   3.176  13.814
   57SAPC   H8X 4252   4.265   3.274  13.843
   57SAPC   H8Y 4253   4.242   3.096  13.852
   57SAPC   C39 4254   4.315   3.168  13.661
   57SAPC   H9X 4255   4.210   3.167  13.623
   57SAPC   H9Y 4256   4.362   3.072  13.629
   57SAPC  C310 4257   4.395   3.282  13.597
   57SAPC  H10X 4258   4.413   3.261  13.489
   57SAPC  H10Y 4259   4.494   3.287  13.646
   57SAPC  C311 4260   4.331   3.418  13.605
   57SAPC  H11X 4261   4.399   3.497  13.564
   57SAPC  H11Y 4262   4.300   3.451  13.707
   57SAPC  C312 4263   4.210   3.420  13.520
   57SAPC  H12X 4264   4.122   3.362  13.558
   57SAPC  H12Y 4265   4.228   3.394  13.414
   57SAPC  C313 4266   4.172   3.559  13.526
   57SAPC  H13X 4267   4.241   3.633  13.574
   57SAPC  H13Y 4268   4.078   3.545  13.580
   57SAPC  C314 4269   4.136   3.613  13.397
   57SAPC  H14X 4270   4.098   3.704  13.434
   57SAPC  H14Y 4271   4.052   3.548  13.359
   57SAPC  C315 4272   4.265   3.657  13.319
   57SAPC  H15X 4273   4.290   3.550  13.307
   57SAPC  H15Y 4274   4.336   3.712  13.378
   57SAPC  C316 4275   4.263   3.760  13.197
   57SAPC  H16X 4276   4.189   3.828  13.161
   57SAPC  H16Y 4277   4.188   3.692  13.214
   57SAPC  C317 4278   4.330   3.803  13.052
   57SAPC  H17X 4279   4.428   3.813  13.096
   57SAPC  H17Y 4280   4.277   3.901  13.025
   57SAPC  C318 4281   4.345   3.744  12.906
   57SAPC  H18X 4282   4.389   3.646  12.899
   57SAPC  H18Y 4283   4.442   3.750  12.865
   57SAPC  H18Z 4284   4.258   3.729  12.839
   58SAPC     N 4285   3.469   2.130  14.632
   58SAPC   C12 4286   3.482   2.085  14.777
   58SAPC  H12A 4287   3.480   2.173  14.840
   58SAPC  H12B 4288   3.579   2.038  14.790
   58SAPC   C13 4289   3.474   2.014  14.539
   58SAPC  H13A 4290   3.437   2.038  14.440
   58SAPC  H13B 4291   3.577   1.980  14.530
   58SAPC  H13C 4292   3.416   1.931  14.580
   58SAPC   C14 4293   3.340   2.203  14.617
   58SAPC  H14A 4294   3.344   2.297  14.670
   58SAPC  H14B 4295   3.318   2.224  14.513
   58SAPC  H14C 4296   3.260   2.145  14.661
   58SAPC   C15 4297   3.587   2.217  14.600
   58SAPC  H15A 4298   3.577   2.262  14.502
   58SAPC  H15B 4299   3.600   2.299  14.670
   58SAPC  H15C 4300   3.678   2.157  14.602
   58SAPC   C11 4301   3.377   1.987  14.832
   58SAPC  H11A 4302   3.276   2.031  14.814
   58SAPC  H11B 4303   3.392   1.985  14.943
   58SAPC     P 4304   3.399   1.721  14.849
   58SAPC   O13 4305   3.540   1.675  14.849
   58SAPC   O14 4306   3.336   1.736  14.981
   58SAPC   O12 4307   3.389   1.859  14.770
   58SAPC   O11 4308   3.310   1.626  14.760
   58SAPC    C1 4309   3.225   1.674  14.657
   58SAPC    HA 4310   3.123   1.655  14.692
   58SAPC    HB 4311   3.220   1.783  14.644
   58SAPC    C2 4312   3.249   1.596  14.524
   58SAPC    HS 4313   3.259   1.487  14.550
   58SAPC   O21 4314   3.365   1.647  14.457
   58SAPC   C21 4315   3.481   1.593  14.493
   58SAPC   O22 4316   3.496   1.494  14.561
   58SAPC   C22 4317   3.597   1.666  14.422
   58SAPC   H2R 4318   3.638   1.746  14.487
   58SAPC   H2S 4319   3.679   1.592  14.406
   58SAPC    C3 4320   3.125   1.612  14.431
   58SAPC    HX 4321   3.032   1.571  14.473
   58SAPC    HY 4322   3.138   1.554  14.336
   58SAPC   O31 4323   3.101   1.752  14.416
   58SAPC   C31 4324   3.128   1.802  14.297
   58SAPC   O32 4325   3.154   1.739  14.196
   58SAPC   C32 4326   3.114   1.953  14.309
   58SAPC   H2X 4327   3.122   1.984  14.415
   58SAPC   H2Y 4328   3.013   1.984  14.274
   58SAPC   C23 4329   3.553   1.722  14.285
   58SAPC   H3R 4330   3.485   1.808  14.301
   58SAPC   H3S 4331   3.494   1.644  14.232
   58SAPC   C24 4332   3.672   1.763  14.197
   58SAPC   H4R 4333   3.743   1.821  14.259
   58SAPC   H4S 4334   3.633   1.832  14.119
   58SAPC   C25 4335   3.743   1.647  14.131
   58SAPC   H5R 4336   3.785   1.572  14.202
   58SAPC   C26 4337   3.734   1.610  14.002
   58SAPC   H6R 4338   3.771   1.508  13.977
   58SAPC   C27 4339   3.651   1.675  13.892
   58SAPC   H7R 4340   3.641   1.781  13.910
   58SAPC   H7S 4341   3.543   1.651  13.898
   58SAPC   C28 4342   3.702   1.638  13.755
   58SAPC   H8R 4343   3.810   1.622  13.748
   58SAPC   C29 4344   3.632   1.616  13.644
   58SAPC   H9R 4345   3.684   1.579  13.554
   58SAPC  C210 4346   3.484   1.625  13.641
   58SAPC  H10R 4347   3.437   1.720  13.618
   58SAPC  H10S 4348   3.433   1.590  13.735
   58SAPC  C211 4349   3.455   1.542  13.527
   58SAPC  H11R 4350   3.510   1.442  13.507
   58SAPC  C212 4351   3.326   1.544  13.515
   58SAPC  H12R 4352   3.338   1.438  13.498
   58SAPC  C213 4353   3.200   1.610  13.585
   58SAPC  H13R 4354   3.239   1.704  13.615
   58SAPC  H13S 4355   3.160   1.563  13.683
   58SAPC  C214 4356   3.076   1.675  13.521
   58SAPC  H14R 4357   2.992   1.625  13.577
   58SAPC  C215 4358   3.053   1.713  13.386
   58SAPC  H15R 4359   2.962   1.691  13.330
   58SAPC  C216 4360   3.140   1.701  13.264
   58SAPC  H16R 4361   3.236   1.709  13.318
   58SAPC  H16S 4362   3.113   1.787  13.200
   58SAPC  C217 4363   3.164   1.577  13.162
   58SAPC  H17R 4364   3.166   1.471  13.183
   58SAPC  H17S 4365   3.271   1.595  13.159
   58SAPC  C218 4366   3.093   1.536  13.033
   58SAPC  H18R 4367   3.043   1.438  13.010
   58SAPC  H18S 4368   3.137   1.456  12.974
   58SAPC  C219 4369   3.022   1.645  12.982
   58SAPC  H19R 4370   3.100   1.725  12.984
   58SAPC  H19S 4371   2.934   1.684  13.037
   58SAPC  C220 4372   2.987   1.574  12.859
   58SAPC  H20R 4373   2.913   1.503  12.829
   58SAPC  H20S 4374   3.078   1.564  12.796
   58SAPC  H20T 4375   2.901   1.632  12.827
   58SAPC   C33 4376   3.219   2.021  14.223
   58SAPC   H3X 4377   3.213   1.977  14.121
   58SAPC   H3Y 4378   3.322   2.004  14.261
   58SAPC   C34 4379   3.190   2.170  14.214
   58SAPC   H4X 4380   3.166   2.207  14.316
   58SAPC   H4Y 4381   3.100   2.185  14.149
   58SAPC   C35 4382   3.307   2.247  14.154
   58SAPC   H5X 4383   3.401   2.222  14.209
   58SAPC   H5Y 4384   3.283   2.354  14.169
   58SAPC   C36 4385   3.325   2.224  14.004
   58SAPC   H6X 4386   3.250   2.285  13.949
   58SAPC   H6Y 4387   3.309   2.117  13.980
   58SAPC   C37 4388   3.464   2.253  13.947
   58SAPC   H7X 4389   3.516   2.337  13.990
   58SAPC   H7Y 4390   3.453   2.277  13.839
   58SAPC   C38 4391   3.573   2.159  13.988
   58SAPC   H8X 4392   3.565   2.136  14.097
   58SAPC   H8Y 4393   3.670   2.214  13.975
   58SAPC   C39 4394   3.570   2.036  13.902
   58SAPC   H9X 4395   3.498   1.962  13.939
   58SAPC   H9Y 4396   3.671   1.996  13.920
   58SAPC  C310 4397   3.550   2.067  13.753
   58SAPC  H10X 4398   3.636   2.136  13.741
   58SAPC  H10Y 4399   3.455   2.116  13.725
   58SAPC  C311 4400   3.573   1.956  13.653
   58SAPC  H11X 4401   3.521   1.865  13.672
   58SAPC  H11Y 4402   3.661   1.925  13.696
   58SAPC  C312 4403   3.618   1.991  13.510
   58SAPC  H12X 4404   3.693   1.924  13.462
   58SAPC  H12Y 4405   3.670   2.087  13.510
   58SAPC  C313 4406   3.500   2.019  13.424
   58SAPC  H13X 4407   3.527   2.104  13.358
   58SAPC  H13Y 4408   3.423   2.054  13.498
   58SAPC  C314 4409   3.449   1.897  13.346
   58SAPC  H14X 4410   3.346   1.923  13.315
   58SAPC  H14Y 4411   3.441   1.811  13.416
   58SAPC  C315 4412   3.531   1.859  13.222
   58SAPC  H15X 4413   3.526   1.749  13.206
   58SAPC  H15Y 4414   3.638   1.886  13.234
   58SAPC  C316 4415   3.483   1.932  13.095
   58SAPC  H16X 4416   3.491   2.040  13.116
   58SAPC  H16Y 4417   3.375   1.908  13.076
   58SAPC  C317 4418   3.569   1.906  12.970
   58SAPC  H17X 4419   3.676   1.905  12.997
   58SAPC  H17Y 4420   3.543   1.979  12.890
   58SAPC  C318 4421   3.540   1.776  12.909
   58SAPC  H18X 4422   3.431   1.776  12.885
   58SAPC  H18Y 4423   3.564   1.702  12.989
   58SAPC  H18Z 4424   3.596   1.746  12.817
   59SAPC     N 4425   1.583   4.195  14.949
   59SAPC   C12 4426   1.432   4.191  14.921
   59SAPC  H12A 4427   1.383   4.243  15.003
   59SAPC  H12B 4428   1.396   4.087  14.918
   59SAPC   C13 4429   1.661   4.124  14.841
   59SAPC  H13A 4430   1.767   4.132  14.855
   59SAPC  H13B 4431   1.635   4.019  14.834
   59SAPC  H13C 4432   1.636   4.163  14.742
   59SAPC   C14 4433   1.626   4.338  14.947
   59SAPC  H14A 4434   1.579   4.395  15.027
   59SAPC  H14B 4435   1.732   4.344  14.958
   59SAPC  H14C 4436   1.597   4.383  14.852
   59SAPC   C15 4437   1.614   4.137  15.083
   59SAPC  H15A 4438   1.578   4.035  15.094
   59SAPC  H15B 4439   1.721   4.137  15.098
   59SAPC  H15C 4440   1.569   4.190  15.165
   59SAPC   C11 4441   1.374   4.256  14.793
   59SAPC  H11A 4442   1.408   4.360  14.776
   59SAPC  H11B 4443   1.263   4.262  14.809
   59SAPC     P 4444   1.403   4.220  14.531
   59SAPC   O13 4445   1.508   4.320  14.520
   59SAPC   O14 4446   1.411   4.103  14.441
   59SAPC   O12 4447   1.400   4.171  14.682
   59SAPC   O11 4448   1.263   4.285  14.516
   59SAPC    C1 4449   1.150   4.210  14.556
   59SAPC    HA 4450   1.162   4.099  14.555
   59SAPC    HB 4451   1.116   4.241  14.658
   59SAPC    C2 4452   1.042   4.240  14.458
   59SAPC    HS 4453   0.973   4.160  14.488
   59SAPC   O21 4454   1.082   4.217  14.322
   59SAPC   C21 4455   1.094   4.099  14.270
   59SAPC   O22 4456   1.060   3.995  14.324
   59SAPC   C22 4457   1.083   4.118  14.114
   59SAPC   H2R 4458   0.984   4.123  14.064
   59SAPC   H2S 4459   1.127   4.211  14.079
   59SAPC    C3 4460   0.990   4.393  14.476
   59SAPC    HX 4461   0.965   4.410  14.583
   59SAPC    HY 4462   0.892   4.419  14.434
   59SAPC   O31 4463   1.075   4.500  14.435
   59SAPC   C31 4464   1.114   4.513  14.312
   59SAPC   O32 4465   1.111   4.425  14.228
   59SAPC   C32 4466   1.162   4.646  14.266
   59SAPC   H2X 4467   1.220   4.688  14.351
   59SAPC   H2Y 4468   1.086   4.718  14.229
   59SAPC   C23 4469   1.118   3.986  14.054
   59SAPC   H3R 4470   1.029   3.930  14.084
   59SAPC   H3S 4471   1.202   3.941  14.110
   59SAPC   C24 4472   1.148   3.989  13.905
   59SAPC   H4R 4473   1.187   3.891  13.869
   59SAPC   H4S 4474   1.232   4.062  13.902
   59SAPC   C25 4475   1.045   4.049  13.813
   59SAPC   H5R 4476   1.051   4.157  13.811
   59SAPC   C26 4477   0.975   4.000  13.709
   59SAPC   H6R 4478   0.926   4.069  13.645
   59SAPC   C27 4479   0.966   3.872  13.639
   59SAPC   H7R 4480   0.868   3.813  13.644
   59SAPC   H7S 4481   1.003   3.837  13.719
   59SAPC   C28 4482   1.093   3.827  13.569
   59SAPC   H8R 4483   1.145   3.732  13.589
   59SAPC   C29 4484   1.111   3.855  13.448
   59SAPC   H9R 4485   1.160   3.776  13.390
   59SAPC  C210 4486   0.999   3.927  13.392
   59SAPC  H10R 4487   0.915   3.981  13.443
   59SAPC  H10S 4488   0.934   3.840  13.391
   59SAPC  C211 4489   1.063   3.975  13.264
   59SAPC  H11R 4490   1.120   3.900  13.209
   59SAPC  C212 4491   1.052   4.096  13.209
   59SAPC  H12R 4492   1.057   4.104  13.103
   59SAPC  C213 4493   0.976   4.207  13.264
   59SAPC  H13R 4494   0.948   4.153  13.350
   59SAPC  H13S 4495   0.884   4.221  13.219
   59SAPC  C214 4496   0.960   4.352  13.254
   59SAPC  H14R 4497   0.968   4.379  13.360
   59SAPC  C215 4498   0.906   4.429  13.152
   59SAPC  H15R 4499   0.914   4.536  13.169
   59SAPC  C216 4500   0.847   4.382  13.016
   59SAPC  H16R 4501   0.836   4.270  13.004
   59SAPC  H16S 4502   0.907   4.409  12.928
   59SAPC  C217 4503   0.703   4.427  12.983
   59SAPC  H17R 4504   0.667   4.519  13.017
   59SAPC  H17S 4505   0.642   4.433  13.074
   59SAPC  C218 4506   0.645   4.366  12.852
   59SAPC  H18R 4507   0.532   4.353  12.846
   59SAPC  H18S 4508   0.687   4.267  12.831
   59SAPC  C219 4509   0.622   4.447  12.738
   59SAPC  H19R 4510   0.715   4.496  12.713
   59SAPC  H19S 4511   0.547   4.518  12.779
   59SAPC  C220 4512   0.564   4.365  12.627
   59SAPC  H20R 4513   0.507   4.422  12.553
   59SAPC  H20S 4514   0.491   4.295  12.664
   59SAPC  H20T 4515   0.645   4.307  12.583
   59SAPC   C33 4516   1.251   4.604  14.148
   59SAPC   H3X 4517   1.303   4.694  14.111
   59SAPC   H3Y 4518   1.200   4.558  14.059
   59SAPC   C34 4519   1.356   4.508  14.197
   59SAPC   H4X 4520   1.329   4.401  14.218
   59SAPC   H4Y 4521   1.395   4.549  14.294
   59SAPC   C35 4522   1.460   4.499  14.098
   59SAPC   H5X 4523   1.486   4.601  14.058
   59SAPC   H5Y 4524   1.445   4.429  14.014
   59SAPC   C36 4525   1.568   4.448  14.182
   59SAPC   H6X 4526   1.609   4.517  14.252
   59SAPC   H6Y 4527   1.637   4.516  14.129
   59SAPC   C37 4528   1.587   4.288  14.203
   59SAPC   H7X 4529   1.532   4.252  14.288
   59SAPC   H7Y 4530   1.678   4.253  14.254
   59SAPC   C38 4531   1.616   4.185  14.090
   59SAPC   H8X 4532   1.712   4.125  14.095
   59SAPC   H8Y 4533   1.644   4.221  13.996
   59SAPC   C39 4534   1.491   4.141  14.026
   59SAPC   H9X 4535   1.430   4.226  13.994
   59SAPC   H9Y 4536   1.456   4.080  14.111
   59SAPC  C310 4537   1.519   4.071  13.898
   59SAPC  H10X 4538   1.450   3.989  13.875
   59SAPC  H10Y 4539   1.621   4.044  13.928
   59SAPC  C311 4540   1.560   4.141  13.771
   59SAPC  H11X 4541   1.605   4.070  13.703
   59SAPC  H11Y 4542   1.640   4.205  13.804
   59SAPC  C312 4543   1.453   4.212  13.694
   59SAPC  H12X 4544   1.505   4.277  13.620
   59SAPC  H12Y 4545   1.400   4.274  13.768
   59SAPC  C313 4546   1.359   4.116  13.619
   59SAPC  H13X 4547   1.262   4.170  13.611
   59SAPC  H13Y 4548   1.339   4.024  13.676
   59SAPC  C314 4549   1.404   4.082  13.475
   59SAPC  H14X 4550   1.370   3.979  13.449
   59SAPC  H14Y 4551   1.514   4.081  13.465
   59SAPC  C315 4552   1.342   4.182  13.377
   59SAPC  H15X 4553   1.400   4.277  13.386
   59SAPC  H15Y 4554   1.237   4.206  13.408
   59SAPC  C316 4555   1.339   4.136  13.231
   59SAPC  H16X 4556   1.263   4.195  13.176
   59SAPC  H16Y 4557   1.322   4.027  13.224
   59SAPC  C317 4558   1.464   4.167  13.160
   59SAPC  H17X 4559   1.539   4.093  13.193
   59SAPC  H17Y 4560   1.482   4.269  13.200
   59SAPC  C318 4561   1.464   4.171  13.007
   59SAPC  H18X 4562   1.416   4.265  12.971
   59SAPC  H18Y 4563   1.411   4.082  12.970
   59SAPC  H18Z 4564   1.566   4.167  12.964
   60SAPC     N 4565   0.961   4.859  14.965
   60SAPC   C12 4566   0.857   4.828  14.859
   60SAPC  H12A 4567   0.760   4.844  14.903
   60SAPC  H12B 4568   0.864   4.724  14.830
   60SAPC   C13 4569   0.966   5.007  14.989
   60SAPC  H13A 4570   1.012   5.065  14.908
   60SAPC  H13B 4571   0.864   5.043  14.997
   60SAPC  H13C 4572   1.015   5.034  15.081
   60SAPC   C14 4573   0.915   4.794  15.090
   60SAPC  H14A 4574   0.918   4.687  15.076
   60SAPC  H14B 4575   0.974   4.825  15.175
   60SAPC  H14C 4576   0.812   4.823  15.112
   60SAPC   C15 4577   1.095   4.801  14.923
   60SAPC  H15A 4578   1.175   4.823  14.991
   60SAPC  H15B 4579   1.091   4.694  14.907
   60SAPC  H15C 4580   1.122   4.839  14.824
   60SAPC   C11 4581   0.861   4.907  14.728
   60SAPC  H11A 4582   0.833   5.010  14.749
   60SAPC  H11B 4583   0.782   4.864  14.660
   60SAPC     P 4584   1.019   4.847  14.532
   60SAPC   O13 4585   1.148   4.899  14.482
   60SAPC   O14 4586   0.991   4.704  14.542
   60SAPC   O12 4587   0.991   4.909  14.673
   60SAPC   O11 4588   0.901   4.910  14.449
   60SAPC    C1 4589   0.908   5.037  14.387
   60SAPC    HA 4590   0.961   5.112  14.449
   60SAPC    HB 4591   0.965   5.026  14.292
   60SAPC    C2 4592   0.771   5.087  14.337
   60SAPC    HS 4593   0.711   5.125  14.423
   60SAPC   O21 4594   0.696   4.982  14.273
   60SAPC   C21 4595   0.635   4.891  14.345
   60SAPC   O22 4596   0.587   4.905  14.456
   60SAPC   C22 4597   0.626   4.766  14.259
   60SAPC   H2R 4598   0.567   4.687  14.312
   60SAPC   H2S 4599   0.575   4.792  14.165
   60SAPC    C3 4600   0.798   5.200  14.233
   60SAPC    HX 4601   0.822   5.295  14.287
   60SAPC    HY 4602   0.711   5.223  14.177
   60SAPC   O31 4603   0.883   5.171  14.124
   60SAPC   C31 4604   0.832   5.097  14.023
   60SAPC   O32 4605   0.724   5.045  14.014
   60SAPC   C32 4606   0.938   5.077  13.921
   60SAPC   H2X 4607   0.937   5.162  13.850
   60SAPC   H2Y 4608   0.908   4.982  13.871
   60SAPC   C23 4609   0.765   4.709  14.227
   60SAPC   H3R 4610   0.841   4.733  14.305
   60SAPC   H3S 4611   0.801   4.756  14.133
   60SAPC   C24 4612   0.748   4.557  14.217
   60SAPC   H4R 4613   0.666   4.527  14.152
   60SAPC   H4S 4614   0.733   4.520  14.322
   60SAPC   C25 4615   0.864   4.490  14.162
   60SAPC   H5R 4616   0.900   4.424  14.241
   60SAPC   C26 4617   0.920   4.480  14.041
   60SAPC   H6R 4618   1.027   4.455  14.034
   60SAPC   C27 4619   0.876   4.538  13.914
   60SAPC   H7R 4620   0.886   4.647  13.914
   60SAPC   H7S 4621   0.768   4.518  13.918
   60SAPC   C28 4622   0.953   4.471  13.801
   60SAPC   H8R 4623   0.954   4.362  13.795
   60SAPC   C29 4624   1.043   4.525  13.720
   60SAPC   H9R 4625   1.080   4.461  13.638
   60SAPC  C210 4626   1.088   4.667  13.725
   60SAPC  H10R 4627   1.180   4.671  13.786
   60SAPC  H10S 4628   1.016   4.731  13.781
   60SAPC  C211 4629   1.115   4.721  13.588
   60SAPC  H11R 4630   1.218   4.709  13.553
   60SAPC  C212 4631   1.025   4.780  13.507
   60SAPC  H12R 4632   1.060   4.826  13.414
   60SAPC  C213 4633   0.879   4.803  13.539
   60SAPC  H13R 4634   0.860   4.793  13.649
   60SAPC  H13S 4635   0.818   4.724  13.491
   60SAPC  C214 4636   0.836   4.942  13.496
   60SAPC  H14R 4637   0.834   5.014  13.580
   60SAPC  C215 4638   0.801   4.983  13.373
   60SAPC  H15R 4639   0.766   5.087  13.361
   60SAPC  C216 4640   0.797   4.896  13.249
   60SAPC  H16R 4641   0.789   4.791  13.281
   60SAPC  H16S 4642   0.890   4.908  13.188
   60SAPC  C217 4643   0.673   4.912  13.160
   60SAPC  H17R 4644   0.641   5.010  13.167
   60SAPC  H17S 4645   0.577   4.881  13.202
   60SAPC  C218 4646   0.686   4.867  13.016
   60SAPC  H18R 4647   0.750   4.925  12.946
   60SAPC  H18S 4648   0.584   4.858  12.970
   60SAPC  C219 4649   0.749   4.735  13.021
   60SAPC  H19R 4650   0.692   4.681  13.104
   60SAPC  H19S 4651   0.856   4.728  13.046
   60SAPC  C220 4652   0.733   4.682  12.882
   60SAPC  H20R 4653   0.743   4.740  12.792
   60SAPC  H20S 4654   0.628   4.646  12.886
   60SAPC  H20T 4655   0.802   4.597  12.870
   60SAPC   C33 4656   1.069   5.060  13.999
   60SAPC   H3X 4657   1.048   5.004  14.093
   60SAPC   H3Y 4658   1.102   5.160  14.032
   60SAPC   C34 4659   1.178   4.980  13.927
   60SAPC   H4X 4660   1.156   4.872  13.942
   60SAPC   H4Y 4661   1.274   5.006  13.978
   60SAPC   C35 4662   1.195   4.999  13.777
   60SAPC   H5X 4663   1.102   4.980  13.720
   60SAPC   H5Y 4664   1.278   4.937  13.736
   60SAPC   C36 4665   1.237   5.137  13.749
   60SAPC   H6X 4666   1.323   5.167  13.815
   60SAPC   H6Y 4667   1.148   5.198  13.776
   60SAPC   C37 4668   1.282   5.161  13.605
   60SAPC   H7X 4669   1.375   5.108  13.582
   60SAPC   H7Y 4670   1.318   5.263  13.605
   60SAPC   C38 4671   1.171   5.139  13.502
   60SAPC   H8X 4672   1.080   5.196  13.533
   60SAPC   H8Y 4673   1.146   5.031  13.502
   60SAPC   C39 4674   1.205   5.183  13.360
   60SAPC   H9X 4675   1.285   5.120  13.315
   60SAPC   H9Y 4676   1.239   5.289  13.364
   60SAPC  C310 4677   1.082   5.176  13.269
   60SAPC  H10X 4678   0.999   5.230  13.320
   60SAPC  H10Y 4679   1.051   5.071  13.251
   60SAPC  C311 4680   1.105   5.249  13.137
   60SAPC  H11X 4681   1.195   5.210  13.087
   60SAPC  H11Y 4682   1.126   5.353  13.163
   60SAPC  C312 4683   0.975   5.265  13.059
   60SAPC  H12X 4684   0.950   5.366  13.018
   60SAPC  H12Y 4685   0.902   5.229  13.129
   60SAPC  C313 4686   0.961   5.176  12.944
   60SAPC  H13X 4687   0.969   5.068  12.972
   60SAPC  H13Y 4688   1.058   5.215  12.916
   60SAPC  C314 4689   0.866   5.224  12.835
   60SAPC  H14X 4690   0.891   5.323  12.792
   60SAPC  H14Y 4691   0.761   5.233  12.848
   60SAPC  C315 4692   0.831   5.120  12.740
   60SAPC  H15X 4693   0.825   5.009  12.756
   60SAPC  H15Y 4694   0.914   5.169  12.676
   60SAPC  C316 4695   0.743   5.122  12.637
   60SAPC  H16X 4696   0.795   5.072  12.550
   60SAPC  H16Y 4697   0.751   5.233  12.622
   60SAPC  C317 4698   0.601   5.062  12.666
   60SAPC  H17X 4699   0.572   5.166  12.693
   60SAPC  H17Y 4700   0.606   4.983  12.742
   60SAPC  C318 4701   0.470   5.043  12.582
   60SAPC  H18X 4702   0.391   4.985  12.629
   60SAPC  H18Y 4703   0.493   4.998  12.484
   60SAPC  H18Z 4704   0.425   5.144  12.560
   61SAPC     N 4705   6.448   4.544  14.718
   61SAPC   C12 4706   6.476   4.682  14.663
   61SAPC  H12A 4707   6.449   4.760  14.735
   61SAPC  H12B 4708   6.413   4.696  14.577
   61SAPC   C13 4709   6.299   4.530  14.730
   61SAPC  H13A 4710   6.254   4.526  14.630
   61SAPC  H13B 4711   6.270   4.440  14.781
   61SAPC  H13C 4712   6.254   4.615  14.779
   61SAPC   C14 4713   6.498   4.446  14.616
   61SAPC  H14A 4714   6.451   4.465  14.520
   61SAPC  H14B 4715   6.605   4.458  14.601
   61SAPC  H14C 4716   6.476   4.343  14.641
   61SAPC   C15 4717   6.519   4.520  14.847
   61SAPC  H15A 4718   6.618   4.567  14.843
   61SAPC  H15B 4719   6.465   4.564  14.930
   61SAPC  H15C 4720   6.536   4.415  14.864
   61SAPC   C11 4721   6.620   4.707  14.615
   61SAPC  H11A 4722   6.618   4.805  14.560
   61SAPC  H11B 4723   6.654   4.633  14.540
   61SAPC     P 4724   6.737   4.827  14.807
   61SAPC   O13 4725   6.631   4.847  14.907
   61SAPC   O14 4726   6.874   4.831  14.856
   61SAPC   O12 4727   6.711   4.699  14.724
   61SAPC   O11 4728   6.718   4.936  14.696
   61SAPC    C1 4729   6.781   5.060  14.715
   61SAPC    HA 4730   6.723   5.120  14.788
   61SAPC    HB 4731   6.883   5.034  14.744
   61SAPC    C2 4732   6.788   5.156  14.597
   61SAPC    HS 4733   6.791   5.265  14.625
   61SAPC   O21 4734   6.678   5.113  14.529
   61SAPC   C21 4735   6.641   5.196  14.450
   61SAPC   O22 4736   6.689   5.308  14.427
   61SAPC   C22 4737   6.547   5.107  14.370
   61SAPC   H2R 4738   6.540   5.000  14.391
   61SAPC   H2S 4739   6.446   5.144  14.399
   61SAPC    C3 4740   6.910   5.137  14.520
   61SAPC    HX 4741   6.982   5.175  14.593
   61SAPC    HY 4742   6.935   5.192  14.426
   61SAPC   O31 4743   6.923   4.995  14.513
   61SAPC   C31 4744   6.874   4.950  14.407
   61SAPC   O32 4745   6.839   5.010  14.308
   61SAPC   C32 4746   6.895   4.809  14.415
   61SAPC   H2X 4747   6.868   4.765  14.513
   61SAPC   H2Y 4748   7.005   4.805  14.410
   61SAPC   C23 4749   6.612   5.111  14.230
   61SAPC   H3R 4750   6.710   5.160  14.220
   61SAPC   H3S 4751   6.588   5.216  14.218
   61SAPC   C24 4752   6.593   4.987  14.117
   61SAPC   H4R 4753   6.507   4.942  14.172
   61SAPC   H4S 4754   6.663   4.911  14.144
   61SAPC   C25 4755   6.566   4.980  13.953
   61SAPC   H5R 4756   6.470   4.995  13.898
   61SAPC   C26 4757   6.641   5.040  13.869
   61SAPC   H6R 4758   6.612   5.076  13.765
   61SAPC   C27 4759   6.747   5.105  13.939
   61SAPC   H7R 4760   6.789   5.007  13.957
   61SAPC   H7S 4761   6.762   5.128  14.044
   61SAPC   C28 4762   6.797   5.212  13.854
   61SAPC   H8R 4763   6.868   5.278  13.910
   61SAPC   C29 4764   6.832   5.186  13.730
   61SAPC   H9R 4765   6.917   5.249  13.732
   61SAPC  C210 4766   6.834   5.051  13.642
   61SAPC  H10R 4767   6.806   4.956  13.689
   61SAPC  H10S 4768   6.937   5.043  13.600
   61SAPC  C211 4769   6.784   5.015  13.512
   61SAPC  H11R 4770   6.708   5.091  13.495
   61SAPC  C212 4771   6.841   4.970  13.399
   61SAPC  H12R 4772   6.782   5.025  13.328
   61SAPC  C213 4773   6.986   4.939  13.354
   61SAPC  H13R 4774   7.067   4.984  13.413
   61SAPC  H13S 4775   7.043   4.971  13.267
   61SAPC  C214 4776   6.995   4.806  13.388
   61SAPC  H14R 4777   6.963   4.789  13.492
   61SAPC  C215 4778   7.062   4.712  13.328
   61SAPC  H15R 4779   7.080   4.632  13.389
   61SAPC  C216 4780   7.116   4.668  13.184
   61SAPC  H16R 4781   7.135   4.597  13.114
   61SAPC  H16S 4782   7.169   4.769  13.208
   61SAPC  C217 4783   7.025   4.631  12.988
   61SAPC  H17R 4784   7.025   4.713  12.910
   61SAPC  H17S 4785   6.940   4.697  12.943
   61SAPC  C218 4786   6.903   4.535  12.948
   61SAPC  H18R 4787   6.864   4.463  13.018
   61SAPC  H18S 4788   6.977   4.489  12.888
   61SAPC  C219 4789   6.755   4.558  12.901
   61SAPC  H19R 4790   6.718   4.453  12.897
   61SAPC  H19S 4791   6.786   4.579  12.802
   61SAPC  C220 4792   6.622   4.623  12.952
   61SAPC  H20R 4793   6.578   4.616  13.053
   61SAPC  H20S 4794   6.563   4.625  12.858
   61SAPC  H20T 4795   6.602   4.727  12.970
   61SAPC   C33 4796   6.810   4.755  14.302
   61SAPC   H3X 4797   6.707   4.792  14.291
   61SAPC   H3Y 4798   6.779   4.662  14.348
   61SAPC   C34 4799   6.875   4.760  14.162
   61SAPC   H4X 4800   6.983   4.736  14.153
   61SAPC   H4Y 4801   6.868   4.862  14.132
   61SAPC   C35 4802   6.795   4.693  14.054
   61SAPC   H5X 4803   6.692   4.726  14.040
   61SAPC   H5Y 4804   6.766   4.588  14.070
   61SAPC   C36 4805   6.877   4.682  13.936
   61SAPC   H6X 4806   6.987   4.662  13.950
   61SAPC   H6Y 4807   6.871   4.747  13.853
   61SAPC   C37 4808   6.806   4.586  13.858
   61SAPC   H7X 4809   6.803   4.493  13.906
   61SAPC   H7Y 4810   6.898   4.579  13.797
   61SAPC   C38 4811   6.662   4.607  13.801
   61SAPC   H8X 4812   6.589   4.608  13.884
   61SAPC   H8Y 4813   6.628   4.520  13.740
   61SAPC   C39 4814   6.656   4.730  13.711
   61SAPC   H9X 4815   6.759   4.751  13.675
   61SAPC   H9Y 4816   6.630   4.810  13.780
   61SAPC  C310 4817   6.555   4.722  13.593
   61SAPC  H10X 4818   6.454   4.721  13.632
   61SAPC  H10Y 4819   6.565   4.632  13.532
   61SAPC  C311 4820   6.573   4.831  13.490
   61SAPC  H11X 4821   6.679   4.811  13.464
   61SAPC  H11Y 4822   6.559   4.932  13.536
   61SAPC  C312 4823   6.508   4.817  13.352
   61SAPC  H12X 4824   6.400   4.836  13.359
   61SAPC  H12Y 4825   6.524   4.714  13.315
   61SAPC  C313 4826   6.568   4.906  13.244
   61SAPC  H13X 4827   6.525   4.885  13.143
   61SAPC  H13Y 4828   6.674   4.905  13.239
   61SAPC  C314 4829   6.543   5.046  13.277
   61SAPC  H14X 4830   6.569   5.091  13.374
   61SAPC  H14Y 4831   6.441   5.032  13.288
   61SAPC  C315 4832   6.573   5.141  13.175
   61SAPC  H15X 4833   6.549   5.111  13.068
   61SAPC  H15Y 4834   6.683   5.159  13.184
   61SAPC  C316 4835   6.506   5.266  13.217
   61SAPC  H16X 4836   6.537   5.329  13.304
   61SAPC  H16Y 4837   6.398   5.277  13.192
   61SAPC  C317 4838   6.577   5.320  13.110
   61SAPC  H17X 4839   6.554   5.407  13.135
   61SAPC  H17Y 4840   6.500   5.310  13.029
   61SAPC  C318 4841   6.699   5.410  13.129
   61SAPC  H18X 4842   6.736   5.470  13.212
   61SAPC  H18Y 4843   6.708   5.508  13.076
   61SAPC  H18Z 4844   6.741   5.377  13.041
   62SAPC     N 4845   0.826   2.751  14.840
   62SAPC   C12 4846   0.724   2.864  14.840
   62SAPC  H12A 4847   0.772   2.955  14.874
   62SAPC  H12B 4848   0.644   2.842  14.910
   62SAPC   C13 4849   0.892   2.747  14.974
   62SAPC  H13A 4850   0.953   2.837  14.985
   62SAPC  H13B 4851   0.819   2.743  15.055
   62SAPC  H13C 4852   0.959   2.662  14.981
   62SAPC   C14 4853   0.763   2.619  14.810
   62SAPC  H14A 4854   0.836   2.539  14.806
   62SAPC  H14B 4855   0.687   2.594  14.882
   62SAPC  H14C 4856   0.712   2.624  14.713
   62SAPC   C15 4857   0.935   2.776  14.739
   62SAPC  H15A 4858   0.894   2.813  14.645
   62SAPC  H15B 4859   1.008   2.849  14.773
   62SAPC  H15C 4860   0.988   2.686  14.714
   62SAPC   C11 4861   0.660   2.902  14.704
   62SAPC  H11A 4862   0.741   2.922  14.631
   62SAPC  H11B 4863   0.605   2.999  14.713
   62SAPC     P 4864   0.421   2.801  14.670
   62SAPC   O13 4865   0.374   2.662  14.664
   62SAPC   O14 4866   0.384   2.879  14.788
   62SAPC   O12 4867   0.578   2.796  14.654
   62SAPC   O11 4868   0.372   2.877  14.543
   62SAPC    C1 4869   0.345   2.792  14.435
   62SAPC    HA 4870   0.322   2.685  14.451
   62SAPC    HB 4871   0.238   2.804  14.422
   62SAPC    C2 4872   0.455   2.818  14.326
   62SAPC    HS 4873   0.412   2.786  14.228
   62SAPC   O21 4874   0.561   2.734  14.361
   62SAPC   C21 4875   0.538   2.607  14.354
   62SAPC   O22 4876   0.452   2.552  14.286
   62SAPC   C22 4877   0.641   2.537  14.439
   62SAPC   H2R 4878   0.695   2.609  14.503
   62SAPC   H2S 4879   0.589   2.461  14.498
   62SAPC    C3 4880   0.521   2.964  14.316
   62SAPC    HX 4881   0.550   2.999  14.416
   62SAPC    HY 4882   0.464   3.055  14.304
   62SAPC   O31 4883   0.620   2.981  14.213
   62SAPC   C31 4884   0.593   3.031  14.093
   62SAPC   O32 4885   0.489   3.054  14.039
   62SAPC   C32 4886   0.716   3.066  14.024
   62SAPC   H2X 4887   0.758   2.966  13.999
   62SAPC   H2Y 4888   0.778   3.119  14.099
   62SAPC   C23 4889   0.738   2.465  14.350
   62SAPC   H3R 4890   0.685   2.422  14.265
   62SAPC   H3S 4891   0.788   2.384  14.406
   62SAPC   C24 4892   0.839   2.558  14.293
   62SAPC   H4R 4893   0.903   2.500  14.229
   62SAPC   H4S 4894   0.903   2.596  14.376
   62SAPC   C25 4895   0.787   2.667  14.205
   62SAPC   H5R 4896   0.788   2.763  14.253
   62SAPC   C26 4897   0.757   2.669  14.077
   62SAPC   H6R 4898   0.765   2.761  14.019
   62SAPC   C27 4899   0.768   2.556  13.989
   62SAPC   H7R 4900   0.865   2.519  14.011
   62SAPC   H7S 4901   0.769   2.581  13.880
   62SAPC   C28 4902   0.653   2.467  14.021
   62SAPC   H8R 4903   0.669   2.369  14.063
   62SAPC   C29 4904   0.537   2.492  13.973
   62SAPC   H9R 4905   0.460   2.415  13.985
   62SAPC  C210 4906   0.518   2.610  13.886
   62SAPC  H10R 4907   0.505   2.587  13.779
   62SAPC  H10S 4908   0.587   2.698  13.897
   62SAPC  C211 4909   0.399   2.657  13.951
   62SAPC  H11R 4910   0.337   2.601  14.024
   62SAPC  C212 4911   0.348   2.762  13.901
   62SAPC  H12R 4912   0.247   2.743  13.912
   62SAPC  C213 4913   0.386   2.850  13.788
   62SAPC  H13R 4914   0.478   2.845  13.736
   62SAPC  H13S 4915   0.369   2.953  13.818
   62SAPC  C214 4916   0.298   2.789  13.693
   62SAPC  H14R 4917   0.201   2.843  13.702
   62SAPC  C215 4918   0.324   2.725  13.576
   62SAPC  H15R 4919   0.271   2.735  13.483
   62SAPC  C216 4920   0.423   2.683  13.490
   62SAPC  H16R 4921   0.367   2.592  13.451
   62SAPC  H16S 4922   0.482   2.687  13.580
   62SAPC  C217 4923   0.450   2.798  13.388
   62SAPC  H17R 4924   0.543   2.765  13.339
   62SAPC  H17S 4925   0.459   2.901  13.431
   62SAPC  C218 4926   0.367   2.819  13.264
   62SAPC  H18R 4927   0.290   2.897  13.269
   62SAPC  H18S 4928   0.325   2.724  13.229
   62SAPC  C219 4929   0.444   2.878  13.152
   62SAPC  H19R 4930   0.525   2.816  13.127
   62SAPC  H19S 4931   0.468   2.983  13.176
   62SAPC  C220 4932   0.381   2.840  13.026
   62SAPC  H20R 4933   0.335   2.926  12.991
   62SAPC  H20S 4934   0.298   2.780  13.056
   62SAPC  H20T 4935   0.410   2.847  12.924
   62SAPC   C33 4936   0.683   3.151  13.899
   62SAPC   H3X 4937   0.640   3.251  13.921
   62SAPC   H3Y 4938   0.617   3.099  13.825
   62SAPC   C34 4939   0.807   3.173  13.825
   62SAPC   H4X 4940   0.881   3.216  13.897
   62SAPC   H4Y 4941   0.802   3.247  13.743
   62SAPC   C35 4942   0.844   3.040  13.765
   62SAPC   H5X 4943   0.886   2.968  13.840
   62SAPC   H5Y 4944   0.905   3.071  13.677
   62SAPC   C36 4945   0.765   2.947  13.686
   62SAPC   H6X 4946   0.712   3.010  13.611
   62SAPC   H6Y 4947   0.700   2.898  13.761
   62SAPC   C37 4948   0.864   2.848  13.622
   62SAPC   H7X 4949   0.924   2.790  13.696
   62SAPC   H7Y 4950   0.939   2.895  13.553
   62SAPC   C38 4951   0.775   2.756  13.545
   62SAPC   H8X 4952   0.688   2.814  13.509
   62SAPC   H8Y 4953   0.737   2.680  13.618
   62SAPC   C39 4954   0.843   2.685  13.431
   62SAPC   H9X 4955   0.765   2.609  13.411
   62SAPC   H9Y 4956   0.934   2.635  13.467
   62SAPC  C310 4957   0.881   2.770  13.307
   62SAPC  H10X 4958   0.961   2.838  13.342
   62SAPC  H10Y 4959   0.791   2.823  13.274
   62SAPC  C311 4960   0.949   2.699  13.189
   62SAPC  H11X 4961   0.911   2.618  13.130
   62SAPC  H11Y 4962   1.023   2.641  13.238
   62SAPC  C312 4963   0.973   2.773  13.061
   62SAPC  H12X 4964   1.018   2.702  12.985
   62SAPC  H12Y 4965   1.031   2.861  13.079
   62SAPC  C313 4966   0.850   2.822  12.998
   62SAPC  H13X 4967   0.772   2.867  13.062
   62SAPC  H13Y 4968   0.816   2.738  12.943
   62SAPC  C314 4969   0.869   2.881  12.867
   62SAPC  H14X 4970   0.866   2.810  12.781
   62SAPC  H14Y 4971   0.971   2.919  12.874
   62SAPC  C315 4972   0.764   2.984  12.856
   62SAPC  H15X 4973   0.666   2.944  12.887
   62SAPC  H15Y 4974   0.728   3.010  12.757
   62SAPC  C316 4975   0.837   3.107  12.914
   62SAPC  H16X 4976   0.914   3.152  12.849
   62SAPC  H16Y 4977   0.866   3.087  13.019
   62SAPC  C317 4978   0.741   3.212  12.911
   62SAPC  H17X 4979   0.681   3.150  12.984
   62SAPC  H17Y 4980   0.714   3.209  12.803
   62SAPC  C318 4981   0.739   3.349  12.970
   62SAPC  H18X 4982   0.769   3.339  13.075
   62SAPC  H18Y 4983   0.636   3.394  12.970
   62SAPC  H18Z 4984   0.800   3.412  12.905
   63SAPC     N 4985   2.050   7.151  14.846
   63SAPC   C12 4986   2.041   7.054  14.730
   63SAPC  H12A 4987   2.099   7.097  14.648
   63SAPC  H12B 4988   1.937   7.048  14.700
   63SAPC   C13 4989   2.195   7.176  14.881
   63SAPC  H13A 4990   2.240   7.084  14.920
   63SAPC  H13B 4991   2.256   7.197  14.793
   63SAPC  H13C 4992   2.207   7.256  14.952
   63SAPC   C14 4993   1.986   7.278  14.797
   63SAPC  H14A 4994   2.023   7.311  14.700
   63SAPC  H14B 4995   1.878   7.269  14.794
   63SAPC  H14C 4996   2.005   7.361  14.862
   63SAPC   C15 4997   1.981   7.103  14.970
   63SAPC  H15A 4998   2.004   7.000  14.992
   63SAPC  H15B 4999   2.018   7.160  15.055
   63SAPC  H15C 5000   1.874   7.116  14.965
   63SAPC   C11 5001   2.096   6.910  14.737
   63SAPC  H11A 5002   2.067   6.862  14.641
   63SAPC  H11B 5003   2.046   6.851  14.817
   63SAPC     P 5004   2.344   6.936  14.642
   63SAPC   O13 5005   2.346   7.083  14.629
   63SAPC   O14 5006   2.467   6.861  14.675
   63SAPC   O12 5007   2.237   6.905  14.758
   63SAPC   O11 5008   2.275   6.880  14.511
   63SAPC    C1 5009   2.302   6.752  14.459
   63SAPC    HA 5010   2.411   6.734  14.451
   63SAPC    HB 5011   2.262   6.672  14.526
   63SAPC    C2 5012   2.238   6.742  14.317
   63SAPC    HS 5013   2.263   6.650  14.270
   63SAPC   O21 5014   2.267   6.854  14.231
   63SAPC   C21 5015   2.386   6.870  14.178
   63SAPC   O22 5016   2.485   6.802  14.182
   63SAPC   C22 5017   2.407   7.005  14.119
   63SAPC   H2R 5018   2.331   7.081  14.137
   63SAPC   H2S 5019   2.476   7.027  14.194
   63SAPC    C3 5020   2.085   6.723  14.319
   63SAPC    HX 5021   2.035   6.813  14.359
   63SAPC    HY 5022   2.063   6.637  14.387
   63SAPC   O31 5023   2.037   6.698  14.186
   63SAPC   C31 5024   2.058   6.575  14.142
   63SAPC   O32 5025   2.106   6.483  14.207
   63SAPC   C32 5026   2.026   6.570  13.995
   63SAPC   H2X 5027   1.984   6.664  13.958
   63SAPC   H2Y 5028   1.960   6.495  13.957
   63SAPC   C23 5029   2.480   6.996  13.984
   63SAPC   H3R 5030   2.569   6.929  13.989
   63SAPC   H3S 5031   2.521   7.093  13.947
   63SAPC   C24 5032   2.377   6.945  13.886
   63SAPC   H4R 5033   2.332   6.852  13.926
   63SAPC   H4S 5034   2.427   6.926  13.790
   63SAPC   C25 5035   2.270   7.047  13.868
   63SAPC   H5R 5036   2.311   7.143  13.836
   63SAPC   C26 5037   2.138   7.033  13.885
   63SAPC   H6R 5038   2.074   7.121  13.872
   63SAPC   C27 5039   2.064   6.908  13.926
   63SAPC   H7R 5040   2.069   6.899  14.036
   63SAPC   H7S 5041   2.113   6.817  13.885
   63SAPC   C28 5042   1.919   6.916  13.886
   63SAPC   H8R 5043   1.849   6.894  13.969
   63SAPC   C29 5044   1.865   6.924  13.762
   63SAPC   H9R 5045   1.755   6.929  13.755
   63SAPC  C210 5046   1.936   6.926  13.630
   63SAPC  H10R 5047   1.885   6.863  13.554
   63SAPC  H10S 5048   2.036   6.880  13.640
   63SAPC  C211 5049   1.944   7.064  13.574
   63SAPC  H11R 5050   1.909   7.146  13.639
   63SAPC  C212 5051   1.995   7.091  13.454
   63SAPC  H12R 5052   2.005   7.195  13.421
   63SAPC  C213 5053   2.052   6.991  13.358
   63SAPC  H13R 5054   2.032   7.027  13.254
   63SAPC  H13S 5055   2.005   6.890  13.365
   63SAPC  C214 5056   2.199   6.986  13.381
   63SAPC  H14R 5057   2.242   7.012  13.479
   63SAPC  C215 5058   2.282   6.955  13.284
   63SAPC  H15R 5059   2.390   6.949  13.305
   63SAPC  C216 5060   2.243   6.920  13.145
   63SAPC  H16R 5061   2.140   6.886  13.122
   63SAPC  H16S 5062   2.292   6.827  13.153
   63SAPC  C217 5063   2.307   7.003  13.035
   63SAPC  H17R 5064   2.268   6.970  12.938
   63SAPC  H17S 5065   2.417   6.985  13.032
   63SAPC  C218 5066   2.271   7.150  13.053
   63SAPC  H18R 5067   2.348   7.215  13.008
   63SAPC  H18S 5068   2.268   7.176  13.162
   63SAPC  C219 5069   2.130   7.178  12.999
   63SAPC  H19R 5070   2.106   7.284  13.026
   63SAPC  H19S 5071   2.057   7.110  13.045
   63SAPC  C220 5072   2.108   7.160  12.850
   63SAPC  H20R 5073   2.160   7.079  12.795
   63SAPC  H20S 5074   2.158   7.245  12.824
   63SAPC  H20T 5075   2.017   7.200  12.804
   63SAPC   C33 5076   2.141   6.511  13.924
   63SAPC   H3X 5077   2.174   6.419  13.979
   63SAPC   H3Y 5078   2.211   6.594  13.930
   63SAPC   C34 5079   2.107   6.464  13.786
   63SAPC   H4X 5080   2.055   6.369  13.794
   63SAPC   H4Y 5081   2.183   6.405  13.742
   63SAPC   C35 5082   2.062   6.575  13.690
   63SAPC   H5X 5083   2.136   6.655  13.676
   63SAPC   H5Y 5084   1.977   6.628  13.737
   63SAPC   C36 5085   2.014   6.519  13.556
   63SAPC   H6X 5086   1.943   6.589  13.507
   63SAPC   H6Y 5087   1.967   6.424  13.591
   63SAPC   C37 5088   2.098   6.467  13.449
   63SAPC   H7X 5089   2.055   6.440  13.356
   63SAPC   H7Y 5090   2.130   6.367  13.482
   63SAPC   C38 5091   2.198   6.560  13.397
   63SAPC   H8X 5092   2.231   6.622  13.483
   63SAPC   H8Y 5093   2.160   6.659  13.362
   63SAPC   C39 5094   2.296   6.449  13.310
   63SAPC   H9X 5095   2.353   6.369  13.356
   63SAPC   H9Y 5096   2.394   6.458  13.277
   63SAPC  C310 5097   2.256   6.384  13.181
   63SAPC  H10X 5098   2.233   6.487  13.213
   63SAPC  H10Y 5099   2.164   6.340  13.201
   63SAPC  C311 5100   2.319   6.370  13.026
   63SAPC  H11X 5101   2.413   6.314  13.011
   63SAPC  H11Y 5102   2.415   6.411  13.060
   63SAPC  C312 5103   2.250   6.435  12.870
   63SAPC  H12X 5104   2.156   6.386  12.863
   63SAPC  H12Y 5105   2.314   6.388  12.795
   63SAPC  C313 5106   2.187   6.591  12.807
   63SAPC  H13X 5107   2.163   6.689  12.862
   63SAPC  H13Y 5108   2.085   6.606  12.774
   63SAPC  C314 5109   2.278   6.689  12.779
   63SAPC  H14X 5110   2.302   6.611  12.703
   63SAPC  H14Y 5111   2.334   6.744  12.859
   63SAPC  C315 5112   2.285   6.801  12.717
   63SAPC  H15X 5113   2.272   6.899  12.769
   63SAPC  H15Y 5114   2.212   6.786  12.633
   63SAPC  C316 5115   2.445   6.757  12.714
   63SAPC  H16X 5116   2.408   6.832  12.666
   63SAPC  H16Y 5117   2.465   6.659  12.665
   63SAPC  C317 5118   2.576   6.810  12.752
   63SAPC  H17X 5119   2.623   6.709  12.760
   63SAPC  H17Y 5120   2.541   6.893  12.817
   63SAPC  C318 5121   2.689   6.855  12.677
   63SAPC  H18X 5122   2.791   6.873  12.697
   63SAPC  H18Y 5123   2.665   6.965  12.680
   63SAPC  H18Z 5124   2.743   6.797  12.601
   64SAPC     N 5125   1.092   0.924  14.744
   64SAPC   C12 5126   1.134   0.823  14.635
   64SAPC  H12A 5127   1.163   0.875  14.545
   64SAPC  H12B 5128   1.046   0.764  14.608
   64SAPC   C13 5129   1.204   0.971  14.832
   64SAPC  H13A 5130   1.233   0.891  14.900
   64SAPC  H13B 5131   1.293   0.997  14.775
   64SAPC  H13C 5132   1.171   1.055  14.891
   64SAPC   C14 5133   1.029   1.040  14.675
   64SAPC  H14A 5134   0.954   1.007  14.605
   64SAPC  H14B 5135   0.979   1.105  14.746
   64SAPC  H14C 5136   1.103   1.098  14.621
   64SAPC   C15 5137   0.988   0.862  14.833
   64SAPC  H15A 5138   0.955   0.927  14.913
   64SAPC  H15B 5139   0.901   0.837  14.775
   64SAPC  H15C 5140   1.027   0.770  14.876
   64SAPC   C11 5141   1.242   0.719  14.666
   64SAPC  H11A 5142   1.340   0.768  14.686
   64SAPC  H11B 5143   1.258   0.656  14.575
   64SAPC     P 5144   1.106   0.517  14.774
   64SAPC   O13 5145   1.140   0.431  14.890
   64SAPC   O14 5146   0.969   0.573  14.765
   64SAPC   O12 5147   1.205   0.641  14.779
   64SAPC   O11 5148   1.143   0.447  14.638
   64SAPC    C1 5149   1.149   0.304  14.635
   64SAPC    HA 5150   1.251   0.272  14.668
   64SAPC    HB 5151   1.072   0.254  14.699
   64SAPC    C2 5152   1.127   0.253  14.493
   64SAPC    HS 5153   1.133   0.142  14.495
   64SAPC   O21 5154   1.232   0.308  14.414
   64SAPC   C21 5155   1.243   0.254  14.298
   64SAPC   O22 5156   1.193   0.150  14.258
   64SAPC   C22 5157   1.342   0.341  14.225
   64SAPC   H2R 5158   1.336   0.449  14.252
   64SAPC   H2S 5159   1.426   0.301  14.281
   64SAPC    C3 5160   0.988   0.294  14.436
   64SAPC    HX 5161   0.913   0.269  14.515
   64SAPC    HY 5162   0.967   0.233  14.346
   64SAPC   O31 5163   0.985   0.435  14.407
   64SAPC   C31 5164   0.877   0.476  14.341
   64SAPC   O32 5165   0.792   0.405  14.291
   64SAPC   C32 5166   0.877   0.630  14.339
   64SAPC   H2X 5167   0.879   0.664  14.445
   64SAPC   H2Y 5168   0.782   0.663  14.294
   64SAPC   C23 5169   1.344   0.316  14.074
   64SAPC   H3R 5170   1.335   0.207  14.052
   64SAPC   H3S 5171   1.438   0.351  14.026
   64SAPC   C24 5172   1.242   0.398  13.999
   64SAPC   H4R 5173   1.259   0.370  13.892
   64SAPC   H4S 5174   1.267   0.505  14.014
   64SAPC   C25 5175   1.104   0.370  14.052
   64SAPC   H5R 5176   1.084   0.407  14.153
   64SAPC   C26 5177   1.003   0.309  13.992
   64SAPC   H6R 5178   0.910   0.288  14.045
   64SAPC   C27 5179   1.011   0.256  13.855
   64SAPC   H7R 5180   1.083   0.172  13.859
   64SAPC   H7S 5181   1.058   0.329  13.785
   64SAPC   C28 5182   0.885   0.197  13.805
   64SAPC   H8R 5183   0.797   0.171  13.866
   64SAPC   C29 5184   0.869   0.200  13.676
   64SAPC   H9R 5185   0.798   0.126  13.644
   64SAPC  C210 5186   0.961   0.258  13.575
   64SAPC  H10R 5187   1.060   0.231  13.600
   64SAPC  H10S 5188   0.958   0.369  13.575
   64SAPC  C211 5189   0.977   0.225  13.438
   64SAPC  H11R 5190   0.990   0.119  13.409
   64SAPC  C212 5191   0.914   0.296  13.352
   64SAPC  H12R 5192   0.902   0.212  13.285
   64SAPC  C213 5193   0.814   0.419  13.365
   64SAPC  H13R 5194   0.767   0.445  13.462
   64SAPC  H13S 5195   0.719   0.425  13.303
   64SAPC  C214 5196   0.882   0.530  13.311
   64SAPC  H14R 5197   0.910   0.590  13.395
   64SAPC  C215 5198   0.908   0.553  13.184
   64SAPC  H15R 5199   0.979   0.629  13.164
   64SAPC  C216 5200   0.873   0.472  13.067
   64SAPC  H16R 5201   0.767   0.464  13.093
   64SAPC  H16S 5202   0.923   0.374  13.042
   64SAPC  C217 5203   0.853   0.553  12.946
   64SAPC  H17R 5204   0.773   0.627  12.970
   64SAPC  H17S 5205   0.812   0.497  12.861
   64SAPC  C218 5206   0.992   0.595  12.916
   64SAPC  H18R 5207   1.060   0.507  12.902
   64SAPC  H18S 5208   1.015   0.676  12.987
   64SAPC  C219 5209   0.992   0.659  12.793
   64SAPC  H19R 5210   0.928   0.753  12.811
   64SAPC  H19S 5211   0.952   0.571  12.734
   64SAPC  C220 5212   1.098   0.700  12.708
   64SAPC  H20R 5213   1.088   0.661  12.605
   64SAPC  H20S 5214   1.196   0.687  12.752
   64SAPC  H20T 5215   1.066   0.805  12.699
   64SAPC   C33 5216   0.998   0.681  14.257
   64SAPC   H3X 5217   0.988   0.642  14.153
   64SAPC   H3Y 5218   1.092   0.637  14.298
   64SAPC   C34 5219   1.022   0.834  14.252
   64SAPC   H4X 5220   1.132   0.847  14.247
   64SAPC   H4Y 5221   0.985   0.883  14.344
   64SAPC   C35 5222   0.964   0.902  14.127
   64SAPC   H5X 5223   0.981   1.012  14.134
   64SAPC   H5Y 5224   0.854   0.885  14.125
   64SAPC   C36 5225   1.030   0.850  13.999
   64SAPC   H6X 5226   0.990   0.748  13.976
   64SAPC   H6Y 5227   1.139   0.836  14.013
   64SAPC   C37 5228   1.011   0.938  13.875
   64SAPC   H7X 5229   1.040   1.043  13.895
   64SAPC   H7Y 5230   0.904   0.938  13.844
   64SAPC   C38 5231   1.096   0.881  13.761
   64SAPC   H8X 5232   1.196   0.850  13.799
   64SAPC   H8Y 5233   1.116   0.962  13.687
   64SAPC   C39 5234   1.024   0.761  13.699
   64SAPC   H9X 5235   0.924   0.795  13.663
   64SAPC   H9Y 5236   1.003   0.687  13.780
   64SAPC  C310 5237   1.099   0.693  13.583
   64SAPC  H10X 5238   1.107   0.764  13.498
   64SAPC  H10Y 5239   1.040   0.604  13.552
   64SAPC  C311 5240   1.240   0.641  13.615
   64SAPC  H11X 5241   1.232   0.573  13.703
   64SAPC  H11Y 5242   1.305   0.726  13.647
   64SAPC  C312 5243   1.309   0.563  13.499
   64SAPC  H12X 5244   1.397   0.513  13.546
   64SAPC  H12Y 5245   1.349   0.631  13.422
   64SAPC  C313 5246   1.231   0.451  13.426
   64SAPC  H13X 5247   1.138   0.488  13.377
   64SAPC  H13Y 5248   1.201   0.375  13.501
   64SAPC  C314 5249   1.319   0.386  13.316
   64SAPC  H14X 5250   1.415   0.351  13.359
   64SAPC  H14Y 5251   1.343   0.461  13.238
   64SAPC  C315 5252   1.254   0.268  13.246
   64SAPC  H15X 5253   1.160   0.248  13.296
   64SAPC  H15Y 5254   1.314   0.175  13.261
   64SAPC  C316 5255   1.225   0.308  13.099
   64SAPC  H16X 5256   1.321   0.314  13.043
   64SAPC  H16Y 5257   1.159   0.396  13.099
   64SAPC  C317 5258   1.144   0.219  13.015
   64SAPC  H17X 5259   1.115   0.237  12.909
   64SAPC  H17Y 5260   1.047   0.204  13.070
   64SAPC  C318 5261   1.237   0.106  13.005
   64SAPC  H18X 5262   1.243   0.070  13.111
   64SAPC  H18Y 5263   1.337   0.091  12.969
   64SAPC  H18Z 5264   1.178   0.046  12.931
   65SAPC     N 5265   2.742   2.082  10.560
   65SAPC   C12 5266   2.629   1.981  10.571
   65SAPC  H12A 5267   2.673   1.882  10.570
   65SAPC  H12B 5268   2.565   1.990  10.484
   65SAPC   C13 5269   2.843   2.064  10.671
   65SAPC  H13A 5270   2.794   2.064  10.769
   65SAPC  H13B 5271   2.889   1.965  10.666
   65SAPC  H13C 5272   2.923   2.136  10.670
   65SAPC   C14 5273   2.809   2.064  10.427
   65SAPC  H14A 5274   2.876   1.978  10.426
   65SAPC  H14B 5275   2.734   2.043  10.351
   65SAPC  H14C 5276   2.858   2.153  10.394
   65SAPC   C15 5277   2.681   2.217  10.563
   65SAPC  H15A 5278   2.605   2.226  10.487
   65SAPC  H15B 5279   2.635   2.230  10.661
   65SAPC  H15C 5280   2.757   2.290  10.543
   65SAPC   C11 5281   2.532   1.990  10.691
   65SAPC  H11A 5282   2.457   1.908  10.674
   65SAPC  H11B 5283   2.477   2.087  10.691
   65SAPC     P 5284   2.499   1.960  10.940
   65SAPC   O13 5285   2.397   2.066  10.925
   65SAPC   O14 5286   2.457   1.819  10.951
   65SAPC   O12 5287   2.598   1.970  10.815
   65SAPC   O11 5288   2.600   2.001  11.051
   65SAPC    C1 5289   2.680   2.117  11.044
   65SAPC    HA 5290   2.753   2.112  10.960
   65SAPC    HB 5291   2.613   2.203  11.027
   65SAPC    C2 5292   2.769   2.136  11.172
   65SAPC    HS 5293   2.852   2.204  11.143
   65SAPC   O21 5294   2.827   2.011  11.217
   65SAPC   C21 5295   2.930   2.019  11.304
   65SAPC   O22 5296   2.986   2.121  11.339
   65SAPC   C22 5297   2.961   1.886  11.364
   65SAPC   H2R 5298   2.973   1.804  11.289
   65SAPC   H2S 5299   3.036   1.884  11.444
   65SAPC    C3 5300   2.687   2.203  11.287
   65SAPC    HX 5301   2.651   2.302  11.252
   65SAPC    HY 5302   2.755   2.221  11.373
   65SAPC   O31 5303   2.579   2.121  11.330
   65SAPC   C31 5304   2.454   2.163  11.301
   65SAPC   O32 5305   2.422   2.276  11.273
   65SAPC   C32 5306   2.355   2.060  11.318
   65SAPC   H2X 5307   2.320   2.015  11.220
   65SAPC   H2Y 5308   2.264   2.092  11.374
   65SAPC   C23 5309   2.845   1.856  11.447
   65SAPC   H3R 5310   2.858   1.746  11.463
   65SAPC   H3S 5311   2.753   1.885  11.387
   65SAPC   C24 5312   2.792   1.933  11.554
   65SAPC   H4R 5313   2.694   1.895  11.582
   65SAPC   H4S 5314   2.755   2.031  11.517
   65SAPC   C25 5315   2.877   1.907  11.670
   65SAPC   H5R 5316   2.882   1.803  11.708
   65SAPC   C26 5317   2.896   2.008  11.748
   65SAPC   H6R 5318   2.921   1.982  11.851
   65SAPC   C27 5319   2.834   2.140  11.707
   65SAPC   H7R 5320   2.722   2.145  11.704
   65SAPC   H7S 5321   2.867   2.163  11.603
   65SAPC   C28 5322   2.892   2.243  11.794
   65SAPC   H8R 5323   2.983   2.287  11.752
   65SAPC   C29 5324   2.841   2.293  11.906
   65SAPC   H9R 5325   2.899   2.368  11.958
   65SAPC  C210 5326   2.714   2.265  11.977
   65SAPC  H10R 5327   2.721   2.317  12.076
   65SAPC  H10S 5328   2.709   2.156  11.998
   65SAPC  C211 5329   2.599   2.329  11.902
   65SAPC  H11R 5330   2.601   2.438  11.900
   65SAPC  C212 5331   2.494   2.274  11.843
   65SAPC  H12R 5332   2.424   2.335  11.785
   65SAPC  C213 5333   2.462   2.132  11.837
   65SAPC  H13R 5334   2.551   2.075  11.866
   65SAPC  H13S 5335   2.437   2.107  11.731
   65SAPC  C214 5336   2.344   2.107  11.925
   65SAPC  H14R 5337   2.260   2.077  11.868
   65SAPC  C215 5338   2.313   2.117  12.054
   65SAPC  H15R 5339   2.219   2.075  12.092
   65SAPC  C216 5340   2.397   2.163  12.161
   65SAPC  H16R 5341   2.500   2.165  12.122
   65SAPC  H16S 5342   2.386   2.089  12.242
   65SAPC  C217 5343   2.350   2.299  12.209
   65SAPC  H17R 5344   2.247   2.297  12.250
   65SAPC  H17S 5345   2.345   2.369  12.122
   65SAPC  C218 5346   2.445   2.353  12.315
   65SAPC  H18R 5347   2.420   2.459  12.317
   65SAPC  H18S 5348   2.552   2.344  12.284
   65SAPC  C219 5349   2.430   2.296  12.458
   65SAPC  H19R 5350   2.478   2.368  12.528
   65SAPC  H19S 5351   2.489   2.202  12.465
   65SAPC  C220 5352   2.286   2.268  12.503
   65SAPC  H20R 5353   2.247   2.176  12.454
   65SAPC  H20S 5354   2.219   2.352  12.477
   65SAPC  H20T 5355   2.282   2.253  12.612
   65SAPC   C33 5356   2.430   1.960  11.391
   65SAPC   H3X 5357   2.468   1.969  11.496
   65SAPC   H3Y 5358   2.502   1.903  11.323
   65SAPC   C34 5359   2.313   1.890  11.398
   65SAPC   H4X 5360   2.383   1.799  11.405
   65SAPC   H4Y 5361   2.292   1.836  11.302
   65SAPC   C35 5362   2.183   1.914  11.524
   65SAPC   H5X 5363   2.106   1.983  11.523
   65SAPC   H5Y 5364   2.269   1.972  11.562
   65SAPC   C36 5365   2.097   1.772  11.636
   65SAPC   H6X 5366   2.038   1.707  11.590
   65SAPC   H6Y 5367   2.025   1.838  11.660
   65SAPC   C37 5368   2.177   1.630  11.732
   65SAPC   H7X 5369   2.240   1.552  11.676
   65SAPC   H7Y 5370   2.134   1.559  11.777
   65SAPC   C38 5371   2.273   1.630  11.861
   65SAPC   H8X 5372   2.221   1.612  11.952
   65SAPC   H8Y 5373   2.298   1.724  11.909
   65SAPC   C39 5374   2.411   1.605  11.849
   65SAPC   H9X 5375   2.448   1.607  11.752
   65SAPC   H9Y 5376   2.423   1.498  11.869
   65SAPC  C310 5377   2.490   1.691  11.949
   65SAPC  H10X 5378   2.543   1.625  12.015
   65SAPC  H10Y 5379   2.419   1.658  12.016
   65SAPC  C311 5380   2.551   1.840  11.936
   65SAPC  H11X 5381   2.466   1.899  11.960
   65SAPC  H11Y 5382   2.557   1.888  11.831
   65SAPC  C312 5383   2.673   1.872  12.035
   65SAPC  H12X 5384   2.741   1.953  12.011
   65SAPC  H12Y 5385   2.748   1.796  12.062
   65SAPC  C313 5386   2.615   1.874  12.173
   65SAPC  H13X 5387   2.602   1.762  12.188
   65SAPC  H13Y 5388   2.525   1.932  12.156
   65SAPC  C314 5389   2.661   1.934  12.307
   65SAPC  H14X 5390   2.691   1.851  12.362
   65SAPC  H14Y 5391   2.587   1.945  12.388
   65SAPC  C315 5392   2.740   2.061  12.305
   65SAPC  H15X 5393   2.659   2.132  12.276
   65SAPC  H15Y 5394   2.815   2.046  12.225
   65SAPC  C316 5395   2.802   2.102  12.440
   65SAPC  H16X 5396   2.827   2.014  12.501
   65SAPC  H16Y 5397   2.730   2.149  12.510
   65SAPC  C317 5398   2.928   2.187  12.428
   65SAPC  H17X 5399   2.897   2.287  12.392
   65SAPC  H17Y 5400   2.999   2.147  12.351
   65SAPC  C318 5401   3.002   2.191  12.562
   65SAPC  H18X 5402   2.933   2.223  12.643
   65SAPC  H18Y 5403   3.088   2.261  12.557
   65SAPC  H18Z 5404   3.040   2.091  12.590
   66SAPC     N 5405   5.530   3.577  10.782
   66SAPC   C12 5406   5.642   3.589  10.888
   66SAPC  H12A 5407   5.684   3.491  10.902
   66SAPC  H12B 5408   5.599   3.623  10.980
   66SAPC   C13 5409   5.474   3.715  10.750
   66SAPC  H13A 5410   5.552   3.786  10.723
   66SAPC  H13B 5411   5.404   3.713  10.666
   66SAPC  H13C 5412   5.418   3.757  10.833
   66SAPC   C14 5413   5.579   3.514  10.653
   66SAPC  H14A 5414   5.497   3.494  10.586
   66SAPC  H14B 5415   5.648   3.583  10.603
   66SAPC  H14C 5416   5.636   3.424  10.667
   66SAPC   C15 5417   5.422   3.491  10.836
   66SAPC  H15A 5418   5.337   3.489  10.768
   66SAPC  H15B 5419   5.455   3.389  10.849
   66SAPC  H15C 5420   5.385   3.526  10.932
   66SAPC   C11 5421   5.766   3.673  10.864
   66SAPC  H11A 5422   5.849   3.638  10.931
   66SAPC  H11B 5423   5.748   3.782  10.889
   66SAPC     P 5424   5.932   3.714  10.686
   66SAPC   O13 5425   6.042   3.698  10.783
   66SAPC   O14 5426   5.963   3.709  10.541
   66SAPC   O12 5427   5.802   3.646  10.730
   66SAPC   O11 5428   5.869   3.858  10.724
   66SAPC    C1 5429   5.967   3.956  10.722
   66SAPC    HA 5430   6.068   3.913  10.695
   66SAPC    HB 5431   5.941   3.986  10.620
   66SAPC    C2 5432   5.993   4.070  10.840
   66SAPC    HS 5433   6.095   4.116  10.837
   66SAPC   O21 5434   5.979   4.017  10.968
   66SAPC   C21 5435   6.081   3.942  11.008
   66SAPC   O22 5436   6.182   3.915  10.948
   66SAPC   C22 5437   6.038   3.901  11.147
   66SAPC   H2R 5438   6.005   3.994  11.197
   66SAPC   H2S 5439   5.950   3.837  11.130
   66SAPC    C3 5440   5.905   4.204  10.831
   66SAPC    HX 5441   5.884   4.253  10.737
   66SAPC    HY 5442   5.948   4.298  10.868
   66SAPC   O31 5443   5.773   4.181  10.858
   66SAPC   C31 5444   5.756   4.182  10.983
   66SAPC   O32 5445   5.833   4.218  11.070
   66SAPC   C32 5446   5.623   4.128  11.006
   66SAPC   H2X 5447   5.588   4.061  10.928
   66SAPC   H2Y 5448   5.553   4.200  10.980
   66SAPC   C23 5449   6.146   3.827  11.229
   66SAPC   H3R 5450   6.243   3.880  11.212
   66SAPC   H3S 5451   6.159   3.724  11.191
   66SAPC   C24 5452   6.112   3.821  11.379
   66SAPC   H4R 5453   6.185   3.761  11.435
   66SAPC   H4S 5454   6.008   3.786  11.396
   66SAPC   C25 5455   6.126   3.961  11.417
   66SAPC   H5R 5456   6.035   4.018  11.399
   66SAPC   C26 5457   6.229   4.014  11.481
   66SAPC   H6R 5458   6.239   4.120  11.466
   66SAPC   C27 5459   6.356   3.960  11.536
   66SAPC   H7R 5460   6.430   4.044  11.540
   66SAPC   H7S 5461   6.393   3.894  11.456
   66SAPC   C28 5462   6.348   3.877  11.664
   66SAPC   H8R 5463   6.359   3.775  11.643
   66SAPC   C29 5464   6.313   3.895  11.792
   66SAPC   H9R 5465   6.338   3.830  11.876
   66SAPC  C210 5466   6.270   4.017  11.849
   66SAPC  H10R 5467   6.262   4.072  11.759
   66SAPC  H10S 5468   6.360   4.038  11.905
   66SAPC  C211 5469   6.153   4.075  11.913
   66SAPC  H11R 5470   6.110   4.161  11.862
   66SAPC  C212 5471   6.133   4.068  12.040
   66SAPC  H12R 5472   6.043   4.120  12.077
   66SAPC  C213 5473   6.229   3.999  12.130
   66SAPC  H13R 5474   6.337   3.980  12.103
   66SAPC  H13S 5475   6.183   3.908  12.170
   66SAPC  C214 5476   6.218   4.113  12.218
   66SAPC  H14R 5477   6.278   4.206  12.196
   66SAPC  C215 5478   6.189   4.088  12.341
   66SAPC  H15R 5479   6.235   4.178  12.384
   66SAPC  C216 5480   6.162   3.956  12.424
   66SAPC  H16R 5481   6.262   3.904  12.443
   66SAPC  H16S 5482   6.120   3.873  12.367
   66SAPC  C217 5483   6.073   3.981  12.559
   66SAPC  H17R 5484   5.973   4.014  12.536
   66SAPC  H17S 5485   6.100   4.072  12.619
   66SAPC  C218 5486   6.074   3.877  12.676
   66SAPC  H18R 5487   6.175   3.857  12.706
   66SAPC  H18S 5488   6.058   3.775  12.641
   66SAPC  C219 5489   6.027   3.921  12.817
   66SAPC  H19R 5490   6.088   4.002  12.867
   66SAPC  H19S 5491   6.029   3.835  12.890
   66SAPC  C220 5492   5.888   3.962  12.806
   66SAPC  H20R 5493   5.853   3.984  12.907
   66SAPC  H20S 5494   5.839   3.874  12.759
   66SAPC  H20T 5495   5.885   4.051  12.740
   66SAPC   C33 5496   5.607   4.103  11.155
   66SAPC   H3X 5497   5.499   4.099  11.177
   66SAPC   H3Y 5498   5.653   4.179  11.224
   66SAPC   C34 5499   5.676   3.977  11.171
   66SAPC   H4X 5500   5.785   3.998  11.155
   66SAPC   H4Y 5501   5.633   3.916  11.089
   66SAPC   C35 5502   5.656   3.922  11.307
   66SAPC   H5X 5503   5.549   3.923  11.338
   66SAPC   H5Y 5504   5.713   3.988  11.377
   66SAPC   C36 5505   5.710   3.781  11.296
   66SAPC   H6X 5506   5.813   3.789  11.254
   66SAPC   H6Y 5507   5.649   3.721  11.226
   66SAPC   C37 5508   5.719   3.714  11.430
   66SAPC   H7X 5509   5.617   3.711  11.474
   66SAPC   H7Y 5510   5.786   3.778  11.492
   66SAPC   C38 5511   5.771   3.571  11.419
   66SAPC   H8X 5512   5.867   3.572  11.362
   66SAPC   H8Y 5513   5.698   3.512  11.360
   66SAPC   C39 5514   5.793   3.505  11.558
   66SAPC   H9X 5515   5.854   3.414  11.543
   66SAPC   H9Y 5516   5.695   3.473  11.599
   66SAPC  C310 5517   5.854   3.603  11.660
   66SAPC  H10X 5518   5.781   3.683  11.681
   66SAPC  H10Y 5519   5.940   3.655  11.613
   66SAPC  C311 5520   5.889   3.548  11.800
   66SAPC  H11X 5521   5.960   3.463  11.803
   66SAPC  H11Y 5522   5.802   3.498  11.845
   66SAPC  C312 5523   5.940   3.668  11.884
   66SAPC  H12X 5524   5.859   3.743  11.888
   66SAPC  H12Y 5525   6.027   3.719  11.835
   66SAPC  C313 5526   5.984   3.631  12.026
   66SAPC  H13X 5527   6.075   3.691  12.050
   66SAPC  H13Y 5528   6.009   3.522  12.023
   66SAPC  C314 5529   5.888   3.658  12.142
   66SAPC  H14X 5530   5.927   3.604  12.231
   66SAPC  H14Y 5531   5.789   3.618  12.117
   66SAPC  C315 5532   5.874   3.806  12.184
   66SAPC  H15X 5533   5.823   3.862  12.103
   66SAPC  H15Y 5534   5.974   3.853  12.198
   66SAPC  C316 5535   5.798   3.814  12.318
   66SAPC  H16X 5536   5.861   3.763  12.394
   66SAPC  H16Y 5537   5.702   3.758  12.311
   66SAPC  C317 5538   5.768   3.957  12.364
   66SAPC  H17X 5539   5.713   4.005  12.280
   66SAPC  H17Y 5540   5.864   4.010  12.374
   66SAPC  C318 5541   5.687   3.967  12.494
   66SAPC  H18X 5542   5.579   3.945  12.477
   66SAPC  H18Y 5543   5.693   4.069  12.539
   66SAPC  H18Z 5544   5.726   3.896  12.570
   67SAPC     N 5545   1.844   2.117  10.546
   67SAPC   C12 5546   1.773   2.077  10.675
   67SAPC  H12A 5547   1.840   2.018  10.738
   67SAPC  H12B 5548   1.691   2.013  10.645
   67SAPC   C13 5549   1.854   1.993  10.467
   67SAPC  H13A 5550   1.903   2.011  10.373
   67SAPC  H13B 5551   1.909   1.919  10.524
   67SAPC  H13C 5552   1.755   1.951  10.452
   67SAPC   C14 5553   1.764   2.215  10.468
   67SAPC  H14A 5554   1.827   2.260  10.392
   67SAPC  H14B 5555   1.681   2.162  10.425
   67SAPC  H14C 5556   1.730   2.295  10.534
   67SAPC   C15 5557   1.981   2.172  10.570
   67SAPC  H15A 5558   2.039   2.177  10.479
   67SAPC  H15B 5559   1.977   2.271  10.615
   67SAPC  H15C 5560   2.035   2.109  10.640
   67SAPC   C11 5561   1.710   2.185  10.764
   67SAPC  H11A 5562   1.668   2.133  10.854
   67SAPC  H11B 5563   1.624   2.227  10.707
   67SAPC     P 5564   1.865   2.296  10.942
   67SAPC   O13 5565   1.893   2.162  10.993
   67SAPC   O14 5566   1.972   2.399  10.943
   67SAPC   O12 5567   1.803   2.288  10.795
   67SAPC   O11 5568   1.739   2.337  11.032
   67SAPC    C1 5569   1.666   2.451  11.001
   67SAPC    HA 5570   1.742   2.530  11.012
   67SAPC    HB 5571   1.634   2.448  10.892
   67SAPC    C2 5572   1.539   2.487  11.092
   67SAPC    HS 5573   1.479   2.574  11.061
   67SAPC   O21 5574   1.568   2.507  11.231
   67SAPC   C21 5575   1.485   2.577  11.309
   67SAPC   O22 5576   1.379   2.627  11.281
   67SAPC   C22 5577   1.550   2.587  11.443
   67SAPC   H2R 5578   1.541   2.484  11.479
   67SAPC   H2S 5579   1.657   2.600  11.432
   67SAPC    C3 5580   1.439   2.386  11.077
   67SAPC    HX 5581   1.443   2.369  10.966
   67SAPC    HY 5582   1.342   2.429  11.115
   67SAPC   O31 5583   1.485   2.278  11.151
   67SAPC   C31 5584   1.428   2.171  11.114
   67SAPC   O32 5585   1.332   2.162  11.040
   67SAPC   C32 5586   1.516   2.059  11.163
   67SAPC   H2X 5587   1.585   2.035  11.078
   67SAPC   H2Y 5588   1.447   1.976  11.182
   67SAPC   C23 5589   1.484   2.688  11.538
   67SAPC   H3R 5590   1.379   2.655  11.549
   67SAPC   H3S 5591   1.485   2.793  11.499
   67SAPC   C24 5592   1.555   2.698  11.674
   67SAPC   H4R 5593   1.506   2.778  11.733
   67SAPC   H4S 5594   1.657   2.733  11.653
   67SAPC   C25 5595   1.579   2.574  11.755
   67SAPC   H5R 5596   1.636   2.494  11.707
   67SAPC   C26 5597   1.526   2.551  11.875
   67SAPC   H6R 5598   1.535   2.451  11.920
   67SAPC   C27 5599   1.431   2.638  11.952
   67SAPC   H7R 5600   1.442   2.747  11.939
   67SAPC   H7S 5601   1.422   2.612  12.060
   67SAPC   C28 5602   1.301   2.608  11.894
   67SAPC   H8R 5603   1.258   2.672  11.817
   67SAPC   C29 5604   1.255   2.487  11.895
   67SAPC   H9R 5605   1.159   2.483  11.941
   67SAPC  C210 5606   1.306   2.364  11.943
   67SAPC  H10R 5607   1.397   2.330  11.897
   67SAPC  H10S 5608   1.244   2.299  11.876
   67SAPC  C211 5609   1.290   2.362  12.096
   67SAPC  H11R 5610   1.222   2.437  12.146
   67SAPC  C212 5611   1.300   2.242  12.155
   67SAPC  H12R 5612   1.272   2.227  12.260
   67SAPC  C213 5613   1.328   2.119  12.073
   67SAPC  H13R 5614   1.290   2.120  11.969
   67SAPC  H13S 5615   1.284   2.030  12.122
   67SAPC  C214 5616   1.477   2.121  12.072
   67SAPC  H14R 5617   1.522   2.182  11.991
   67SAPC  C215 5618   1.554   2.067  12.166
   67SAPC  H15R 5619   1.662   2.084  12.158
   67SAPC  C216 5620   1.504   1.993  12.289
   67SAPC  H16R 5621   1.529   1.885  12.274
   67SAPC  H16S 5622   1.395   2.001  12.305
   67SAPC  C217 5623   1.574   2.031  12.420
   67SAPC  H17R 5624   1.665   2.082  12.385
   67SAPC  H17S 5625   1.602   1.938  12.476
   67SAPC  C218 5626   1.501   2.119  12.522
   67SAPC  H18R 5627   1.473   2.217  12.478
   67SAPC  H18S 5628   1.570   2.143  12.606
   67SAPC  C219 5629   1.385   2.046  12.587
   67SAPC  H19R 5630   1.422   1.965  12.653
   67SAPC  H19S 5631   1.320   2.003  12.509
   67SAPC  C220 5632   1.300   2.142  12.663
   67SAPC  H20R 5633   1.215   2.087  12.709
   67SAPC  H20S 5634   1.255   2.214  12.593
   67SAPC  H20T 5635   1.357   2.200  12.740
   67SAPC   C33 5636   1.593   2.099  11.293
   67SAPC   H3X 5637   1.524   2.162  11.354
   67SAPC   H3Y 5638   1.686   2.157  11.271
   67SAPC   C34 5639   1.620   1.979  11.382
   67SAPC   H4X 5640   1.692   1.911  11.329
   67SAPC   H4Y 5641   1.517   1.939  11.390
   67SAPC   C35 5642   1.654   1.998  11.529
   67SAPC   H5X 5643   1.662   1.900  11.582
   67SAPC   H5Y 5644   1.572   2.057  11.577
   67SAPC   C36 5645   1.786   2.071  11.541
   67SAPC   H6X 5646   1.778   2.159  11.474
   67SAPC   H6Y 5647   1.865   2.003  11.500
   67SAPC   C37 5648   1.822   2.118  11.682
   67SAPC   H7X 5649   1.825   2.030  11.749
   67SAPC   H7Y 5650   1.742   2.187  11.719
   67SAPC   C38 5651   1.954   2.196  11.680
   67SAPC   H8X 5652   1.938   2.291  11.623
   67SAPC   H8Y 5653   2.030   2.137  11.624
   67SAPC   C39 5654   2.010   2.242  11.816
   67SAPC   H9X 5655   2.098   2.308  11.807
   67SAPC   H9Y 5656   2.061   2.168  11.870
   67SAPC  C310 5657   1.909   2.274  11.925
   67SAPC  H10X 5658   1.843   2.186  11.943
   67SAPC  H10Y 5659   1.849   2.357  11.885
   67SAPC  C311 5660   1.978   2.310  12.057
   67SAPC  H11X 5661   2.038   2.402  12.040
   67SAPC  H11Y 5662   2.046   2.229  12.091
   67SAPC  C312 5663   1.880   2.336  12.172
   67SAPC  H12X 5664   1.937   2.363  12.264
   67SAPC  H12Y 5665   1.826   2.241  12.193
   67SAPC  C313 5666   1.788   2.455  12.140
   67SAPC  H13X 5667   1.744   2.439  12.039
   67SAPC  H13Y 5668   1.854   2.544  12.136
   67SAPC  C314 5669   1.670   2.480  12.235
   67SAPC  H14X 5670   1.596   2.398  12.225
   67SAPC  H14Y 5671   1.619   2.574  12.200
   67SAPC  C315 5672   1.703   2.501  12.383
   67SAPC  H15X 5673   1.786   2.575  12.394
   67SAPC  H15Y 5674   1.731   2.406  12.431
   67SAPC  C316 5675   1.583   2.556  12.459
   67SAPC  H16X 5676   1.497   2.487  12.464
   67SAPC  H16Y 5677   1.544   2.633  12.392
   67SAPC  C317 5678   1.624   2.606  12.598
   67SAPC  H17X 5679   1.676   2.704  12.592
   67SAPC  H17Y 5680   1.700   2.534  12.637
   67SAPC  C318 5681   1.509   2.618  12.697
   67SAPC  H18X 5682   1.429   2.686  12.661
   67SAPC  H18Y 5683   1.543   2.653  12.797
   67SAPC  H18Z 5684   1.468   2.516  12.707
   68SAPC     N 5685   4.564   0.835  10.834
   68SAPC   C12 5686   4.482   0.951  10.791
   68SAPC  H12A 5687   4.551   1.036  10.789
   68SAPC  H12B 5688   4.409   0.979  10.870
   68SAPC   C13 5689   4.608   0.856  10.976
   68SAPC  H13A 5690   4.667   0.773  11.014
   68SAPC  H13B 5691   4.666   0.947  10.985
   68SAPC  H13C 5692   4.521   0.868  11.041
   68SAPC   C14 5693   4.484   0.708  10.820
   68SAPC  H14A 5694   4.450   0.693  10.717
   68SAPC  H14B 5695   4.538   0.621  10.852
   68SAPC  H14C 5696   4.389   0.711  10.875
   68SAPC   C15 5697   4.685   0.832  10.747
   68SAPC  H15A 5698   4.750   0.916  10.769
   68SAPC  H15B 5699   4.742   0.742  10.763
   68SAPC  H15C 5700   4.654   0.834  10.642
   68SAPC   C11 5701   4.411   0.962  10.657
   68SAPC  H11A 5702   4.483   0.952  10.574
   68SAPC  H11B 5703   4.372   1.067  10.646
   68SAPC     P 5704   4.155   0.904  10.662
   68SAPC   O13 5705   4.110   0.983  10.546
   68SAPC   O14 5706   4.071   0.794  10.713
   68SAPC   O12 5707   4.308   0.864  10.649
   68SAPC   O11 5708   4.158   0.999  10.777
   68SAPC    C1 5709   4.047   1.072  10.826
   68SAPC    HA 5710   4.024   1.163  10.762
   68SAPC    HB 5711   3.959   1.010  10.845
   68SAPC    C2 5712   4.087   1.129  10.958
   68SAPC    HS 5713   4.017   1.213  10.971
   68SAPC   O21 5714   4.234   1.135  10.957
   68SAPC   C21 5715   4.304   1.183  10.843
   68SAPC   O22 5716   4.252   1.252  10.756
   68SAPC   C22 5717   4.457   1.206  10.896
   68SAPC   H2R 5718   4.517   1.127  10.899
   68SAPC   H2S 5719   4.501   1.288  10.835
   68SAPC    C3 5720   4.036   1.060  11.085
   68SAPC    HX 5721   3.925   1.070  11.076
   68SAPC    HY 5722   4.064   1.110  11.181
   68SAPC   O31 5723   4.069   0.925  11.079
   68SAPC   C31 5724   4.191   0.894  11.113
   68SAPC   O32 5725   4.276   0.964  11.165
   68SAPC   C32 5726   4.200   0.746  11.078
   68SAPC   H2X 5727   4.235   0.742  10.973
   68SAPC   H2Y 5728   4.097   0.704  11.080
   68SAPC   C23 5729   4.501   1.204  11.053
   68SAPC   H3R 5730   4.437   1.159  11.135
   68SAPC   H3S 5731   4.479   1.295  11.022
   68SAPC   C24 5732   4.623   1.281  11.105
   68SAPC   H4R 5733   4.631   1.312  11.202
   68SAPC   H4S 5734   4.674   1.362  11.058
   68SAPC   C25 5735   4.684   1.159  11.109
   68SAPC   H5R 5736   4.696   1.134  11.004
   68SAPC   C26 5737   4.724   1.099  11.220
   68SAPC   H6R 5738   4.783   1.014  11.200
   68SAPC   C27 5739   4.717   1.141  11.365
   68SAPC   H7R 5740   4.725   1.244  11.387
   68SAPC   H7S 5741   4.812   1.113  11.413
   68SAPC   C28 5742   4.595   1.095  11.437
   68SAPC   H8R 5743   4.506   1.072  11.375
   68SAPC   C29 5744   4.584   1.103  11.569
   68SAPC   H9R 5745   4.497   1.060  11.621
   68SAPC  C210 5746   4.694   1.159  11.654
   68SAPC  H10R 5747   4.664   1.240  11.721
   68SAPC  H10S 5748   4.785   1.193  11.598
   68SAPC  C211 5749   4.739   1.085  11.765
   68SAPC  H11R 5750   4.837   1.052  11.721
   68SAPC  C212 5751   4.662   1.015  11.854
   68SAPC  H12R 5752   4.704   0.953  11.930
   68SAPC  C213 5753   4.525   0.978  11.884
   68SAPC  H13R 5754   4.496   0.922  11.796
   68SAPC  H13S 5755   4.499   1.084  11.894
   68SAPC  C214 5756   4.497   0.881  12.000
   68SAPC  H14R 5757   4.561   0.791  12.013
   68SAPC  C215 5758   4.432   0.924  12.108
   68SAPC  H15R 5759   4.446   0.872  12.204
   68SAPC  C216 5760   4.383   1.065  12.118
   68SAPC  H16R 5761   4.288   1.058  12.172
   68SAPC  H16S 5762   4.359   1.102  12.016
   68SAPC  C217 5763   4.461   1.179  12.185
   68SAPC  H17R 5764   4.403   1.271  12.158
   68SAPC  H17S 5765   4.563   1.193  12.143
   68SAPC  C218 5766   4.463   1.165  12.337
   68SAPC  H18R 5767   4.530   1.079  12.362
   68SAPC  H18S 5768   4.363   1.144  12.380
   68SAPC  C219 5769   4.517   1.293  12.397
   68SAPC  H19R 5770   4.462   1.379  12.351
   68SAPC  H19S 5771   4.623   1.293  12.362
   68SAPC  C220 5772   4.513   1.315  12.547
   68SAPC  H20R 5773   4.591   1.388  12.578
   68SAPC  H20S 5774   4.528   1.220  12.602
   68SAPC  H20T 5775   4.414   1.359  12.574
   68SAPC   C33 5776   4.291   0.662  11.169
   68SAPC   H3X 5777   4.388   0.715  11.183
   68SAPC   H3Y 5778   4.309   0.568  11.111
   68SAPC   C34 5779   4.228   0.622  11.305
   68SAPC   H4X 5780   4.271   0.524  11.338
   68SAPC   H4Y 5781   4.120   0.603  11.290
   68SAPC   C35 5782   4.250   0.726  11.418
   68SAPC   H5X 5783   4.183   0.813  11.397
   68SAPC   H5Y 5784   4.355   0.762  11.415
   68SAPC   C36 5785   4.223   0.676  11.561
   68SAPC   H6X 5786   4.272   0.577  11.577
   68SAPC   H6Y 5787   4.113   0.660  11.573
   68SAPC   C37 5788   4.273   0.771  11.673
   68SAPC   H7X 5789   4.263   0.875  11.637
   68SAPC   H7Y 5790   4.380   0.752  11.697
   68SAPC   C38 5791   4.189   0.766  11.802
   68SAPC   H8X 5792   4.082   0.770  11.768
   68SAPC   H8Y 5793   4.205   0.849  11.872
   68SAPC   C39 5794   4.215   0.651  11.896
   68SAPC   H9X 5795   4.315   0.618  11.924
   68SAPC   H9Y 5796   4.209   0.575  11.811
   68SAPC  C310 5797   4.105   0.658  12.018
   68SAPC  H10X 5798   4.088   0.567  12.077
   68SAPC  H10Y 5799   3.995   0.667  11.990
   68SAPC  C311 5800   4.116   0.737  12.131
   68SAPC  H11X 5801   4.089   0.829  12.073
   68SAPC  H11Y 5802   4.222   0.709  12.148
   68SAPC  C312 5803   4.012   0.683  12.231
   68SAPC  H12X 5804   4.024   0.574  12.258
   68SAPC  H12Y 5805   3.906   0.689  12.194
   68SAPC  C313 5806   4.033   0.761  12.356
   68SAPC  H13X 5807   4.143   0.758  12.379
   68SAPC  H13Y 5808   3.975   0.708  12.434
   68SAPC  C314 5809   3.985   0.904  12.338
   68SAPC  H14X 5810   3.878   0.904  12.308
   68SAPC  H14Y 5811   4.041   0.954  12.255
   68SAPC  C315 5812   4.008   0.986  12.464
   68SAPC  H15X 5813   3.992   1.093  12.438
   68SAPC  H15Y 5814   4.112   0.972  12.500
   68SAPC  C316 5815   3.913   0.954  12.578
   68SAPC  H16X 5816   3.922   0.849  12.614
   68SAPC  H16Y 5817   3.813   0.971  12.533
   68SAPC  C317 5818   3.907   1.053  12.692
   68SAPC  H17X 5819   3.864   0.998  12.779
   68SAPC  H17Y 5820   3.834   1.132  12.663
   68SAPC  C318 5821   4.041   1.116  12.731
   68SAPC  H18X 5822   4.110   1.036  12.765
   68SAPC  H18Y 5823   4.025   1.189  12.814
   68SAPC  H18Z 5824   4.090   1.170  12.648
   69SAPC     N 5825   3.828   6.805  10.845
   69SAPC   C12 5826   3.910   6.679  10.819
   69SAPC  H12A 5827   3.858   6.615  10.747
   69SAPC  H12B 5828   3.911   6.622  10.911
   69SAPC   C13 5829   3.713   6.776  10.936
   69SAPC  H13A 5830   3.649   6.694  10.901
   69SAPC  H13B 5831   3.748   6.753  11.036
   69SAPC  H13C 5832   3.653   6.864  10.943
   69SAPC   C14 5833   3.915   6.905  10.918
   69SAPC  H14A 5834   4.003   6.935  10.858
   69SAPC  H14B 5835   3.862   6.995  10.943
   69SAPC  H14C 5836   3.957   6.863  11.009
   69SAPC   C15 5837   3.779   6.861  10.714
   69SAPC  H15A 5838   3.858   6.856  10.638
   69SAPC  H15B 5839   3.695   6.803  10.675
   69SAPC  H15C 5840   3.749   6.964  10.724
   69SAPC   C11 5841   4.057   6.696  10.773
   69SAPC  H11A 5842   4.102   6.596  10.751
   69SAPC  H11B 5843   4.116   6.738  10.858
   69SAPC     P 5844   4.165   6.898  10.637
   69SAPC   O13 5845   4.295   6.853  10.582
   69SAPC   O14 5846   4.090   7.000  10.559
   69SAPC   O12 5847   4.067   6.775  10.655
   69SAPC   O11 5848   4.188   6.946  10.787
   69SAPC    C1 5849   4.316   6.997  10.829
   69SAPC    HA 5850   4.390   6.914  10.840
   69SAPC    HB 5851   4.358   7.065  10.753
   69SAPC    C2 5852   4.304   7.078  10.962
   69SAPC    HS 5853   4.402   7.126  10.986
   69SAPC   O21 5854   4.259   6.999  11.072
   69SAPC   C21 5855   4.340   6.910  11.122
   69SAPC   O22 5856   4.451   6.880  11.084
   69SAPC   C22 5857   4.262   6.844  11.239
   69SAPC   H2R 5858   4.161   6.890  11.240
   69SAPC   H2S 5859   4.251   6.736  11.216
   69SAPC    C3 5860   4.203   7.194  10.945
   69SAPC    HX 5861   4.105   7.153  10.912
   69SAPC    HY 5862   4.238   7.259  10.864
   69SAPC   O31 5863   4.197   7.274  11.064
   69SAPC   C31 5864   4.092   7.257  11.142
   69SAPC   O32 5865   3.996   7.184  11.122
   69SAPC   C32 5866   4.117   7.330  11.276
   69SAPC   H2X 5867   4.020   7.357  11.321
   69SAPC   H2Y 5868   4.173   7.423  11.255
   69SAPC   C23 5869   4.320   6.866  11.381
   69SAPC   H3R 5870   4.295   6.970  11.412
   69SAPC   H3S 5871   4.430   6.853  11.377
   69SAPC   C24 5872   4.260   6.773  11.488
   69SAPC   H4R 5873   4.300   6.798  11.589
   69SAPC   H4S 5874   4.296   6.670  11.465
   69SAPC   C25 5875   4.109   6.777  11.483
   69SAPC   H5R 5876   4.067   6.768  11.383
   69SAPC   C26 5877   4.023   6.791  11.585
   69SAPC   H6R 5878   3.915   6.781  11.566
   69SAPC   C27 5879   4.054   6.807  11.729
   69SAPC   H7R 5880   3.992   6.889  11.770
   69SAPC   H7S 5881   4.159   6.843  11.743
   69SAPC   C28 5882   4.027   6.671  11.793
   69SAPC   H8R 5883   4.105   6.596  11.767
   69SAPC   C29 5884   3.936   6.644  11.892
   69SAPC   H9R 5885   3.951   6.547  11.945
   69SAPC  C210 5886   3.839   6.745  11.963
   69SAPC  H10R 5887   3.743   6.715  11.923
   69SAPC  H10S 5888   3.868   6.843  11.921
   69SAPC  C211 5889   3.806   6.794  12.106
   69SAPC  H11R 5890   3.787   6.704  12.169
   69SAPC  C212 5891   3.860   6.902  12.181
   69SAPC  H12R 5892   3.862   6.894  12.292
   69SAPC  C213 5893   3.970   7.004  12.149
   69SAPC  H13R 5894   4.017   7.007  12.048
   69SAPC  H13S 5895   4.063   7.005  12.216
   69SAPC  C214 5896   3.896   7.123  12.140
   69SAPC  H14R 5897   3.789   7.116  12.153
   69SAPC  C215 5898   3.951   7.232  12.099
   69SAPC  H15R 5899   3.873   7.308  12.095
   69SAPC  C216 5900   4.094   7.258  12.055
   69SAPC  H16R 5901   4.085   7.331  11.971
   69SAPC  H16S 5902   4.155   7.173  12.019
   69SAPC  C217 5903   4.189   7.316  12.162
   69SAPC  H17R 5904   4.142   7.404  12.192
   69SAPC  H17S 5905   4.282   7.353  12.119
   69SAPC  C218 5906   4.209   7.244  12.297
   69SAPC  H18R 5907   4.257   7.149  12.272
   69SAPC  H18S 5908   4.108   7.223  12.342
   69SAPC  C219 5909   4.297   7.325  12.396
   69SAPC  H19R 5910   4.274   7.433  12.409
   69SAPC  H19S 5911   4.398   7.331  12.352
   69SAPC  C220 5912   4.306   7.266  12.537
   69SAPC  H20R 5913   4.211   7.269  12.594
   69SAPC  H20S 5914   4.383   7.323  12.594
   69SAPC  H20T 5915   4.337   7.161  12.525
   69SAPC   C33 5916   4.193   7.234  11.371
   69SAPC   H3X 5917   4.287   7.202  11.319
   69SAPC   H3Y 5918   4.132   7.143  11.389
   69SAPC   C34 5919   4.232   7.294  11.507
   69SAPC   H4X 5920   4.143   7.341  11.555
   69SAPC   H4Y 5921   4.310   7.372  11.491
   69SAPC   C35 5922   4.290   7.191  11.605
   69SAPC   H5X 5923   4.229   7.098  11.608
   69SAPC   H5Y 5924   4.279   7.241  11.704
   69SAPC   C36 5925   4.436   7.153  11.570
   69SAPC   H6X 5926   4.478   7.229  11.502
   69SAPC   H6Y 5927   4.438   7.054  11.521
   69SAPC   C37 5928   4.533   7.129  11.685
   69SAPC   H7X 5929   4.598   7.218  11.690
   69SAPC   H7Y 5930   4.614   7.056  11.662
   69SAPC   C38 5931   4.452   7.086  11.808
   69SAPC   H8X 5932   4.359   7.135  11.836
   69SAPC   H8Y 5933   4.495   7.104  11.906
   69SAPC   C39 5934   4.446   6.943  11.822
   69SAPC   H9X 5935   4.548   6.904  11.806
   69SAPC   H9Y 5936   4.374   6.907  11.747
   69SAPC  C310 5937   4.409   6.917  11.965
   69SAPC  H10X 5938   4.304   6.947  11.971
   69SAPC  H10Y 5939   4.466   6.963  12.048
   69SAPC  C311 5940   4.437   6.778  11.990
   69SAPC  H11X 5941   4.490   6.743  11.901
   69SAPC  H11Y 5942   4.351   6.742  11.930
   69SAPC  C312 5943   4.472   6.756  12.156
   69SAPC  H12X 5944   4.570   6.788  12.187
   69SAPC  H12Y 5945   4.481   6.657  12.181
   69SAPC  C313 5946   4.373   6.759  12.293
   69SAPC  H13X 5947   4.268   6.758  12.280
   69SAPC  H13Y 5948   4.303   6.843  12.292
   69SAPC  C314 5949   4.337   6.623  12.381
   69SAPC  H14X 5950   4.415   6.646  12.446
   69SAPC  H14Y 5951   4.353   6.518  12.354
   69SAPC  C315 5952   4.191   6.605  12.428
   69SAPC  H15X 5953   4.129   6.548  12.349
   69SAPC  H15Y 5954   4.145   6.700  12.461
   69SAPC  C316 5955   4.128   6.533  12.533
   69SAPC  H16X 5956   4.162   6.531  12.640
   69SAPC  H16Y 5957   4.142   6.437  12.488
   69SAPC  C317 5958   3.985   6.549  12.528
   69SAPC  H17X 5959   3.995   6.466  12.584
   69SAPC  H17Y 5960   3.939   6.503  12.441
   69SAPC  C318 5961   3.910   6.650  12.609
   69SAPC  H18X 5962   3.975   6.703  12.680
   69SAPC  H18Y 5963   3.829   6.609  12.671
   69SAPC  H18Z 5964   3.862   6.713  12.534
   70SAPC     N 5965   6.928   4.146  10.809
   70SAPC   C12 5966   7.042   4.138  10.909
   70SAPC  H12A 5967   7.023   4.057  10.978
   70SAPC  H12B 5968   7.047   4.230  10.962
   70SAPC   C13 5969   6.962   4.246  10.700
   70SAPC  H13A 5970   7.051   4.214  10.643
   70SAPC  H13B 5971   6.880   4.255  10.630
   70SAPC  H13C 5972   6.985   4.342  10.742
   70SAPC   C14 5973   6.898   4.013  10.745
   70SAPC  H14A 5974   6.848   4.026  10.650
   70SAPC  H14B 5975   6.992   3.959  10.725
   70SAPC  H14C 5976   6.840   3.947  10.808
   70SAPC   C15 5977   6.806   4.186  10.882
   70SAPC  H15A 5978   6.783   4.112  10.958
   70SAPC  H15B 5979   6.819   4.283  10.928
   70SAPC  H15C 5980   6.720   4.193  10.816
   70SAPC   C11 5981   7.182   4.112  10.857
   70SAPC  H11A 5982   7.250   4.080  10.939
   70SAPC  H11B 5983   7.225   4.202  10.806
   70SAPC     P 5984   7.273   3.984  10.660
   70SAPC   O13 5985   7.252   3.853  10.597
   70SAPC   O14 5986   7.277   4.102  10.570
   70SAPC   O12 5987   7.166   4.006  10.768
   70SAPC   O11 5988   7.403   3.993  10.751
   70SAPC    C1 5989   7.486   3.899  10.815
   70SAPC    HA 5990   7.552   3.842  10.751
   70SAPC    HB 5991   7.570   3.952  10.854
   70SAPC    C2 5992   7.425   3.787  10.896
   70SAPC    HS 5993   7.379   3.713  10.826
   70SAPC   O21 5994   7.331   3.838  10.991
   70SAPC   C21 5995   7.204   3.800  10.980
   70SAPC   O22 5996   7.145   3.762  10.882
   70SAPC   C22 5997   7.134   3.817  11.111
   70SAPC   H2R 5998   7.191   3.782  11.199
   70SAPC   H2S 5999   7.102   3.921  11.115
   70SAPC    C3 6000   7.536   3.704  10.968
   70SAPC    HX 6001   7.593   3.636  10.901
   70SAPC    HY 6002   7.484   3.621  10.998
   70SAPC   O31 6003   7.630   3.768  11.063
   70SAPC   C31 6004   7.574   3.817  11.170
   70SAPC   O32 6005   7.467   3.805  11.208
   70SAPC   C32 6006   7.620   3.916  11.268
   70SAPC   H2X 6007   7.634   3.969  11.187
   70SAPC   H2Y 6008   7.716   3.891  11.262
   70SAPC   C23 6009   7.006   3.745  11.123
   70SAPC   H3R 6010   7.034   3.639  11.111
   70SAPC   H3S 6011   6.936   3.776  11.045
   70SAPC   C24 6012   6.948   3.748  11.262
   70SAPC   H4R 6013   7.020   3.685  11.318
   70SAPC   H4S 6014   6.847   3.708  11.267
   70SAPC   C25 6015   6.929   3.877  11.325
   70SAPC   H5R 6016   6.894   3.957  11.261
   70SAPC   C26 6017   6.959   3.900  11.452
   70SAPC   H6R 6018   6.971   4.008  11.471
   70SAPC   C27 6019   7.031   3.810  11.550
   70SAPC   H7R 6020   7.121   3.785  11.508
   70SAPC   H7S 6021   7.001   3.703  11.540
   70SAPC   C28 6022   7.006   3.858  11.697
   70SAPC   H8R 6023   6.999   3.972  11.700
   70SAPC   C29 6024   7.067   3.826  11.818
   70SAPC   H9R 6025   7.078   3.884  11.900
   70SAPC  C210 6026   7.136   3.688  11.843
   70SAPC  H10R 6027   7.091   3.645  11.762
   70SAPC  H10S 6028   7.101   3.625  11.901
   70SAPC  C211 6029   7.292   3.734  11.816
   70SAPC  H11R 6030   7.326   3.739  11.715
   70SAPC  C212 6031   7.408   3.721  11.894
   70SAPC  H12R 6032   7.507   3.722  11.877
   70SAPC  C213 6033   7.428   3.763  12.040
   70SAPC  H13R 6034   7.363   3.738  12.095
   70SAPC  H13S 6035   7.456   3.847  12.010
   70SAPC  C214 6036   7.514   3.627  12.078
   70SAPC  H14R 6037   7.606   3.700  12.040
   70SAPC  C215 6038   7.554   3.551  12.220
   70SAPC  H15R 6039   7.618   3.473  12.232
   70SAPC  C216 6040   7.448   3.489  12.317
   70SAPC  H16R 6041   7.455   3.387  12.334
   70SAPC  H16S 6042   7.402   3.512  12.243
   70SAPC  C217 6043   7.513   3.569  12.458
   70SAPC  H17R 6044   7.612   3.541  12.488
   70SAPC  H17S 6045   7.456   3.533  12.542
   70SAPC  C218 6046   7.495   3.716  12.489
   70SAPC  H18R 6047   7.396   3.732  12.454
   70SAPC  H18S 6048   7.542   3.778  12.427
   70SAPC  C219 6049   7.500   3.813  12.612
   70SAPC  H19R 6050   7.591   3.792  12.660
   70SAPC  H19S 6051   7.406   3.781  12.659
   70SAPC  C220 6052   7.524   3.970  12.608
   70SAPC  H20R 6053   7.587   4.005  12.521
   70SAPC  H20S 6054   7.491   4.034  12.691
   70SAPC  H20T 6055   7.463   4.031  12.547
   70SAPC   C33 6056   7.537   3.988  11.399
   70SAPC   H3X 6057   7.491   3.938  11.473
   70SAPC   H3Y 6058   7.444   3.942  11.373
   70SAPC   C34 6059   7.526   4.144  11.454
   70SAPC   H4X 6060   7.572   4.188  11.370
   70SAPC   H4Y 6061   7.616   4.145  11.510
   70SAPC   C35 6062   7.400   4.250  11.512
   70SAPC   H5X 6063   7.341   4.214  11.448
   70SAPC   H5Y 6064   7.342   4.355  11.505
   70SAPC   C36 6065   7.432   4.249  11.641
   70SAPC   H6X 6066   7.536   4.244  11.666
   70SAPC   H6Y 6067   7.452   4.153  11.632
   70SAPC   C37 6068   7.323   4.291  11.724
   70SAPC   H7X 6069   7.220   4.319  11.714
   70SAPC   H7Y 6070   7.249   4.241  11.663
   70SAPC   C38 6071   7.363   4.296  11.872
   70SAPC   H8X 6072   7.281   4.359  11.891
   70SAPC   H8Y 6073   7.465   4.324  11.888
   70SAPC   C39 6074   7.358   4.201  11.990
   70SAPC   H9X 6075   7.449   4.136  12.009
   70SAPC   H9Y 6076   7.261   4.160  11.967
   70SAPC  C310 6077   7.353   4.208  12.123
   70SAPC  H10X 6078   7.279   4.272  12.153
   70SAPC  H10Y 6079   7.447   4.227  12.162
   70SAPC  C311 6080   7.335   4.108  12.189
   70SAPC  H11X 6081   7.344   4.150  12.294
   70SAPC  H11Y 6082   7.435   4.054  12.165
   70SAPC  C312 6083   7.201   4.047  12.163
   70SAPC  H12X 6084   7.179   3.959  12.223
   70SAPC  H12Y 6085   7.205   4.002  12.063
   70SAPC  C313 6086   7.103   4.154  12.194
   70SAPC  H13X 6087   7.103   4.207  12.095
   70SAPC  H13Y 6088   7.143   4.224  12.274
   70SAPC  C314 6089   6.971   4.097  12.228
   70SAPC  H14X 6090   6.969   3.994  12.187
   70SAPC  H14Y 6091   6.902   4.161  12.168
   70SAPC  C315 6092   6.926   4.109  12.376
   70SAPC  H15X 6093   6.825   4.068  12.382
   70SAPC  H15Y 6094   6.935   4.216  12.404
   70SAPC  C316 6095   7.005   4.038  12.484
   70SAPC  H16X 6096   7.088   4.111  12.465
   70SAPC  H16Y 6097   7.023   3.932  12.456
   70SAPC  C317 6098   6.978   4.046  12.642
   70SAPC  H17X 6099   6.885   3.990  12.649
   70SAPC  H17Y 6100   6.976   4.156  12.652
   70SAPC  C318 6101   7.068   3.994  12.765
   70SAPC  H18X 6102   7.042   3.989  12.870
   70SAPC  H18Y 6103   7.154   4.066  12.773
   70SAPC  H18Z 6104   7.104   3.890  12.744
   71SAPC     N 6105   6.578   1.657  10.610
   71SAPC   C12 6106   6.579   1.602  10.753
   71SAPC  H12A 6107   6.551   1.683  10.821
   71SAPC  H12B 6108   6.680   1.574  10.778
   71SAPC   C13 6109   6.694   1.751  10.601
   71SAPC  H13A 6110   6.783   1.700  10.635
   71SAPC  H13B 6111   6.713   1.788  10.500
   71SAPC  H13C 6112   6.679   1.839  10.664
   71SAPC   C14 6113   6.595   1.544  10.512
   71SAPC  H14A 6114   6.697   1.508  10.514
   71SAPC  H14B 6115   6.528   1.461  10.537
   71SAPC  H14C 6116   6.572   1.573  10.410
   71SAPC   C15 6117   6.449   1.729  10.580
   71SAPC  H15A 6118   6.366   1.658  10.583
   71SAPC  H15B 6119   6.425   1.804  10.656
   71SAPC  H15C 6120   6.449   1.782  10.485
   71SAPC   C11 6121   6.494   1.479  10.794
   71SAPC  H11A 6122   6.510   1.459  10.903
   71SAPC  H11B 6123   6.526   1.388  10.742
   71SAPC     P 6124   6.255   1.528  10.870
   71SAPC   O13 6125   6.314   1.635  10.953
   71SAPC   O14 6126   6.129   1.559  10.801
   71SAPC   O12 6127   6.360   1.496  10.760
   71SAPC   O11 6128   6.248   1.395  10.957
   71SAPC    C1 6129   6.192   1.280  10.893
   71SAPC    HA 6130   6.094   1.300  10.843
   71SAPC    HB 6131   6.263   1.244  10.815
   71SAPC    C2 6132   6.169   1.162  10.993
   71SAPC    HS 6133   6.104   1.088  10.941
   71SAPC   O21 6134   6.114   1.184  11.127
   71SAPC   C21 6135   5.973   1.204  11.114
   71SAPC   O22 6136   5.927   1.202  11.007
   71SAPC   C22 6137   5.878   1.278  11.236
   71SAPC   H2R 6138   5.843   1.209  11.312
   71SAPC   H2S 6139   5.970   1.217  11.275
   71SAPC    C3 6140   6.301   1.091  11.012
   71SAPC    HX 6141   6.323   1.036  10.917
   71SAPC    HY 6142   6.273   1.020  11.094
   71SAPC   O31 6143   6.416   1.171  11.047
   71SAPC   C31 6144   6.423   1.202  11.176
   71SAPC   O32 6145   6.347   1.166  11.264
   71SAPC   C32 6146   6.550   1.278  11.202
   71SAPC   H2X 6147   6.532   1.379  11.160
   71SAPC   H2Y 6148   6.635   1.232  11.148
   71SAPC   C23 6149   5.865   1.491  11.282
   71SAPC   H3R 6150   5.816   1.531  11.368
   71SAPC   H3S 6151   5.800   1.463  11.208
   71SAPC   C24 6152   6.031   1.610  11.343
   71SAPC   H4R 6153   5.979   1.690  11.378
   71SAPC   H4S 6154   6.118   1.638  11.272
   71SAPC   C25 6155   6.193   1.595  11.372
   71SAPC   H5R 6156   6.272   1.551  11.298
   71SAPC   C26 6157   6.226   1.576  11.497
   71SAPC   H6R 6158   6.319   1.521  11.513
   71SAPC   C27 6159   6.126   1.568  11.606
   71SAPC   H7R 6160   6.090   1.475  11.589
   71SAPC   H7S 6161   6.020   1.609  11.596
   71SAPC   C28 6162   6.183   1.518  11.733
   71SAPC   H8R 6163   6.170   1.603  11.797
   71SAPC   C29 6164   6.215   1.395  11.787
   71SAPC   H9R 6165   6.265   1.396  11.883
   71SAPC  C210 6166   6.208   1.249  11.744
   71SAPC  H10R 6167   6.132   1.204  11.675
   71SAPC  H10S 6168   6.183   1.185  11.832
   71SAPC  C211 6169   6.303   1.223  11.638
   71SAPC  H11R 6170   6.321   1.295  11.560
   71SAPC  C212 6171   6.340   1.102  11.628
   71SAPC  H12R 6172   6.408   1.073  11.547
   71SAPC  C213 6173   6.288   1.001  11.722
   71SAPC  H13R 6174   6.261   0.910  11.673
   71SAPC  H13S 6175   6.211   1.010  11.809
   71SAPC  C214 6176   6.369   0.971  11.839
   71SAPC  H14R 6177   6.413   0.863  11.844
   71SAPC  C215 6178   6.457   1.053  11.890
   71SAPC  H15R 6179   6.519   1.001  11.905
   71SAPC  C216 6180   6.470   1.194  11.919
   71SAPC  H16R 6181   6.475   1.243  11.820
   71SAPC  H16S 6182   6.582   1.187  11.941
   71SAPC  C217 6183   6.379   1.200  12.037
   71SAPC  H17R 6184   6.284   1.139  12.032
   71SAPC  H17S 6185   6.357   1.305  12.028
   71SAPC  C218 6186   6.413   1.184  12.189
   71SAPC  H18R 6187   6.507   1.232  12.218
   71SAPC  H18S 6188   6.414   1.078  12.208
   71SAPC  C219 6189   6.297   1.219  12.286
   71SAPC  H19R 6190   6.206   1.177  12.237
   71SAPC  H19S 6191   6.295   1.328  12.292
   71SAPC  C220 6192   6.292   1.166  12.430
   71SAPC  H20R 6193   6.362   1.223  12.491
   71SAPC  H20S 6194   6.309   1.056  12.438
   71SAPC  H20T 6195   6.200   1.191  12.484
   71SAPC   C33 6196   6.576   1.284  11.355
   71SAPC   H3X 6197   6.564   1.189  11.410
   71SAPC   H3Y 6198   6.504   1.359  11.397
   71SAPC   C34 6199   6.719   1.324  11.382
   71SAPC   H4X 6200   6.712   1.434  11.369
   71SAPC   H4Y 6201   6.786   1.273  11.311
   71SAPC   C35 6202   6.794   1.291  11.504
   71SAPC   H5X 6203   6.893   1.346  11.508
   71SAPC   H5Y 6204   6.818   1.184  11.509
   71SAPC   C36 6205   6.703   1.330  11.611
   71SAPC   H6X 6206   6.781   1.315  11.692
   71SAPC   H6Y 6207   6.622   1.270  11.646
   71SAPC   C37 6208   6.615   1.466  11.593
   71SAPC   H7X 6209   6.596   1.507  11.497
   71SAPC   H7Y 6210   6.720   1.527  11.580
   71SAPC   C38 6211   6.479   1.537  11.724
   71SAPC   H8X 6212   6.484   1.491  11.819
   71SAPC   H8Y 6213   6.502   1.436  11.759
   71SAPC   C39 6214   6.510   1.760  11.805
   71SAPC   H9X 6215   6.611   1.819  11.754
   71SAPC   H9Y 6216   6.623   1.813  11.829
   71SAPC  C310 6217   6.434   1.788  11.900
   71SAPC  H10X 6218   6.346   1.761  11.841
   71SAPC  H10Y 6219   6.462   1.897  11.890
   71SAPC  C311 6220   6.463   1.678  12.007
   71SAPC  H11X 6221   6.559   1.723  12.032
   71SAPC  H11Y 6222   6.504   1.578  12.007
   71SAPC  C312 6223   6.365   1.664  12.119
   71SAPC  H12X 6224   6.302   1.753  12.096
   71SAPC  H12Y 6225   6.411   1.657  12.223
   71SAPC  C313 6226   6.281   1.552  12.143
   71SAPC  H13X 6227   6.350   1.481  12.196
   71SAPC  H13Y 6228   6.264   1.540  12.034
   71SAPC  C314 6229   6.167   1.612  12.226
   71SAPC  H14X 6230   6.088   1.538  12.219
   71SAPC  H14Y 6231   6.135   1.708  12.177
   71SAPC  C315 6232   6.192   1.654  12.372
   71SAPC  H15X 6233   6.131   1.744  12.401
   71SAPC  H15Y 6234   6.296   1.685  12.384
   71SAPC  C316 6235   6.221   1.554  12.479
   71SAPC  H16X 6236   6.316   1.499  12.455
   71SAPC  H16Y 6237   6.134   1.487  12.475
   71SAPC  C317 6238   6.247   1.635  12.608
   71SAPC  H17X 6239   6.171   1.715  12.619
   71SAPC  H17Y 6240   6.348   1.681  12.607
   71SAPC  C318 6241   6.240   1.550  12.728
   71SAPC  H18X 6242   6.230   1.598  12.825
   71SAPC  H18Y 6243   6.339   1.501  12.735
   71SAPC  H18Z 6244   6.157   1.477  12.711
   72SAPC     N 6245   5.742   0.609  10.621
   72SAPC   C12 6246   5.889   0.623  10.659
   72SAPC  H12A 6247   5.903   0.708  10.724
   72SAPC  H12B 6248   5.948   0.643  10.569
   72SAPC   C13 6249   5.721   0.478  10.551
   72SAPC  H13A 6250   5.708   0.397  10.622
   72SAPC  H13B 6251   5.638   0.485  10.483
   72SAPC  H13C 6252   5.812   0.454  10.496
   72SAPC   C14 6253   5.651   0.623  10.741
   72SAPC  H14A 6254   5.696   0.573  10.827
   72SAPC  H14B 6255   5.639   0.727  10.767
   72SAPC  H14C 6256   5.552   0.583  10.725
   72SAPC   C15 6257   5.708   0.716  10.525
   72SAPC  H15A 6258   5.771   0.801  10.542
   72SAPC  H15B 6259   5.718   0.680  10.423
   72SAPC  H15C 6260   5.604   0.744  10.539
   72SAPC   C11 6261   5.959   0.504  10.728
   72SAPC  H11A 6262   6.061   0.531  10.762
   72SAPC  H11B 6263   5.974   0.428  10.651
   72SAPC     P 6264   5.913   0.303  10.886
   72SAPC   O13 6265   5.891   0.298  11.032
   72SAPC   O14 6266   5.839   0.208  10.800
   72SAPC   O12 6267   5.882   0.450  10.834
   72SAPC   O11 6268   6.066   0.287  10.845
   72SAPC    C1 6269   6.158   0.193  10.898
   72SAPC    HA 6270   6.112   0.099  10.935
   72SAPC    HB 6271   6.229   0.167  10.816
   72SAPC    C2 6272   6.252   0.256  11.001
   72SAPC    HS 6273   6.342   0.188  11.007
   72SAPC   O21 6274   6.191   0.269  11.125
   72SAPC   C21 6275   6.226   0.173  11.199
   72SAPC   O22 6276   6.246   0.057  11.164
   72SAPC   C22 6277   6.218   0.226  11.335
   72SAPC   H2R 6278   6.269   0.176  11.422
   72SAPC   H2S 6279   6.169   0.326  11.346
   72SAPC    C3 6280   6.303   0.397  10.968
   72SAPC    HX 6281   6.333   0.384  10.863
   72SAPC    HY 6282   6.390   0.418  11.033
   72SAPC   O31 6283   6.203   0.502  10.973
   72SAPC   C31 6284   6.169   0.555  11.091
   72SAPC   O32 6285   6.233   0.544  11.194
   72SAPC   C32 6286   6.042   0.641  11.074
   72SAPC   H2X 6287   5.963   0.575  11.032
   72SAPC   H2Y 6288   6.064   0.719  10.999
   72SAPC   C23 6289   6.097   0.161  11.358
   72SAPC   H3R 6290   6.138   0.049  11.366
   72SAPC   H3S 6291   6.018   0.164  11.278
   72SAPC   C24 6292   6.045   0.245  11.483
   72SAPC   H4R 6293   6.118   0.249  11.568
   72SAPC   H4S 6294   6.073   0.133  11.506
   72SAPC   C25 6295   5.888   0.322  11.506
   72SAPC   H5R 6296   5.857   0.381  11.423
   72SAPC   C26 6297   5.756   0.299  11.567
   72SAPC   H6R 6298   5.664   0.336  11.516
   72SAPC   C27 6299   5.678   0.193  11.648
   72SAPC   H7R 6300   5.694   0.080  11.645
   72SAPC   H7S 6301   5.585   0.168  11.604
   72SAPC   C28 6302   5.637   0.268  11.769
   72SAPC   H8R 6303   5.569   0.345  11.741
   72SAPC   C29 6304   5.637   0.246  11.897
   72SAPC   H9R 6305   5.550   0.274  11.956
   72SAPC  C210 6306   5.683   0.131  11.964
   72SAPC  H10R 6307   5.760   0.114  11.907
   72SAPC  H10S 6308   5.642   0.028  11.978
   72SAPC  C211 6309   5.742   0.193  12.071
   72SAPC  H11R 6310   5.846   0.228  12.065
   72SAPC  C212 6311   5.698   0.146  12.178
   72SAPC  H12R 6312   5.778   0.177  12.241
   72SAPC  C213 6313   5.593   0.041  12.217
   72SAPC  H13R 6314   5.520   0.057  12.139
   72SAPC  H13S 6315   5.529   0.120  12.263
   72SAPC  C214 6316   5.607  -0.100  12.304
   72SAPC  H14R 6317   5.597  -0.190  12.242
   72SAPC  C215 6318   5.610  -0.134  12.444
   72SAPC  H15R 6319   5.566  -0.222  12.500
   72SAPC  C216 6320   5.595  -0.042  12.561
   72SAPC  H16R 6321   5.502  -0.028  12.608
   72SAPC  H16S 6322   5.538   0.036  12.520
   72SAPC  C217 6323   5.705   0.018  12.636
   72SAPC  H17R 6324   5.705   0.116  12.694
   72SAPC  H17S 6325   5.736   0.125  12.638
   72SAPC  C218 6326   5.772  -0.066  12.689
   72SAPC  H18R 6327   5.777  -0.141  12.609
   72SAPC  H18S 6328   5.731  -0.080  12.795
   72SAPC  C219 6329   5.885   0.021  12.664
   72SAPC  H19R 6330   5.915  -0.071  12.700
   72SAPC  H19S 6331   5.846   0.077  12.756
   72SAPC  C220 6332   5.941   0.138  12.561
   72SAPC  H20R 6333   5.896   0.242  12.582
   72SAPC  H20S 6334   6.037   0.105  12.532
   72SAPC  H20T 6335   6.009   0.220  12.588
   72SAPC   C33 6336   5.988   0.708  11.203
   72SAPC   H3X 6337   5.927   0.797  11.175
   72SAPC   H3Y 6338   6.072   0.746  11.265
   72SAPC   C34 6339   5.899   0.614  11.287
   72SAPC   H4X 6340   5.965   0.538  11.334
   72SAPC   H4Y 6341   5.827   0.560  11.222
   72SAPC   C35 6342   5.820   0.687  11.398
   72SAPC   H5X 6343   5.765   0.613  11.460
   72SAPC   H5Y 6344   5.742   0.750  11.351
   72SAPC   C36 6345   5.910   0.776  11.486
   72SAPC   H6X 6346   5.848   0.835  11.557
   72SAPC   H6Y 6347   5.963   0.850  11.423
   72SAPC   C37 6348   6.018   0.700  11.566
   72SAPC   H7X 6349   6.079   0.775  11.621
   72SAPC   H7Y 6350   6.086   0.645  11.498
   72SAPC   C38 6351   5.965   0.598  11.667
   72SAPC   H8X 6352   6.051   0.543  11.711
   72SAPC   H8Y 6353   5.906   0.524  11.615
   72SAPC   C39 6354   5.877   0.653  11.778
   72SAPC   H9X 6355   5.776   0.678  11.740
   72SAPC   H9Y 6356   5.924   0.747  11.814
   72SAPC  C310 6357   5.870   0.548  11.890
   72SAPC  H10X 6358   5.869   0.446  11.844
   72SAPC  H10Y 6359   5.778   0.560  11.950
   72SAPC  C311 6360   5.990   0.561  11.985
   72SAPC  H11X 6361   5.980   0.658  12.039
   72SAPC  H11Y 6362   6.085   0.563  11.926
   72SAPC  C312 6363   6.005   0.447  12.086
   72SAPC  H12X 6364   6.050   0.362  12.030
   72SAPC  H12Y 6365   5.907   0.415  12.127
   72SAPC  C313 6366   6.096   0.497  12.200
   72SAPC  H13X 6367   6.040   0.563  12.269
   72SAPC  H13Y 6368   6.174   0.559  12.150
   72SAPC  C314 6369   6.171   0.391  12.278
   72SAPC  H14X 6370   6.217   0.316  12.210
   72SAPC  H14Y 6371   6.108   0.338  12.353
   72SAPC  C315 6372   6.293   0.450  12.348
   72SAPC  H15X 6373   6.260   0.530  12.419
   72SAPC  H15Y 6374   6.356   0.505  12.275
   72SAPC  C316 6375   6.378   0.329  12.399
   72SAPC  H16X 6376   6.452   0.355  12.470
   72SAPC  H16Y 6377   6.431   0.268  12.329
   72SAPC  C317 6378   6.323   0.241  12.502
   72SAPC  H17X 6379   6.243   0.174  12.473
   72SAPC  H17Y 6380   6.262   0.329  12.519
   72SAPC  C318 6381   6.413   0.189  12.623
   72SAPC  H18X 6382   6.498   0.130  12.589
   72SAPC  H18Y 6383   6.357   0.123  12.692
   72SAPC  H18Z 6384   6.451   0.257  12.702
   73SLPC     N 6385   4.762   3.953  14.609
   73SLPC   C13 6386   4.655   4.032  14.672
   73SLPC  H13A 6387   4.598   4.085  14.595
   73SLPC  H13B 6388   4.580   3.968  14.718
   73SLPC  H13C 6389   4.698   4.099  14.743
   73SLPC   C14 6390   4.818   3.850  14.703
   73SLPC  H14A 6391   4.743   3.781  14.742
   73SLPC  H14B 6392   4.891   3.787  14.652
   73SLPC  H14C 6393   4.864   3.900  14.787
   73SLPC   C15 6394   4.867   4.028  14.538
   73SLPC  H15A 6395   4.924   3.956  14.478
   73SLPC  H15B 6396   4.819   4.096  14.467
   73SLPC  H15C 6397   4.928   4.077  14.610
   73SLPC   C12 6398   4.703   3.887  14.497
   73SLPC  H12A 6399   4.618   3.836  14.543
   73SLPC  H12B 6400   4.771   3.806  14.468
   73SLPC   C11 6401   4.639   3.937  14.366
   73SLPC  H11A 6402   4.617   3.850  14.298
   73SLPC  H11B 6403   4.707   4.000  14.307
   73SLPC     P 6404   4.434   4.100  14.322
   73SLPC   O13 6405   4.368   4.062  14.200
   73SLPC   O14 6406   4.346   4.168  14.418
   73SLPC   O12 6407   4.513   3.990  14.400
   73SLPC   O11 6408   4.551   4.190  14.270
   73SLPC    C1 6409   4.538   4.325  14.308
   73SLPC    HA 6410   4.440   4.368  14.275
   73SLPC    HB 6411   4.543   4.330  14.419
   73SLPC    C2 6412   4.658   4.405  14.256
   73SLPC    HS 6413   4.647   4.509  14.297
   73SLPC   O21 6414   4.667   4.403  14.112
   73SLPC   C21 6415   4.579   4.484  14.061
   73SLPC   O22 6416   4.516   4.566  14.124
   73SLPC   C22 6417   4.588   4.483  13.909
   73SLPC   H2R 6418   4.593   4.592  13.893
   73SLPC   H2S 6419   4.686   4.438  13.884
   73SLPC    C3 6420   4.788   4.346  14.313
   73SLPC    HX 6421   4.767   4.332  14.421
   73SLPC    HY 6422   4.867   4.422  14.309
   73SLPC   O31 6423   4.827   4.218  14.258
   73SLPC   C31 6424   4.896   4.213  14.145
   73SLPC   O32 6425   4.952   4.304  14.088
   73SLPC   C32 6426   4.898   4.072  14.092
   73SLPC   H2X 6427   4.858   3.999  14.164
   73SLPC   H2Y 6428   5.005   4.047  14.074
   73SLPC   C23 6429   4.473   4.414  13.825
   73SLPC   H3R 6430   4.374   4.456  13.843
   73SLPC   H3S 6431   4.474   4.308  13.849
   73SLPC   C24 6432   4.456   4.425  13.673
   73SLPC   H4R 6433   4.432   4.530  13.655
   73SLPC   H4S 6434   4.372   4.373  13.626
   73SLPC   C25 6435   4.565   4.364  13.593
   73SLPC   H5R 6436   4.657   4.309  13.623
   73SLPC   H5S 6437   4.624   4.428  13.646
   73SLPC   C26 6438   4.566   4.406  13.452
   73SLPC   H6R 6439   4.541   4.503  13.407
   73SLPC   H6S 6440   4.473   4.378  13.400
   73SLPC   C27 6441   4.703   4.355  13.412
   73SLPC   H7R 6442   4.655   4.376  13.314
   73SLPC   H7S 6443   4.701   4.250  13.396
   73SLPC   C28 6444   4.852   4.408  13.472
   73SLPC   H8R 6445   4.877   4.390  13.573
   73SLPC   H8S 6446   4.895   4.513  13.478
   73SLPC   C29 6447   4.976   4.384  13.418
   73SLPC   H9R 6448   4.980   4.461  13.338
   73SLPC  C210 6449   5.048   4.272  13.430
   73SLPC  H10R 6450   5.105   4.228  13.346
   73SLPC  C211 6451   5.001   4.163  13.507
   73SLPC  H11R 6452   5.005   4.222  13.599
   73SLPC  H11S 6453   5.081   4.089  13.495
   73SLPC  C212 6454   4.864   4.107  13.492
   73SLPC  H12R 6455   4.793   4.162  13.555
   73SLPC  C213 6456   4.822   4.007  13.414
   73SLPC  H13R 6457   4.714   3.983  13.416
   73SLPC  C214 6458   4.908   3.926  13.322
   73SLPC  H14R 6459   4.926   3.826  13.361
   73SLPC  H14S 6460   5.010   3.966  13.307
   73SLPC  C215 6461   4.840   3.899  13.190
   73SLPC  H15R 6462   4.738   3.855  13.202
   73SLPC  H15S 6463   4.904   3.828  13.136
   73SLPC  C216 6464   4.824   4.018  13.102
   73SLPC  H16R 6465   4.771   4.095  13.161
   73SLPC  H16S 6466   4.764   3.975  13.025
   73SLPC  C217 6467   4.945   4.066  13.024
   73SLPC  H17R 6468   4.993   3.994  12.957
   73SLPC  H17S 6469   5.017   4.072  13.107
   73SLPC  C218 6470   4.912   4.189  12.938
   73SLPC  H18R 6471   4.820   4.234  12.979
   73SLPC  H18S 6472   4.881   4.174  12.835
   73SLPC  H18T 6473   4.993   4.266  12.937
   73SLPC   C33 6474   4.831   4.065  13.953
   73SLPC   H3X 6475   4.856   3.962  13.925
   73SLPC   H3Y 6476   4.889   4.127  13.881
   73SLPC   C34 6477   4.676   4.080  13.950
   73SLPC   H4X 6478   4.639   4.178  13.985
   73SLPC   H4Y 6479   4.635   4.006  14.022
   73SLPC   C35 6480   4.612   4.063  13.810
   73SLPC   H5X 6481   4.668   3.986  13.768
   73SLPC   H5Y 6482   4.634   4.141  13.737
   73SLPC   C36 6483   4.463   4.037  13.790
   73SLPC   H6X 6484   4.401   4.109  13.845
   73SLPC   H6Y 6485   4.423   3.960  13.840
   73SLPC   C37 6486   4.420   3.973  13.657
   73SLPC   H7X 6487   4.334   3.904  13.664
   73SLPC   H7Y 6488   4.492   3.902  13.614
   73SLPC   C38 6489   4.383   4.094  13.579
   73SLPC   H8X 6490   4.479   4.145  13.561
   73SLPC   H8Y 6491   4.317   4.157  13.643
   73SLPC   C39 6492   4.319   4.070  13.448
   73SLPC   H9X 6493   4.247   4.153  13.429
   73SLPC   H9Y 6494   4.263   3.975  13.442
   73SLPC  C310 6495   4.433   4.074  13.351
   73SLPC  H10X 6496   4.514   3.999  13.368
   73SLPC  H10Y 6497   4.466   4.178  13.333
   73SLPC  C311 6498   4.385   4.034  13.225
   73SLPC  H11X 6499   4.285   4.061  13.215
   73SLPC  H11Y 6500   4.341   3.945  13.238
   73SLPC  C312 6501   4.472   4.063  13.109
   73SLPC  H12X 6502   4.397   4.043  13.030
   73SLPC  H12Y 6503   4.547   3.981  13.115
   73SLPC  C313 6504   4.550   4.197  13.083
   73SLPC  H13X 6505   4.616   4.193  12.994
   73SLPC  H13Y 6506   4.607   4.184  13.176
   73SLPC  C314 6507   4.495   4.344  13.109
   73SLPC  H14X 6508   4.596   4.362  13.139
   73SLPC  H14Y 6509   4.462   4.363  13.005
   73SLPC  C315 6510   4.506   4.485  13.060
   73SLPC  H15X 6511   4.601   4.485  13.001
   73SLPC  H15Y 6512   4.517   4.533  13.160
   73SLPC  C316 6513   4.372   4.548  13.008
   73SLPC  H16X 6514   4.404   4.633  13.056
   73SLPC  H16Y 6515   4.270   4.529  13.043
   73SLPC  C317 6516   4.369   4.595  12.873
   73SLPC  H17X 6517   4.282   4.615  12.805
   73SLPC  H17Y 6518   4.392   4.492  12.853
   73SLPC  C318 6519   4.501   4.657  12.861
   73SLPC  H18X 6520   4.516   4.763  12.854
   73SLPC  H18Y 6521   4.508   4.638  12.767
   73SLPC  H18Z 6522   4.589   4.596  12.869
   74SLPC     N 6523   2.242   4.265  14.630
   74SLPC   C13 6524   2.382   4.317  14.641
   74SLPC  H13A 6525   2.439   4.255  14.710
   74SLPC  H13B 6526   2.430   4.311  14.543
   74SLPC  H13C 6527   2.386   4.419  14.676
   74SLPC   C14 6528   2.164   4.346  14.532
   74SLPC  H14A 6529   2.074   4.389  14.574
   74SLPC  H14B 6530   2.223   4.422  14.482
   74SLPC  H14C 6531   2.130   4.281  14.450
   74SLPC   C15 6532   2.175   4.277  14.763
   74SLPC  H15A 6533   2.207   4.198  14.832
   74SLPC  H15B 6534   2.202   4.371  14.808
   74SLPC  H15C 6535   2.068   4.271  14.749
   74SLPC   C12 6536   2.248   4.116  14.587
   74SLPC  H12A 6537   2.148   4.081  14.561
   74SLPC  H12B 6538   2.282   4.057  14.671
   74SLPC   C11 6539   2.336   4.071  14.467
   74SLPC  H11A 6540   2.322   3.962  14.447
   74SLPC  H11B 6541   2.444   4.085  14.489
   74SLPC     P 6542   2.176   4.107  14.265
   74SLPC   O13 6543   2.182   3.969  14.211
   74SLPC   O14 6544   2.057   4.148  14.344
   74SLPC   O12 6545   2.305   4.143  14.351
   74SLPC   O11 6546   2.208   4.206  14.154
   74SLPC    C1 6547   2.214   4.346  14.167
   74SLPC    HA 6548   2.190   4.385  14.268
   74SLPC    HB 6549   2.305   4.386  14.120
   74SLPC    C2 6550   2.117   4.394  14.071
   74SLPC    HS 6551   2.031   4.404  14.143
   74SLPC   O21 6552   2.151   4.296  13.946
   74SLPC   C21 6553   2.034   4.282  13.886
   74SLPC   O22 6554   1.957   4.341  13.938
   74SLPC   C22 6555   1.956   4.223  13.761
   74SLPC   H2R 6556   2.041   4.210  13.700
   74SLPC   H2S 6557   1.917   4.135  13.808
   74SLPC    C3 6558   2.123   4.546  14.044
   74SLPC    HX 6559   2.143   4.606  14.134
   74SLPC    HY 6560   2.021   4.590  14.018
   74SLPC   O31 6561   2.226   4.548  13.949
   74SLPC   C31 6562   2.219   4.631  13.852
   74SLPC   O32 6563   2.150   4.732  13.851
   74SLPC   C32 6564   2.306   4.570  13.731
   74SLPC   H2X 6565   2.326   4.463  13.754
   74SLPC   H2Y 6566   2.387   4.638  13.754
   74SLPC   C23 6567   1.828   4.291  13.675
   74SLPC   H3R 6568   1.841   4.389  13.628
   74SLPC   H3S 6569   1.739   4.330  13.726
   74SLPC   C24 6570   1.785   4.209  13.555
   74SLPC   H4R 6571   1.692   4.158  13.570
   74SLPC   H4S 6572   1.865   4.134  13.538
   74SLPC   C25 6573   1.755   4.285  13.429
   74SLPC   H5R 6574   1.851   4.311  13.397
   74SLPC   H5S 6575   1.691   4.376  13.439
   74SLPC   C26 6576   1.737   4.200  13.306
   74SLPC   H6R 6577   1.654   4.137  13.334
   74SLPC   H6S 6578   1.829   4.140  13.286
   74SLPC   C27 6579   1.712   4.278  13.179
   74SLPC   H7R 6580   1.639   4.364  13.194
   74SLPC   H7S 6581   1.691   4.218  13.091
   74SLPC   C28 6582   1.830   4.343  13.128
   74SLPC   H8R 6583   1.828   4.389  13.226
   74SLPC   H8S 6584   1.780   4.410  13.062
   74SLPC   C29 6585   1.970   4.297  13.094
   74SLPC   H9R 6586   1.985   4.202  13.144
   74SLPC  C210 6587   2.081   4.362  13.047
   74SLPC  H10R 6588   2.177   4.317  13.066
   74SLPC  C211 6589   2.119   4.503  13.009
   74SLPC  H11R 6590   2.090   4.550  13.095
   74SLPC  H11S 6591   2.067   4.549  12.920
   74SLPC  C212 6592   2.238   4.576  13.058
   74SLPC  H12R 6593   2.232   4.652  13.141
   74SLPC  C213 6594   2.335   4.587  12.975
   74SLPC  H13R 6595   2.422   4.641  13.011
   74SLPC  C214 6596   2.336   4.536  12.838
   74SLPC  H14R 6597   2.272   4.445  12.827
   74SLPC  H14S 6598   2.441   4.515  12.815
   74SLPC  C215 6599   2.297   4.643  12.736
   74SLPC  H15R 6600   2.341   4.739  12.760
   74SLPC  H15S 6601   2.194   4.675  12.757
   74SLPC  C216 6602   2.349   4.605  12.594
   74SLPC  H16R 6603   2.459   4.617  12.596
   74SLPC  H16S 6604   2.319   4.674  12.516
   74SLPC  C217 6605   2.315   4.466  12.532
   74SLPC  H17R 6606   2.305   4.392  12.615
   74SLPC  H17S 6607   2.393   4.450  12.458
   74SLPC  C218 6608   2.203   4.442  12.432
   74SLPC  H18R 6609   2.184   4.535  12.372
   74SLPC  H18S 6610   2.139   4.436  12.522
   74SLPC  H18T 6611   2.117   4.376  12.424
   74SLPC   C33 6612   2.305   4.608  13.574
   74SLPC   H3X 6613   2.276   4.713  13.561
   74SLPC   H3Y 6614   2.229   4.584  13.502
   74SLPC   C34 6615   2.391   4.529  13.475
   74SLPC   H4X 6616   2.483   4.522  13.532
   74SLPC   H4Y 6617   2.397   4.594  13.385
   74SLPC   C35 6618   2.349   4.383  13.437
   74SLPC   H5X 6619   2.252   4.371  13.382
   74SLPC   H5Y 6620   2.338   4.329  13.534
   74SLPC   C36 6621   2.452   4.307  13.360
   74SLPC   H6X 6622   2.547   4.357  13.391
   74SLPC   H6Y 6623   2.437   4.323  13.251
   74SLPC   C37 6624   2.451   4.157  13.395
   74SLPC   H7X 6625   2.469   4.144  13.505
   74SLPC   H7Y 6626   2.535   4.110  13.341
   74SLPC   C38 6627   2.321   4.082  13.358
   74SLPC   H8X 6628   2.232   4.134  13.401
   74SLPC   H8Y 6629   2.322   3.978  13.398
   74SLPC   C39 6630   2.296   4.074  13.207
   74SLPC   H9X 6631   2.385   4.035  13.153
   74SLPC   H9Y 6632   2.278   4.178  13.172
   74SLPC  C310 6633   2.170   3.991  13.176
   74SLPC  H10X 6634   2.088   4.033  13.238
   74SLPC  H10Y 6635   2.186   3.885  13.207
   74SLPC  C311 6636   2.131   3.999  13.028
   74SLPC  H11X 6637   2.193   3.925  12.972
   74SLPC  H11Y 6638   2.157   4.102  12.994
   74SLPC  C312 6639   1.982   3.975  12.998
   74SLPC  H12X 6640   1.918   4.029  13.070
   74SLPC  H12Y 6641   1.965   3.868  13.019
   74SLPC  C313 6642   1.933   4.005  12.854
   74SLPC  H13X 6643   1.832   3.961  12.837
   74SLPC  H13Y 6644   2.001   3.959  12.779
   74SLPC  C314 6645   1.901   4.149  12.824
   74SLPC  H14X 6646   1.983   4.217  12.856
   74SLPC  H14Y 6647   1.805   4.176  12.875
   74SLPC  C315 6648   1.883   4.171  12.677
   74SLPC  H15X 6649   1.811   4.103  12.627
   74SLPC  H15Y 6650   1.985   4.154  12.638
   74SLPC  C316 6651   1.841   4.312  12.649
   74SLPC  H16X 6652   1.944   4.358  12.654
   74SLPC  H16Y 6653   1.785   4.363  12.729
   74SLPC  C317 6654   1.763   4.327  12.516
   74SLPC  H17X 6655   1.829   4.298  12.432
   74SLPC  H17Y 6656   1.748   4.431  12.494
   74SLPC  C318 6657   1.620   4.280  12.506
   74SLPC  H18X 6658   1.613   4.172  12.523
   74SLPC  H18Y 6659   1.581   4.305  12.404
   74SLPC  H18Z 6660   1.558   4.336  12.579
   75SLPC     N 6661   5.598   4.726  14.582
   75SLPC   C13 6662   5.717   4.751  14.670
   75SLPC  H13A 6663   5.698   4.830  14.741
   75SLPC  H13B 6664   5.740   4.660  14.724
   75SLPC  H13C 6665   5.804   4.774  14.608
   75SLPC   C14 6666   5.568   4.848  14.502
   75SLPC  H14A 6667   5.474   4.838  14.449
   75SLPC  H14B 6668   5.563   4.936  14.563
   75SLPC  H14C 6669   5.648   4.862  14.429
   75SLPC   C15 6670   5.484   4.691  14.672
   75SLPC  H15A 6671   5.469   4.765  14.749
   75SLPC  H15B 6672   5.390   4.681  14.618
   75SLPC  H15C 6673   5.509   4.597  14.721
   75SLPC   C12 6674   5.626   4.610  14.487
   75SLPC  H12A 6675   5.536   4.589  14.431
   75SLPC  H12B 6676   5.654   4.523  14.546
   75SLPC   C11 6677   5.734   4.619  14.378
   75SLPC  H11A 6678   5.705   4.697  14.303
   75SLPC  H11B 6679   5.730   4.520  14.325
   75SLPC     P 6680   5.982   4.652  14.325
   75SLPC   O13 6681   6.077   4.755  14.372
   75SLPC   O14 6682   6.035   4.517  14.295
   75SLPC   O12 6683   5.864   4.640  14.432
   75SLPC   O11 6684   5.902   4.700  14.198
   75SLPC    C1 6685   5.944   4.806  14.114
   75SLPC    HA 6686   5.944   4.902  14.170
   75SLPC    HB 6687   6.046   4.785  14.078
   75SLPC    C2 6688   5.853   4.826  13.990
   75SLPC    HS 6689   5.869   4.929  13.954
   75SLPC   O21 6690   5.717   4.811  14.029
   75SLPC   C21 6691   5.632   4.868  13.943
   75SLPC   O22 6692   5.659   4.946  13.855
   75SLPC   C22 6693   5.500   4.814  13.968
   75SLPC   H2R 6694   5.449   4.864  14.055
   75SLPC   H2S 6695   5.432   4.827  13.881
   75SLPC    C3 6696   5.887   4.727  13.875
   75SLPC    HX 6697   5.989   4.752  13.840
   75SLPC    HY 6698   5.817   4.742  13.791
   75SLPC   O31 6699   5.878   4.592  13.918
   75SLPC   C31 6700   5.989   4.532  13.958
   75SLPC   O32 6701   6.103   4.562  13.932
   75SLPC   C32 6702   5.953   4.410  14.026
   75SLPC   H2X 6703   5.885   4.427  14.112
   75SLPC   H2Y 6704   6.042   4.356  14.064
   75SLPC   C23 6705   5.533   4.666  13.996
   75SLPC   H3R 6706   5.441   4.680  14.041
   75SLPC   H3S 6707   5.567   4.624  14.092
   75SLPC   C24 6708   5.553   4.570  13.874
   75SLPC   H4R 6709   5.523   4.464  13.895
   75SLPC   H4S 6710   5.661   4.577  13.859
   75SLPC   C25 6711   5.496   4.610  13.737
   75SLPC   H5R 6712   5.513   4.714  13.709
   75SLPC   H5S 6713   5.392   4.622  13.743
   75SLPC   C26 6714   5.505   4.505  13.625
   75SLPC   H6R 6715   5.439   4.531  13.539
   75SLPC   H6S 6716   5.475   4.404  13.662
   75SLPC   C27 6717   5.638   4.504  13.560
   75SLPC   H7R 6718   5.642   4.412  13.499
   75SLPC   H7S 6719   5.710   4.498  13.644
   75SLPC   C28 6720   5.663   4.624  13.466
   75SLPC   H8R 6721   5.588   4.631  13.385
   75SLPC   H8S 6722   5.759   4.593  13.420
   75SLPC   C29 6723   5.678   4.758  13.532
   75SLPC   H9R 6724   5.586   4.810  13.563
   75SLPC  C210 6725   5.792   4.826  13.543
   75SLPC  H10R 6726   5.788   4.924  13.593
   75SLPC  C211 6727   5.925   4.778  13.490
   75SLPC  H11R 6728   5.921   4.718  13.398
   75SLPC  H11S 6729   5.981   4.723  13.569
   75SLPC  C212 6730   6.002   4.897  13.454
   75SLPC  H12R 6731   6.107   4.885  13.484
   75SLPC  C213 6732   5.971   5.003  13.381
   75SLPC  H13R 6733   6.005   5.097  13.426
   75SLPC  C214 6734   5.849   5.039  13.308
   75SLPC  H14R 6735   5.830   5.148  13.322
   75SLPC  H14S 6736   5.765   4.977  13.338
   75SLPC  C215 6737   5.871   5.016  13.160
   75SLPC  H15R 6738   5.939   5.097  13.138
   75SLPC  H15S 6739   5.784   5.050  13.104
   75SLPC  C216 6740   5.921   4.874  13.121
   75SLPC  H16R 6741   5.846   4.801  13.157
   75SLPC  H16S 6742   6.017   4.850  13.172
   75SLPC  C217 6743   5.950   4.859  12.970
   75SLPC  H17R 6744   6.007   4.766  12.950
   75SLPC  H17S 6745   6.015   4.943  12.937
   75SLPC  C218 6746   5.824   4.860  12.885
   75SLPC  H18R 6747   5.849   4.855  12.777
   75SLPC  H18S 6748   5.764   4.951  12.905
   75SLPC  H18T 6749   5.766   4.770  12.914
   75SLPC   C33 6750   5.885   4.336  13.916
   75SLPC   H3X 6751   5.785   4.345  13.873
   75SLPC   H3Y 6752   5.843   4.277  14.000
   75SLPC   C34 6753   5.987   4.282  13.812
   75SLPC   H4X 6754   5.955   4.192  13.766
   75SLPC   H4Y 6755   6.074   4.237  13.858
   75SLPC   C35 6756   5.986   4.348  13.677
   75SLPC   H5X 6757   6.009   4.450  13.708
   75SLPC   H5Y 6758   5.884   4.329  13.636
   75SLPC   C36 6759   6.091   4.311  13.575
   75SLPC   H6X 6760   6.068   4.217  13.537
   75SLPC   H6Y 6761   6.189   4.299  13.620
   75SLPC   C37 6762   6.078   4.350  13.430
   75SLPC   H7X 6763   6.160   4.301  13.373
   75SLPC   H7Y 6764   6.093   4.457  13.437
   75SLPC   C38 6765   5.946   4.305  13.362
   75SLPC   H8X 6766   5.857   4.304  13.429
   75SLPC   H8Y 6767   5.953   4.202  13.320
   75SLPC   C39 6768   5.922   4.397  13.244
   75SLPC   H9X 6769   6.019   4.439  13.215
   75SLPC   H9Y 6770   5.869   4.489  13.274
   75SLPC  C310 6771   5.856   4.329  13.125
   75SLPC  H10X 6772   5.754   4.298  13.159
   75SLPC  H10Y 6773   5.910   4.236  13.094
   75SLPC  C311 6774   5.834   4.425  13.008
   75SLPC  H11X 6775   5.919   4.469  12.953
   75SLPC  H11Y 6776   5.789   4.518  13.048
   75SLPC  C312 6777   5.754   4.362  12.897
   75SLPC  H12X 6778   5.670   4.308  12.946
   75SLPC  H12Y 6779   5.812   4.290  12.834
   75SLPC  C313 6780   5.704   4.474  12.811
   75SLPC  H13X 6781   5.790   4.522  12.758
   75SLPC  H13Y 6782   5.658   4.552  12.877
   75SLPC  C314 6783   5.600   4.423  12.715
   75SLPC  H14X 6784   5.521   4.364  12.764
   75SLPC  H14Y 6785   5.651   4.364  12.635
   75SLPC  C315 6786   5.525   4.537  12.659
   75SLPC  H15X 6787   5.478   4.603  12.735
   75SLPC  H15Y 6788   5.452   4.507  12.579
   75SLPC  C316 6789   5.618   4.628  12.596
   75SLPC  H16X 6790   5.655   4.572  12.505
   75SLPC  H16Y 6791   5.702   4.680  12.646
   75SLPC  C317 6792   5.517   4.729  12.558
   75SLPC  H17X 6793   5.459   4.675  12.480
   75SLPC  H17Y 6794   5.591   4.794  12.521
   75SLPC  C318 6795   5.449   4.847  12.626
   75SLPC  H18X 6796   5.524   4.900  12.688
   75SLPC  H18Y 6797   5.364   4.803  12.677
   75SLPC  H18Z 6798   5.411   4.923  12.552
   76SLPC     N 6799   6.561   3.263  14.569
   76SLPC   C13 6800   6.601   3.177  14.685
   76SLPC  H13A 6801   6.705   3.189  14.712
   76SLPC  H13B 6802   6.539   3.204  14.771
   76SLPC  H13C 6803   6.579   3.073  14.662
   76SLPC   C14 6804   6.565   3.405  14.614
   76SLPC  H14A 6805   6.523   3.472  14.539
   76SLPC  H14B 6806   6.509   3.416  14.706
   76SLPC  H14C 6807   6.669   3.434  14.630
   76SLPC   C15 6808   6.421   3.227  14.535
   76SLPC  H15A 6809   6.418   3.131  14.483
   76SLPC  H15B 6810   6.361   3.215  14.625
   76SLPC  H15C 6811   6.376   3.302  14.472
   76SLPC   C12 6812   6.647   3.242  14.444
   76SLPC  H12A 6813   6.603   3.299  14.363
   76SLPC  H12B 6814   6.638   3.138  14.416
   76SLPC   C11 6815   6.798   3.279  14.443
   76SLPC  H11A 6816   6.844   3.234  14.352
   76SLPC  H11B 6817   6.849   3.231  14.529
   76SLPC     P 6818   6.794   3.513  14.321
   76SLPC   O13 6819   6.685   3.605  14.360
   76SLPC   O14 6820   6.920   3.571  14.270
   76SLPC   O12 6821   6.820   3.420  14.447
   76SLPC   O11 6822   6.737   3.408  14.217
   76SLPC    C1 6823   6.630   3.436  14.129
   76SLPC    HA 6824   6.552   3.502  14.174
   76SLPC    HB 6825   6.668   3.485  14.036
   76SLPC    C2 6826   6.563   3.304  14.088
   76SLPC    HS 6827   6.528   3.247  14.177
   76SLPC   O21 6828   6.650   3.226  14.004
   76SLPC   C21 6829   6.714   3.127  14.061
   76SLPC   O22 6830   6.695   3.087  14.175
   76SLPC   C22 6831   6.812   3.064  13.959
   76SLPC   H2R 6832   6.915   3.085  13.990
   76SLPC   H2S 6833   6.802   2.956  13.962
   76SLPC    C3 6834   6.439   3.335  14.006
   76SLPC    HX 6835   6.363   3.394  14.063
   76SLPC    HY 6836   6.404   3.230  13.988
   76SLPC   O31 6837   6.475   3.398  13.883
   76SLPC   C31 6838   6.386   3.473  13.821
   76SLPC   O32 6839   6.269   3.488  13.846
   76SLPC   C32 6840   6.453   3.551  13.714
   76SLPC   H2X 6841   6.561   3.550  13.735
   76SLPC   H2Y 6842   6.413   3.655  13.722
   76SLPC   C23 6843   6.795   3.086  13.805
   76SLPC   H3R 6844   6.692   3.060  13.774
   76SLPC   H3S 6845   6.862   3.011  13.757
   76SLPC   C24 6846   6.844   3.222  13.754
   76SLPC   H4R 6847   6.915   3.265  13.828
   76SLPC   H4S 6848   6.755   3.289  13.755
   76SLPC   C25 6849   6.914   3.213  13.616
   76SLPC   H5R 6850   6.838   3.182  13.541
   76SLPC   H5S 6851   6.993   3.134  13.615
   76SLPC   C26 6852   6.979   3.344  13.564
   76SLPC   H6R 6853   7.064   3.376  13.628
   76SLPC   H6S 6854   6.901   3.424  13.572
   76SLPC   C27 6855   7.026   3.334  13.417
   76SLPC   H7R 6856   6.946   3.286  13.357
   76SLPC   H7S 6857   7.115   3.269  13.411
   76SLPC   C28 6858   7.053   3.474  13.355
   76SLPC   H8R 6859   7.131   3.526  13.415
   76SLPC   H8S 6860   6.959   3.529  13.374
   76SLPC   C29 6861   7.095   3.483  13.209
   76SLPC   H9R 6862   7.180   3.423  13.175
   76SLPC  C210 6863   7.034   3.557  13.115
   76SLPC  H10R 6864   7.087   3.575  13.020
   76SLPC  C211 6865   6.914   3.641  13.142
   76SLPC  H11R 6866   6.925   3.700  13.236
   76SLPC  H11S 6867   6.822   3.580  13.151
   76SLPC  C212 6868   6.903   3.734  13.028
   76SLPC  H12R 6869   6.965   3.822  13.048
   76SLPC  C213 6870   6.829   3.724  12.915
   76SLPC  H13R 6871   6.813   3.814  12.853
   76SLPC  C214 6872   6.737   3.617  12.872
   76SLPC  H14R 6873   6.754   3.527  12.935
   76SLPC  H14S 6874   6.760   3.600  12.765
   76SLPC  C215 6875   6.588   3.646  12.887
   76SLPC  H15R 6876   6.558   3.734  12.825
   76SLPC  H15S 6877   6.573   3.661  12.992
   76SLPC  C216 6878   6.499   3.524  12.864
   76SLPC  H16R 6879   6.540   3.423  12.887
   76SLPC  H16S 6880   6.542   3.524  12.763
   76SLPC  C217 6881   6.335   3.538  12.881
   76SLPC  H17R 6882   6.316   3.543  12.988
   76SLPC  H17S 6883   6.296   3.438  12.854
   76SLPC  C218 6884   6.240   3.647  12.798
   76SLPC  H18R 6885   6.137   3.667  12.824
   76SLPC  H18S 6886   6.231   3.673  12.691
   76SLPC  H18T 6887   6.313   3.732  12.777
   76SLPC   C33 6888   6.416   3.491  13.579
   76SLPC   H3X 6889   6.309   3.511  13.554
   76SLPC   H3Y 6890   6.431   3.380  13.579
   76SLPC   C34 6891   6.503   3.554  13.473
   76SLPC   H4X 6892   6.606   3.514  13.476
   76SLPC   H4Y 6893   6.508   3.663  13.496
   76SLPC   C35 6894   6.440   3.529  13.336
   76SLPC   H5X 6895   6.492   3.598  13.265
   76SLPC   H5Y 6896   6.331   3.554  13.344
   76SLPC   C36 6897   6.451   3.389  13.280
   76SLPC   H6X 6898   6.372   3.370  13.205
   76SLPC   H6Y 6899   6.437   3.317  13.364
   76SLPC   C37 6900   6.586   3.374  13.210
   76SLPC   H7X 6901   6.663   3.415  13.279
   76SLPC   H7Y 6902   6.587   3.438  13.119
   76SLPC   C38 6903   6.628   3.231  13.180
   76SLPC   H8X 6904   6.630   3.172  13.274
   76SLPC   H8Y 6905   6.733   3.236  13.141
   76SLPC   C39 6906   6.542   3.164  13.073
   76SLPC   H9X 6907   6.545   3.235  12.988
   76SLPC   H9Y 6908   6.436   3.158  13.105
   76SLPC  C310 6909   6.597   3.025  13.031
   76SLPC  H10X 6910   6.586   2.950  13.106
   76SLPC  H10Y 6911   6.706   3.029  13.030
   76SLPC  C311 6912   6.537   2.955  12.911
   76SLPC  H11X 6913   6.430   2.972  12.893
   76SLPC  H11Y 6914   6.577   2.859  12.870
   76SLPC  C312 6915   6.584   3.028  12.806
   76SLPC  H12X 6916   6.524   3.121  12.831
   76SLPC  H12Y 6917   6.542   2.987  12.709
   76SLPC  C313 6918   6.737   3.048  12.809
   76SLPC  H13X 6919   6.785   2.944  12.787
   76SLPC  H13Y 6920   6.785   3.105  12.888
   76SLPC  C314 6921   6.804   3.177  12.745
   76SLPC  H14X 6922   6.758   3.088  12.688
   76SLPC  H14Y 6923   6.883   3.121  12.684
   76SLPC  C315 6924   6.743   3.364  12.679
   76SLPC  H15X 6925   6.824   3.420  12.722
   76SLPC  H15Y 6926   6.655   3.415  12.684
   76SLPC  C316 6927   6.693   3.417  12.488
   76SLPC  H16X 6928   6.742   3.364  12.405
   76SLPC  H16Y 6929   6.715   3.512  12.450
   76SLPC  C317 6930   6.599   3.347  12.360
   76SLPC  H17X 6931   6.599   3.242  12.317
   76SLPC  H17Y 6932   6.609   3.386  12.256
   76SLPC  C318 6933   6.470   3.342  12.418
   76SLPC  H18X 6934   6.385   3.349  12.356
   76SLPC  H18Y 6935   6.500   3.420  12.485
   76SLPC  H18Z 6936   6.425   3.283  12.495
   77SLPC     N 6937   0.743   4.115  14.331
   77SLPC   C13 6938   0.774   3.980  14.388
   77SLPC  H13A 6939   0.749   3.904  14.315
   77SLPC  H13B 6940   0.880   3.967  14.412
   77SLPC  H13C 6941   0.716   3.964  14.479
   77SLPC   C14 6942   0.819   4.139  14.213
   77SLPC  H14A 6943   0.910   4.092  14.242
   77SLPC  H14B 6944   0.805   4.074  14.128
   77SLPC  H14C 6945   0.854   4.240  14.187
   77SLPC   C15 6946   0.760   4.228  14.423
   77SLPC  H15A 6947   0.837   4.217  14.498
   77SLPC  H15B 6948   0.795   4.312  14.364
   77SLPC  H15C 6949   0.675   4.252  14.485
   77SLPC   C12 6950   0.614   4.125  14.270
   77SLPC  H12A 6951   0.615   4.054  14.189
   77SLPC  H12B 6952   0.611   4.225  14.227
   77SLPC   C11 6953   0.501   4.101  14.364
   77SLPC  H11A 6954   0.510   3.996  14.400
   77SLPC  H11B 6955   0.409   4.112  14.304
   77SLPC     P 6956   0.411   4.185  14.595
   77SLPC   O13 6957   0.487   4.133  14.709
   77SLPC   O14 6958   0.334   4.310  14.612
   77SLPC   O12 6959   0.504   4.197  14.470
   77SLPC   O11 6960   0.320   4.068  14.548
   77SLPC    C1 6961   0.230   4.012  14.640
   77SLPC    HA 6962   0.271   3.954  14.722
   77SLPC    HB 6963   0.161   4.093  14.682
   77SLPC    C2 6964   0.148   3.922  14.556
   77SLPC    HS 6965   0.076   3.861  14.620
   77SLPC   O21 6966   0.195   3.842  14.449
   77SLPC   C21 6967   0.288   3.772  14.480
   77SLPC   O22 6968   0.307   3.727  14.594
   77SLPC   C22 6969   0.353   3.743  14.342
   77SLPC   H2R 6970   0.301   3.664  14.288
   77SLPC   H2S 6971   0.325   3.812  14.262
   77SLPC    C3 6972   0.076   4.026  14.498
   77SLPC    HX 6973   0.008   4.068  14.574
   77SLPC    HY 6974   0.018   3.948  14.470
   77SLPC   O31 6975   0.124   4.106  14.381
   77SLPC   C31 6976   0.093   4.132  14.251
   77SLPC   O32 6977   0.009   4.090  14.177
   77SLPC   C32 6978   0.159   4.249  14.200
   77SLPC   H2X 6979   0.245   4.268  14.264
   77SLPC   H2Y 6980   0.080   4.324  14.216
   77SLPC   C23 6981   0.498   3.706  14.363
   77SLPC   H3R 6982   0.513   3.606  14.409
   77SLPC   H3S 6983   0.531   3.778  14.441
   77SLPC   C24 6984   0.587   3.739  14.243
   77SLPC   H4R 6985   0.687   3.747  14.286
   77SLPC   H4S 6986   0.549   3.833  14.197
   77SLPC   C25 6987   0.604   3.645  14.125
   77SLPC   H5R 6988   0.619   3.542  14.163
   77SLPC   H5S 6989   0.689   3.652  14.056
   77SLPC   C26 6990   0.483   3.669  14.039
   77SLPC   H6R 6991   0.403   3.643  14.111
   77SLPC   H6S 6992   0.498   3.610  13.947
   77SLPC   C27 6993   0.446   3.786  13.950
   77SLPC   H7R 6994   0.539   3.795  13.888
   77SLPC   H7S 6995   0.414   3.856  14.028
   77SLPC   C28 6996   0.313   3.782  13.855
   77SLPC   H8R 6997   0.227   3.744  13.903
   77SLPC   H8S 6998   0.318   3.727  13.780
   77SLPC   C29 6999   0.288   3.909  13.775
   77SLPC   H9R 7000   0.199   3.942  13.844
   77SLPC  C210 7001   0.246   3.935  13.637
   77SLPC  H10R 7002   0.188   4.004  13.604
   77SLPC  C211 7003   0.291   3.865  13.505
   77SLPC  H11R 7004   0.384   3.810  13.518
   77SLPC  H11S 7005   0.346   3.913  13.425
   77SLPC  C212 7006   0.133   3.795  13.454
   77SLPC  H12R 7007   0.104   3.689  13.469
   77SLPC  C213 7008   0.069   3.805  13.337
   77SLPC  H13R 7009   0.020   3.710  13.296
   77SLPC  C214 7010   0.136   3.893  13.238
   77SLPC  H14R 7011   0.168   3.975  13.306
   77SLPC  H14S 7012   0.049   3.925  13.180
   77SLPC  C215 7013   0.266   3.884  13.148
   77SLPC  H15R 7014   0.361   3.840  13.184
   77SLPC  H15S 7015   0.296   3.987  13.148
   77SLPC  C216 7016   0.257   3.852  13.000
   77SLPC  H16R 7017   0.353   3.867  12.946
   77SLPC  H16S 7018   0.157   3.879  12.958
   77SLPC  C217 7019   0.259   3.717  12.965
   77SLPC  H17R 7020   0.160   3.693  13.016
   77SLPC  H17S 7021   0.354   3.655  12.981
   77SLPC  C218 7022   0.201   3.679  12.845
   77SLPC  H18R 7023   0.215   3.585  12.884
   77SLPC  H18S 7024   0.258   3.650  12.759
   77SLPC  H18T 7025   0.091   3.694  12.838
   77SLPC   C33 7026   0.180   4.223  14.049
   77SLPC   H3X 7027   0.205   4.320  14.003
   77SLPC   H3Y 7028   0.087   4.191  13.995
   77SLPC   C34 7029   0.290   4.120  14.025
   77SLPC   H4X 7030   0.275   4.079  13.927
   77SLPC   H4Y 7031   0.284   4.037  14.099
   77SLPC   C35 7032   0.433   4.172  14.026
   77SLPC   H5X 7033   0.500   4.085  14.044
   77SLPC   H5Y 7034   0.442   4.245  14.109
   77SLPC   C36 7035   0.484   4.232  13.894
   77SLPC   H6X 7036   0.446   4.335  13.878
   77SLPC   H6Y 7037   0.457   4.170  13.806
   77SLPC   C37 7038   0.635   4.235  13.901
   77SLPC   H7X 7039   0.679   4.132  13.901
   77SLPC   H7Y 7040   0.668   4.284  13.996
   77SLPC   C38 7041   0.699   4.313  13.789
   77SLPC   H8X 7042   0.800   4.286  13.821
   77SLPC   H8Y 7043   0.678   4.422  13.790
   77SLPC   C39 7044   0.683   4.276  13.643
   77SLPC   H9X 7045   0.768   4.324  13.587
   77SLPC   H9Y 7046   0.589   4.326  13.617
   77SLPC  C310 7047   0.670   4.127  13.618
   77SLPC  H10X 7048   0.585   4.080  13.667
   77SLPC  H10Y 7049   0.755   4.086  13.669
   77SLPC  C311 7050   0.659   4.078  13.474
   77SLPC  H11X 7051   0.560   4.095  13.432
   77SLPC  H11Y 7052   0.698   3.973  13.463
   77SLPC  C312 7053   0.728   4.157  13.373
   77SLPC  H12X 7054   0.811   4.175  13.446
   77SLPC  H12Y 7055   0.713   4.267  13.368
   77SLPC  C313 7056   0.737   4.069  13.236
   77SLPC  H13X 7057   0.799   3.983  13.235
   77SLPC  H13Y 7058   0.800   4.093  13.145
   77SLPC  C314 7059   0.623   4.091  13.149
   77SLPC  H14X 7060   0.534   4.051  13.193
   77SLPC  H14Y 7061   0.643   4.081  13.038
   77SLPC  C315 7062   0.590   4.230  13.145
   77SLPC  H15X 7063   0.691   4.261  13.129
   77SLPC  H15Y 7064   0.574   4.303  13.225
   77SLPC  C316 7065   0.497   4.241  13.031
   77SLPC  H16X 7066   0.528   4.190  12.935
   77SLPC  H16Y 7067   0.487   4.349  13.021
   77SLPC  C317 7068   0.370   4.186  13.050
   77SLPC  H17X 7069   0.337   4.217  13.147
   77SLPC  H17Y 7070   0.401   4.082  13.040
   77SLPC  C318 7071   0.274   4.220  12.947
   77SLPC  H18X 7072   0.276   4.321  12.903
   77SLPC  H18Y 7073   0.169   4.200  12.971
   77SLPC  H18Z 7074   0.316   4.157  12.867
   78SLPC     N 7075   3.469   0.678  14.607
   78SLPC   C13 7076   3.550   0.553  14.626
   78SLPC  H13A 7077   3.619   0.562  14.708
   78SLPC  H13B 7078   3.486   0.465  14.640
   78SLPC  H13C 7079   3.603   0.531  14.534
   78SLPC   C14 7080   3.558   0.790  14.569
   78SLPC  H14A 7081   3.587   0.848  14.656
   78SLPC  H14B 7082   3.648   0.759  14.518
   78SLPC  H14C 7083   3.507   0.858  14.501
   78SLPC   C15 7084   3.404   0.718  14.736
   78SLPC  H15A 7085   3.341   0.806  14.724
   78SLPC  H15B 7086   3.339   0.638  14.773
   78SLPC  H15C 7087   3.478   0.740  14.812
   78SLPC   C12 7088   3.361   0.652  14.501
   78SLPC  H12A 7089   3.318   0.746  14.467
   78SLPC  H12B 7090   3.280   0.598  14.550
   78SLPC   C11 7091   3.392   0.567  14.375
   78SLPC  H11A 7092   3.485   0.603  14.324
   78SLPC  H11B 7093   3.307   0.584  14.304
   78SLPC     P 7094   3.463   0.331  14.298
   78SLPC   O13 7095   3.598   0.378  14.264
   78SLPC   O14 7096   3.450   0.191  14.343
   78SLPC   O12 7097   3.401   0.428  14.409
   78SLPC   O11 7098   3.362   0.359  14.180
   78SLPC    C1 7099   3.235   0.294  14.190
   78SLPC    HA 7100   3.205   0.267  14.295
   78SLPC    HB 7101   3.159   0.368  14.157
   78SLPC    C2 7102   3.227   0.168  14.099
   78SLPC    HS 7103   3.232   0.077  14.163
   78SLPC   O21 7104   3.328   0.160  14.003
   78SLPC   C21 7105   3.346   0.039  13.954
   78SLPC   O22 7106   3.276  -0.059  13.961
   78SLPC   C22 7107   3.467   0.057  13.877
   78SLPC   H2R 7108   3.436   0.140  13.809
   78SLPC   H2S 7109   3.543   0.095  13.950
   78SLPC    C3 7110   3.100   0.165  14.018
   78SLPC    HX 7111   3.032   0.148  14.092
   78SLPC    HY 7112   3.095   0.072  13.958
   78SLPC   O31 7113   3.064   0.285  13.950
   78SLPC   C31 7114   3.057   0.272  13.819
   78SLPC   O32 7115   3.043   0.169  13.757
   78SLPC   C32 7116   3.087   0.407  13.759
   78SLPC   H2X 7117   3.005   0.476  13.786
   78SLPC   H2Y 7118   3.094   0.396  13.649
   78SLPC   C23 7119   3.511  -0.066  13.801
   78SLPC   H3R 7120   3.505  -0.158  13.864
   78SLPC   H3S 7121   3.621  -0.065  13.777
   78SLPC   C24 7122   3.433  -0.085  13.668
   78SLPC   H4R 7123   3.349  -0.149  13.663
   78SLPC   H4S 7124   3.511  -0.144  13.623
   78SLPC   C25 7125   3.399   0.016  13.554
   78SLPC   H5R 7126   3.350   0.107  13.578
   78SLPC   H5S 7127   3.387  -0.035  13.455
   78SLPC   C26 7128   3.514   0.064  13.501
   78SLPC   H6R 7129   3.569  -0.034  13.498
   78SLPC   H6S 7130   3.581   0.017  13.584
   78SLPC   C27 7131   3.563   0.221  13.404
   78SLPC   H7R 7132   3.521   0.311  13.443
   78SLPC   H7S 7133   3.550   0.214  13.298
   78SLPC   C28 7134   3.722   0.288  13.375
   78SLPC   H8R 7135   3.803   0.220  13.332
   78SLPC   H8S 7136   3.778   0.317  13.466
   78SLPC   C29 7137   3.743   0.417  13.320
   78SLPC   H9R 7138   3.680   0.484  13.371
   78SLPC  C210 7139   3.803   0.439  13.207
   78SLPC  H10R 7140   3.783   0.525  13.146
   78SLPC  C211 7141   3.851   0.330  13.129
   78SLPC  H11R 7142   3.886   0.236  13.172
   78SLPC  H11S 7143   3.940   0.371  13.077
   78SLPC  C212 7144   3.732   0.291  13.048
   78SLPC  H12R 7145   3.693   0.191  13.079
   78SLPC  C213 7146   3.710   0.336  12.924
   78SLPC  H13R 7147   3.633   0.284  12.866
   78SLPC  C214 7148   3.799   0.431  12.845
   78SLPC  H14R 7149   3.901   0.437  12.888
   78SLPC  H14S 7150   3.747   0.525  12.862
   78SLPC  C215 7151   3.819   0.428  12.689
   78SLPC  H15R 7152   3.892   0.352  12.651
   78SLPC  H15S 7153   3.868   0.518  12.647
   78SLPC  C216 7154   3.677   0.396  12.628
   78SLPC  H16R 7155   3.621   0.302  12.644
   78SLPC  H16S 7156   3.718   0.359  12.531
   78SLPC  C217 7157   3.591   0.519  12.664
   78SLPC  H17R 7158   3.660   0.590  12.631
   78SLPC  H17S 7159   3.589   0.552  12.766
   78SLPC  C218 7160   3.454   0.551  12.613
   78SLPC  H18R 7161   3.396   0.644  12.606
   78SLPC  H18S 7162   3.391   0.496  12.672
   78SLPC  H18T 7163   3.460   0.519  12.507
   78SLPC   C33 7164   3.219   0.457  13.821
   78SLPC   H3X 7165   3.300   0.384  13.799
   78SLPC   H3Y 7166   3.209   0.465  13.931
   78SLPC   C34 7167   3.259   0.592  13.766
   78SLPC   H4X 7168   3.360   0.619  13.802
   78SLPC   H4Y 7169   3.196   0.672  13.805
   78SLPC   C35 7170   3.250   0.590  13.616
   78SLPC   H5X 7171   3.147   0.593  13.573
   78SLPC   H5Y 7172   3.304   0.501  13.576
   78SLPC   C36 7173   3.321   0.704  13.560
   78SLPC   H6X 7174   3.417   0.713  13.609
   78SLPC   H6Y 7175   3.277   0.804  13.581
   78SLPC   C37 7176   3.350   0.657  13.418
   78SLPC   H7X 7177   3.410   0.570  13.396
   78SLPC   H7Y 7178   3.432   0.725  13.411
   78SLPC   C38 7179   3.227   0.665  13.324
   78SLPC   H8X 7180   3.200   0.763  13.359
   78SLPC   H8Y 7181   3.146   0.595  13.347
   78SLPC   C39 7182   3.242   0.678  13.173
   78SLPC   H9X 7183   3.284   0.775  13.167
   78SLPC   H9Y 7184   3.159   0.704  13.105
   78SLPC  C310 7185   3.343   0.586  13.110
   78SLPC  H10X 7186   3.445   0.599  13.157
   78SLPC  H10Y 7187   3.355   0.615  13.003
   78SLPC  C311 7188   3.319   0.448  13.139
   78SLPC  H11X 7189   3.219   0.424  13.098
   78SLPC  H11Y 7190   3.323   0.436  13.250
   78SLPC  C312 7191   3.435   0.378  13.076
   78SLPC  H12X 7192   3.526   0.410  13.132
   78SLPC  H12Y 7193   3.453   0.411  12.972
   78SLPC  C313 7194   3.414   0.231  13.093
   78SLPC  H13X 7195   3.372   0.215  13.194
   78SLPC  H13Y 7196   3.511   0.182  13.087
   78SLPC  C314 7197   3.329   0.164  12.988
   78SLPC  H14X 7198   3.236   0.220  12.973
   78SLPC  H14Y 7199   3.287   0.077  13.033
   78SLPC  C315 7200   3.408   0.114  12.865
   78SLPC  H15X 7201   3.489   0.045  12.889
   78SLPC  H15Y 7202   3.469   0.196  12.822
   78SLPC  C316 7203   3.316   0.064  12.752
   78SLPC  H16X 7204   3.222   0.119  12.741
   78SLPC  H16Y 7205   3.262  -0.027  12.767
   78SLPC  C317 7206   3.405   0.040  12.633
   78SLPC  H17X 7207   3.483  -0.033  12.658
   78SLPC  H17Y 7208   3.464   0.128  12.613
   78SLPC  C318 7209   3.333  -0.008  12.513
   78SLPC  H18X 7210   3.391  -0.021  12.421
   78SLPC  H18Y 7211   3.250   0.062  12.492
   78SLPC  H18Z 7212   3.298  -0.109  12.540
   79SLPC     N 7213   7.199   3.921  14.338
   79SLPC   C13 7214   7.097   3.936  14.240
   79SLPC  H13A 7215   7.144   3.993  14.160
   79SLPC  H13B 7216   7.062   3.839  14.212
   79SLPC  H13C 7217   7.024   4.001  14.290
   79SLPC   C14 7218   7.323   3.857  14.265
   79SLPC  H14A 7219   7.322   3.757  14.227
   79SLPC  H14B 7220   7.346   3.914  14.176
   79SLPC  H14C 7221   7.417   3.878  14.318
   79SLPC   C15 7222   7.169   3.823  14.447
   79SLPC  H15A 7223   7.246   3.827  14.523
   79SLPC  H15B 7224   7.073   3.842  14.490
   79SLPC  H15C 7225   7.177   3.723  14.406
   79SLPC   C12 7226   7.195   4.079  14.383
   79SLPC  H12A 7227   7.215   4.152  14.304
   79SLPC  H12B 7228   7.286   4.121  14.423
   79SLPC   C11 7229   7.136   4.129  14.511
   79SLPC  H11A 7230   7.205   4.212  14.551
   79SLPC  H11B 7231   7.131   4.050  14.589
   79SLPC     P 7232   6.952   4.291  14.539
   79SLPC   O13 7233   6.821   4.312  14.475
   79SLPC   O14 7234   6.957   4.246  14.680
   79SLPC   O12 7235   7.015   4.174  14.460
   79SLPC   O11 7236   7.058   4.405  14.515
   79SLPC    C1 7237   7.022   4.538  14.488
   79SLPC    HA 7238   6.913   4.559  14.502
   79SLPC    HB 7239   7.070   4.603  14.564
   79SLPC    C2 7240   7.080   4.569  14.347
   79SLPC    HS 7241   7.047   4.666  14.311
   79SLPC   O21 7242   7.065   4.474  14.242
   79SLPC   C21 7243   6.947   4.463  14.195
   79SLPC   O22 7244   6.846   4.500  14.246
   79SLPC   C22 7245   6.927   4.380  14.074
   79SLPC   H2R 7246   6.934   4.284  14.125
   79SLPC   H2S 7247   6.819   4.390  14.051
   79SLPC    C3 7248   7.227   4.589  14.348
   79SLPC    HX 7249   7.271   4.490  14.362
   79SLPC    HY 7250   7.256   4.645  14.438
   79SLPC   O31 7251   7.263   4.658  14.224
   79SLPC   C31 7252   7.285   4.575  14.121
   79SLPC   O32 7253   7.286   4.455  14.123
   79SLPC   C32 7254   7.303   4.645  13.991
   79SLPC   H2X 7255   7.404   4.675  13.977
   79SLPC   H2Y 7256   7.242   4.737  13.986
   79SLPC   C23 7257   7.015   4.387  13.948
   79SLPC   H3R 7258   7.114   4.354  13.986
   79SLPC   H3S 7259   7.040   4.486  13.910
   79SLPC   C24 7260   6.957   4.302  13.828
   79SLPC   H4R 7261   6.938   4.201  13.869
   79SLPC   H4S 7262   7.045   4.303  13.762
   79SLPC   C25 7263   6.830   4.338  13.738
   79SLPC   H5R 7264   6.742   4.352  13.804
   79SLPC   H5S 7265   6.788   4.254  13.680
   79SLPC   C26 7266   6.855   4.447  13.631
   79SLPC   H6R 7267   6.959   4.484  13.632
   79SLPC   H6S 7268   6.819   4.550  13.644
   79SLPC   C27 7269   6.764   4.461  13.514
   79SLPC   H7R 7270   6.662   4.480  13.545
   79SLPC   H7S 7271   6.761   4.359  13.473
   79SLPC   C28 7272   6.814   4.577  13.434
   79SLPC   H8R 7273   6.837   4.664  13.499
   79SLPC   H8S 7274   6.736   4.617  13.367
   79SLPC   C29 7275   6.918   4.478  13.386
   79SLPC   H9R 7276   7.009   4.483  13.453
   79SLPC  C210 7277   6.948   4.484  13.260
   79SLPC  H10R 7278   7.066   4.468  13.255
   79SLPC  C211 7279   6.868   4.613  13.190
   79SLPC  H11R 7280   6.769   4.582  13.168
   79SLPC  H11S 7281   6.944   4.539  13.155
   79SLPC  C212 7282   6.900   4.783  13.136
   79SLPC  H12R 7283   6.808   4.831  13.161
   79SLPC  C213 7284   7.031   4.863  13.065
   79SLPC  H13R 7285   7.041   4.959  13.092
   79SLPC  C214 7286   7.201   4.819  13.006
   79SLPC  H14R 7287   7.252   4.713  13.024
   79SLPC  H14S 7288   7.282   4.816  13.084
   79SLPC  C215 7289   7.269   4.780  12.874
   79SLPC  H15R 7290   7.379   4.761  12.894
   79SLPC  H15S 7291   7.256   4.870  12.818
   79SLPC  C216 7292   7.221   4.653  12.808
   79SLPC  H16R 7293   7.114   4.638  12.789
   79SLPC  H16S 7294   7.238   4.560  12.864
   79SLPC  C217 7295   7.212   4.667  12.665
   79SLPC  H17R 7296   7.162   4.576  12.623
   79SLPC  H17S 7297   7.315   4.681  12.630
   79SLPC  C218 7298   7.128   4.786  12.627
   79SLPC  H18R 7299   7.111   4.750  12.525
   79SLPC  H18S 7300   7.184   4.883  12.634
   79SLPC  H18T 7301   7.023   4.805  12.654
   79SLPC   C33 7302   7.343   4.556  13.872
   79SLPC   H3X 7303   7.262   4.485  13.858
   79SLPC   H3Y 7304   7.448   4.517  13.872
   79SLPC   C34 7305   7.347   4.629  13.747
   79SLPC   H4X 7306   7.419   4.703  13.714
   79SLPC   H4Y 7307   7.280   4.694  13.791
   79SLPC   C35 7308   7.299   4.555  13.631
   79SLPC   H5X 7309   7.289   4.616  13.546
   79SLPC   H5Y 7310   7.198   4.517  13.637
   79SLPC   C36 7311   7.410   4.511  13.547
   79SLPC   H6X 7312   7.472   4.451  13.612
   79SLPC   H6Y 7313   7.471   4.597  13.516
   79SLPC   C37 7314   7.366   4.484  13.403
   79SLPC   H7X 7315   7.446   4.494  13.334
   79SLPC   H7Y 7316   7.312   4.565  13.354
   79SLPC   C38 7317   7.283   4.362  13.389
   79SLPC   H8X 7318   7.253   4.362  13.283
   79SLPC   H8Y 7319   7.196   4.384  13.454
   79SLPC   C39 7320   7.354   4.233  13.428
   79SLPC   H9X 7321   7.385   4.245  13.534
   79SLPC   H9Y 7322   7.449   4.222  13.369
   79SLPC  C310 7323   7.269   4.106  13.404
   79SLPC  H10X 7324   7.323   4.021  13.448
   79SLPC  H10Y 7325   7.260   4.088  13.294
   79SLPC  C311 7326   7.127   4.102  13.465
   79SLPC  H11X 7327   7.071   4.191  13.430
   79SLPC  H11Y 7328   7.141   4.111  13.575
   79SLPC  C312 7329   7.048   3.971  13.436
   79SLPC  H12X 7330   7.094   3.883  13.487
   79SLPC  H12Y 7331   7.046   3.949  13.328
   79SLPC  C313 7332   6.903   3.969  13.482
   79SLPC  H13X 7333   6.889   4.021  13.580
   79SLPC  H13Y 7334   6.861   3.866  13.492
   79SLPC  C314 7335   6.816   4.033  13.377
   79SLPC  H14X 7336   6.852   4.137  13.357
   79SLPC  H14Y 7337   6.723   4.027  13.437
   79SLPC  C315 7338   6.768   3.964  13.250
   79SLPC  H15X 7339   6.675   3.906  13.271
   79SLPC  H15Y 7340   6.849   3.892  13.230
   79SLPC  C316 7341   6.750   4.060  13.129
   79SLPC  H16X 7342   6.825   4.141  13.130
   79SLPC  H16Y 7343   6.652   4.102  13.106
   79SLPC  C317 7344   6.760   3.990  12.999
   79SLPC  H17X 7345   6.685   3.907  12.996
   79SLPC  H17Y 7346   6.866   3.964  13.005
   79SLPC  C318 7347   6.758   4.063  12.869
   79SLPC  H18X 7348   6.742   3.989  12.787
   79SLPC  H18Y 7349   6.859   4.108  12.855
   79SLPC  H18Z 7350   6.679   4.140  12.868
   80SLPC     N 7351   5.786  -0.066  14.308
   80SLPC   C13 7352   5.852   0.039  14.365
   80SLPC  H13A 7353   5.847   0.104  14.281
   80SLPC  H13B 7354   5.799   0.092  14.446
   80SLPC  H13C 7355   5.959   0.051  14.381
   80SLPC   C14 7356   5.802  -0.156  14.423
   80SLPC  H14A 7357   5.907  -0.167  14.445
   80SLPC  H14B 7358   5.759  -0.113  14.515
   80SLPC  H14C 7359   5.772  -0.255  14.411
   80SLPC   C15 7360   5.851  -0.084  14.177
   80SLPC  H15A 7361   5.813  -0.173  14.137
   80SLPC  H15B 7362   5.854   0.004  14.114
   80SLPC  H15C 7363   5.954  -0.113  14.186
   80SLPC   C12 7364   5.647  -0.034  14.275
   80SLPC  H12A 7365   5.608  -0.121  14.226
   80SLPC  H12B 7366   5.637   0.052  14.209
   80SLPC   C11 7367   5.569  -0.008  14.396
   80SLPC  H11A 7368   5.579  -0.100  14.458
   80SLPC  H11B 7369   5.463   0.005  14.361
   80SLPC     P 7370   5.538   0.174  14.566
   80SLPC   O13 7371   5.409   0.133  14.528
   80SLPC   O14 7372   5.591   0.160  14.704
   80SLPC   O12 7373   5.623   0.105  14.463
   80SLPC   O11 7374   5.519   0.320  14.530
   80SLPC    C1 7375   5.617   0.407  14.495
   80SLPC    HA 7376   5.631   0.489  14.566
   80SLPC    HB 7377   5.708   0.361  14.503
   80SLPC    C2 7378   5.593   0.451  14.356
   80SLPC    HS 7379   5.499   0.508  14.360
   80SLPC   O21 7380   5.602   0.334  14.270
   80SLPC   C21 7381   5.505   0.338  14.184
   80SLPC   O22 7382   5.430   0.430  14.179
   80SLPC   C22 7383   5.505   0.227  14.082
   80SLPC   H2R 7384   5.605   0.185  14.076
   80SLPC   H2S 7385   5.428   0.152  14.111
   80SLPC    C3 7386   5.698   0.552  14.321
   80SLPC    HX 7387   5.781   0.496  14.352
   80SLPC    HY 7388   5.704   0.641  14.385
   80SLPC   O31 7389   5.685   0.575  14.182
   80SLPC   C31 7390   5.774   0.536  14.095
   80SLPC   O32 7391   5.892   0.513  14.112
   80SLPC   C32 7392   5.713   0.564  13.964
   80SLPC   H2X 7393   5.673   0.665  13.977
   80SLPC   H2Y 7394   5.622   0.518  13.926
   80SLPC   C23 7395   5.474   0.276  13.939
   80SLPC   H3R 7396   5.554   0.338  13.895
   80SLPC   H3S 7397   5.407   0.357  13.945
   80SLPC   C24 7398   5.413   0.167  13.850
   80SLPC   H4R 7399   5.341   0.195  13.770
   80SLPC   H4S 7400   5.352   0.096  13.908
   80SLPC   C25 7401   5.533   0.120  13.772
   80SLPC   H5R 7402   5.597   0.067  13.844
   80SLPC   H5S 7403   5.583   0.213  13.735
   80SLPC   C26 7404   5.505   0.048  13.641
   80SLPC   H6R 7405   5.599   0.017  13.593
   80SLPC   H6S 7406   5.449   0.111  13.572
   80SLPC   C27 7407   5.421  -0.070  13.661
   80SLPC   H7R 7408   5.322  -0.049  13.704
   80SLPC   H7S 7409   5.474  -0.105  13.749
   80SLPC   C28 7410   5.420  -0.178  13.552
   80SLPC   H8R 7411   5.362  -0.269  13.574
   80SLPC   H8S 7412   5.526  -0.207  13.543
   80SLPC   C29 7413   5.354  -0.185  13.425
   80SLPC   H9R 7414   5.250  -0.186  13.423
   80SLPC  C210 7415   5.407  -0.139  13.317
   80SLPC  H10R 7416   5.357  -0.123  13.220
   80SLPC  C211 7417   5.528  -0.078  13.311
   80SLPC  H11R 7418   5.519  -0.171  13.255
   80SLPC  H11S 7419   5.582  -0.091  13.405
   80SLPC  C212 7420   5.575   0.035  13.229
   80SLPC  H12R 7421   5.491   0.084  13.182
   80SLPC  C213 7422   5.697   0.066  13.184
   80SLPC  H13R 7423   5.694   0.139  13.104
   80SLPC  C214 7424   5.833  -0.002  13.197
   80SLPC  H14R 7425   5.847  -0.104  13.228
   80SLPC  H14S 7426   5.914   0.041  13.255
   80SLPC  C215 7427   5.866  -0.035  13.058
   80SLPC  H15R 7428   5.811  -0.094  12.983
   80SLPC  H15S 7429   5.933  -0.116  13.068
   80SLPC  C216 7430   5.879   0.088  12.987
   80SLPC  H16R 7431   5.899   0.170  13.043
   80SLPC  H16S 7432   5.782   0.105  12.939
   80SLPC  C217 7433   5.988   0.078  12.905
   80SLPC  H17R 7434   5.943  -0.012  12.869
   80SLPC  H17S 7435   6.093   0.060  12.920
   80SLPC  C218 7436   6.016   0.171  12.817
   80SLPC  H18R 7437   6.019   0.261  12.846
   80SLPC  H18S 7438   5.937   0.234  12.775
   80SLPC  H18T 7439   6.087   0.129  12.736
   80SLPC   C33 7440   5.819   0.543  13.861
   80SLPC   H3X 7441   5.928   0.566  13.885
   80SLPC   H3Y 7442   5.800   0.601  13.771
   80SLPC   C34 7443   5.768   0.439  13.771
   80SLPC   H4X 7444   5.668   0.430  13.738
   80SLPC   H4Y 7445   5.793   0.379  13.859
   80SLPC   C35 7446   5.828   0.445  13.636
   80SLPC   H5X 7447   5.909   0.461  13.701
   80SLPC   H5Y 7448   5.842   0.543  13.591
   80SLPC   C36 7449   5.842   0.327  13.542
   80SLPC   H6X 7450   5.863   0.218  13.546
   80SLPC   H6Y 7451   5.944   0.311  13.548
   80SLPC   C37 7452   5.780   0.364  13.420
   80SLPC   H7X 7453   5.681   0.365  13.469
   80SLPC   H7Y 7454   5.798   0.276  13.353
   80SLPC   C38 7455   5.821   0.500  13.359
   80SLPC   H8X 7456   5.925   0.522  13.334
   80SLPC   H8Y 7457   5.803   0.588  13.421
   80SLPC   C39 7458   5.762   0.495  13.225
   80SLPC   H9X 7459   5.801   0.417  13.157
   80SLPC   H9Y 7460   5.786   0.584  13.173
   80SLPC  C310 7461   5.618   0.475  13.244
   80SLPC  H10X 7462   5.588   0.549  13.322
   80SLPC  H10Y 7463   5.594   0.372  13.277
   80SLPC  C311 7464   5.549   0.497  13.114
   80SLPC  H11X 7465   5.604   0.558  13.040
   80SLPC  H11Y 7466   5.455   0.544  13.146
   80SLPC  C312 7467   5.540   0.377  13.030
   80SLPC  H12X 7468   5.461   0.312  13.074
   80SLPC  H12Y 7469   5.638   0.326  13.043
   80SLPC  C313 7470   5.528   0.416  12.881
   80SLPC  H13X 7471   5.621   0.451  12.836
   80SLPC  H13Y 7472   5.468   0.500  12.844
   80SLPC  C314 7473   5.461   0.302  12.819
   80SLPC  H14X 7474   5.448   0.338  12.713
   80SLPC  H14Y 7475   5.360   0.257  12.841
   80SLPC  C315 7476   5.561   0.205  12.855
   80SLPC  H15X 7477   5.551   0.135  12.945
   80SLPC  H15Y 7478   5.667   0.240  12.848
   80SLPC  C316 7479   5.515   0.153  12.732
   80SLPC  H16X 7480   5.458   0.059  12.754
   80SLPC  H16Y 7481   5.559   0.058  12.780
   80SLPC  C317 7482   5.587   0.239  12.571
   80SLPC  H17X 7483   5.670   0.309  12.589
   80SLPC  H17Y 7484   5.519   0.305  12.532
   80SLPC  C318 7485   5.697   0.185  12.441
   80SLPC  H18X 7486   5.612   0.149  12.405
   80SLPC  H18Y 7487   5.708   0.079  12.408
   80SLPC  H18Z 7488   5.771   0.093  12.442
   81SLPC     N 7489   4.230   3.820  10.811
   81SLPC   C13 7490   4.205   3.960  10.775
   81SLPC  H13A 7491   4.104   3.968  10.739
   81SLPC  H13B 7492   4.220   4.019  10.865
   81SLPC  H13C 7493   4.279   3.991  10.703
   81SLPC   C14 7494   4.364   3.828  10.856
   81SLPC  H14A 7495   4.368   3.890  10.947
   81SLPC  H14B 7496   4.380   3.728  10.893
   81SLPC  H14C 7497   4.445   3.853  10.788
   81SLPC   C15 7498   4.240   3.723  10.699
   81SLPC  H15A 7499   4.277   3.628  10.736
   81SLPC  H15B 7500   4.145   3.712  10.652
   81SLPC  H15C 7501   4.317   3.757  10.628
   81SLPC   C12 7502   4.134   3.767  10.918
   81SLPC  H12A 7503   4.175   3.677  10.964
   81SLPC  H12B 7504   4.048   3.736  10.861
   81SLPC   C11 7505   4.080   3.860  11.032
   81SLPC  H11A 7506   3.989   3.810  11.073
   81SLPC  H11B 7507   4.051   3.959  10.992
   81SLPC     P 7508   4.133   3.934  11.284
   81SLPC   O13 7509   4.004   4.005  11.285
   81SLPC   O14 7510   4.160   3.824  11.379
   81SLPC   O12 7511   4.172   3.883  11.136
   81SLPC   O11 7512   4.236   4.048  11.313
   81SLPC    C1 7513   4.360   4.017  11.262
   81SLPC    HA 7514   4.397   3.915  11.295
   81SLPC    HB 7515   4.355   4.031  11.151
   81SLPC    C2 7516   4.465   4.103  11.316
   81SLPC    HS 7517   4.561   4.101  11.265
   81SLPC   O21 7518   4.466   4.055  11.451
   81SLPC   C21 7519   4.584   4.076  11.489
   81SLPC   O22 7520   4.650   4.165  11.440
   81SLPC   C22 7521   4.616   3.986  11.601
   81SLPC   H2R 7522   4.615   3.879  11.583
   81SLPC   H2S 7523   4.720   3.990  11.633
   81SLPC    C3 7524   4.438   4.246  11.290
   81SLPC    HX 7525   4.403   4.262  11.186
   81SLPC    HY 7526   4.539   4.290  11.282
   81SLPC   O31 7527   4.362   4.289  11.398
   81SLPC   C31 7528   4.244   4.330  11.369
   81SLPC   O32 7529   4.201   4.354  11.257
   81SLPC   C32 7530   4.191   4.376  11.502
   81SLPC   H2X 7531   4.161   4.476  11.487
   81SLPC   H2Y 7532   4.260   4.404  11.581
   81SLPC   C23 7533   4.504   4.021  11.696
   81SLPC   H3R 7534   4.411   3.972  11.668
   81SLPC   H3S 7535   4.476   4.131  11.690
   81SLPC   C24 7536   4.529   3.963  11.828
   81SLPC   H4R 7537   4.595   3.874  11.850
   81SLPC   H4S 7538   4.443   3.976  11.894
   81SLPC   C25 7539   4.604   4.059  11.879
   81SLPC   H5R 7540   4.716   4.029  11.861
   81SLPC   H5S 7541   4.689   4.003  11.942
   81SLPC   C26 7542   4.522   4.236  11.919
   81SLPC   H6R 7543   4.544   4.324  11.858
   81SLPC   H6S 7544   4.581   4.318  11.971
   81SLPC   C27 7545   4.434   4.295  12.041
   81SLPC   H7R 7546   4.504   4.270  12.122
   81SLPC   H7S 7547   4.356   4.229  12.025
   81SLPC   C28 7548   4.437   4.375  12.176
   81SLPC   H8R 7549   4.394   4.453  12.126
   81SLPC   H8S 7550   4.515   4.434  12.228
   81SLPC   C29 7551   4.324   4.374  12.257
   81SLPC   H9R 7552   4.232   4.354  12.210
   81SLPC  C210 7553   4.349   4.367  12.379
   81SLPC  H10R 7554   4.271   4.366  12.452
   81SLPC  C211 7555   4.486   4.358  12.426
   81SLPC  H11R 7556   4.591   4.351  12.379
   81SLPC  H11S 7557   4.467   4.267  12.463
   81SLPC  C212 7558   4.495   4.423  12.538
   81SLPC  H12R 7559   4.568   4.489  12.506
   81SLPC  C213 7560   4.424   4.419  12.644
   81SLPC  H13R 7561   4.462   4.494  12.697
   81SLPC  C214 7562   4.303   4.343  12.681
   81SLPC  H14R 7563   4.318   4.245  12.634
   81SLPC  H14S 7564   4.226   4.406  12.631
   81SLPC  C215 7565   4.244   4.319  12.819
   81SLPC  H15R 7566   4.141   4.283  12.819
   81SLPC  H15S 7567   4.228   4.407  12.882
   81SLPC  C216 7568   4.323   4.230  12.902
   81SLPC  H16R 7569   4.429   4.258  12.873
   81SLPC  H16S 7570   4.345   4.134  12.859
   81SLPC  C217 7571   4.259   4.248  13.049
   81SLPC  H17R 7572   4.246   4.347  13.094
   81SLPC  H17S 7573   4.318   4.223  13.134
   81SLPC  C218 7574   4.137   4.180  13.095
   81SLPC  H18R 7575   4.153   4.078  13.055
   81SLPC  H18S 7576   4.059   4.247  13.056
   81SLPC  H18T 7577   4.142   4.184  13.209
   81SLPC   C33 7578   4.109   4.268  11.563
   81SLPC   H3X 7579   4.171   4.174  11.561
   81SLPC   H3Y 7580   4.020   4.256  11.499
   81SLPC   C34 7581   4.074   4.282  11.709
   81SLPC   H4X 7582   4.003   4.358  11.736
   81SLPC   H4Y 7583   4.158   4.302  11.777
   81SLPC   C35 7584   3.977   4.173  11.739
   81SLPC   H5X 7585   4.023   4.074  11.727
   81SLPC   H5Y 7586   3.892   4.182  11.666
   81SLPC   C36 7587   3.924   4.188  11.878
   81SLPC   H6X 7588   3.869   4.095  11.875
   81SLPC   H6Y 7589   3.845   4.263  11.882
   81SLPC   C37 7590   4.023   4.183  11.993
   81SLPC   H7X 7591   3.975   4.210  12.090
   81SLPC   H7Y 7592   4.103   4.258  11.975
   81SLPC   C38 7593   4.083   4.042  12.003
   81SLPC   H8X 7594   4.132   4.020  11.905
   81SLPC   H8Y 7595   4.005   3.967  12.025
   81SLPC   C39 7596   4.187   4.031  12.110
   81SLPC   H9X 7597   4.236   4.127  12.097
   81SLPC   H9Y 7598   4.262   3.950  12.091
   81SLPC  C310 7599   4.133   4.020  12.252
   81SLPC  H10X 7600   4.054   3.944  12.255
   81SLPC  H10Y 7601   4.098   4.121  12.283
   81SLPC  C311 7602   4.234   3.970  12.350
   81SLPC  H11X 7603   4.263   4.070  12.390
   81SLPC  H11Y 7604   4.310   3.909  12.294
   81SLPC  C312 7605   4.202   3.899  12.479
   81SLPC  H12X 7606   4.178   3.795  12.448
   81SLPC  H12Y 7607   4.121   3.958  12.524
   81SLPC  C313 7608   4.315   3.887  12.579
   81SLPC  H13X 7609   4.281   3.837  12.672
   81SLPC  H13Y 7610   4.349   3.988  12.609
   81SLPC  C314 7611   4.418   3.797  12.509
   81SLPC  H14X 7612   4.445   3.840  12.414
   81SLPC  H14Y 7613   4.381   3.696  12.492
   81SLPC  C315 7614   4.531   3.739  12.578
   81SLPC  H15X 7615   4.495   3.712  12.680
   81SLPC  H15Y 7616   4.610   3.787  12.611
   81SLPC  C316 7617   4.688   3.728  12.538
   81SLPC  H16X 7618   4.739   3.777  12.458
   81SLPC  H16Y 7619   4.652   3.660  12.462
   81SLPC  C317 7620   4.798   3.724  12.657
   81SLPC  H17X 7621   4.853   3.633  12.633
   81SLPC  H17Y 7622   4.751   3.702  12.750
   81SLPC  C318 7623   4.877   3.840  12.729
   81SLPC  H18X 7624   4.831   3.897  12.811
   81SLPC  H18Y 7625   4.903   3.904  12.645
   81SLPC  H18Z 7626   4.967   3.800  12.782
   82SLPC     N 7627   3.045   3.251  10.909
   82SLPC   C13 7628   3.118   3.253  11.040
   82SLPC  H13A 7629   3.158   3.156  11.067
   82SLPC  H13B 7630   3.195   3.328  11.044
   82SLPC  H13C 7631   3.045   3.277  11.118
   82SLPC   C14 7632   2.943   3.141  10.921
   82SLPC  H14A 7633   2.864   3.148  10.848
   82SLPC  H14B 7634   2.995   3.046  10.908
   82SLPC  H14C 7635   2.899   3.140  11.020
   82SLPC   C15 7636   3.136   3.210  10.798
   82SLPC  H15A 7637   3.174   3.109  10.814
   82SLPC  H15B 7638   3.080   3.209  10.705
   82SLPC  H15C 7639   3.218   3.280  10.788
   82SLPC   C12 7640   2.985   3.388  10.878
   82SLPC  H12A 7641   2.944   3.381  10.777
   82SLPC  H12B 7642   3.062   3.464  10.874
   82SLPC   C11 7643   2.874   3.451  10.966
   82SLPC  H11A 7644   2.791   3.383  10.954
   82SLPC  H11B 7645   2.842   3.547  10.919
   82SLPC     P 7646   2.809   3.557  11.197
   82SLPC   O13 7647   2.717   3.631  11.108
   82SLPC   O14 7648   2.749   3.487  11.312
   82SLPC   O12 7649   2.905   3.464  11.107
   82SLPC   O11 7650   2.916   3.641  11.273
   82SLPC    C1 7651   2.858   3.725  11.371
   82SLPC    HA 7652   2.831   3.801  11.304
   82SLPC    HB 7653   2.764   3.695  11.425
   82SLPC    C2 7654   2.957   3.769  11.474
   82SLPC    HS 7655   3.055   3.781  11.424
   82SLPC   O21 7656   2.962   3.677  11.578
   82SLPC   C21 7657   3.015   3.564  11.550
   82SLPC   O22 7658   3.090   3.535  11.458
   82SLPC   C22 7659   2.989   3.482  11.672
   82SLPC   H2R 7660   3.063   3.400  11.668
   82SLPC   H2S 7661   2.997   3.546  11.763
   82SLPC    C3 7662   2.921   3.898  11.542
   82SLPC    HX 7663   2.924   3.979  11.474
   82SLPC    HY 7664   3.003   3.908  11.616
   82SLPC   O31 7665   2.791   3.899  11.598
   82SLPC   C31 7666   2.792   3.982  11.697
   82SLPC   O32 7667   2.884   4.052  11.734
   82SLPC   C32 7668   2.660   3.984  11.759
   82SLPC   H2X 7669   2.580   3.934  11.701
   82SLPC   H2Y 7670   2.639   4.091  11.745
   82SLPC   C23 7671   2.854   3.419  11.672
   82SLPC   H3R 7672   2.850   3.345  11.755
   82SLPC   H3S 7673   2.852   3.368  11.576
   82SLPC   C24 7674   2.744   3.524  11.691
   82SLPC   H4R 7675   2.740   3.592  11.603
   82SLPC   H4S 7676   2.764   3.581  11.783
   82SLPC   C25 7677   2.610   3.460  11.704
   82SLPC   H5R 7678   2.620   3.374  11.774
   82SLPC   H5S 7679   2.592   3.435  11.598
   82SLPC   C26 7680   2.486   3.544  11.722
   82SLPC   H6R 7681   2.390   3.487  11.717
   82SLPC   H6S 7682   2.481   3.610  11.633
   82SLPC   C27 7683   2.492   3.627  11.846
   82SLPC   H7R 7684   2.423   3.711  11.823
   82SLPC   H7S 7685   2.595   3.657  11.869
   82SLPC   C28 7686   2.435   3.566  11.970
   82SLPC   H8R 7687   2.349   3.511  11.939
   82SLPC   H8S 7688   2.397   3.644  12.038
   82SLPC   C29 7689   2.511   3.464  12.043
   82SLPC   H9R 7690   2.526   3.377  12.003
   82SLPC  C210 7691   2.605   3.451  12.128
   82SLPC  H10R 7692   2.623   3.365  12.191
   82SLPC  C211 7693   2.656   3.566  12.170
   82SLPC  H11R 7694   2.677   3.553  12.278
   82SLPC  H11S 7695   2.562   3.631  12.166
   82SLPC  C212 7696   2.768   3.624  12.088
   82SLPC  H12R 7697   2.751   3.723  12.045
   82SLPC  C213 7698   2.888   3.575  12.080
   82SLPC  H13R 7699   2.958   3.637  12.025
   82SLPC  C214 7700   2.936   3.450  12.148
   82SLPC  H14R 7701   2.992   3.398  12.068
   82SLPC  H14S 7702   2.852   3.383  12.173
   82SLPC  C215 7703   3.029   3.460  12.273
   82SLPC  H15R 7704   3.113   3.532  12.268
   82SLPC  H15S 7705   3.074   3.361  12.291
   82SLPC  C216 7706   2.960   3.506  12.398
   82SLPC  H16R 7707   2.862   3.457  12.409
   82SLPC  H16S 7708   2.945   3.610  12.378
   82SLPC  C217 7709   3.045   3.493  12.524
   82SLPC  H17R 7710   3.118   3.576  12.539
   82SLPC  H17S 7711   3.104   3.400  12.508
   82SLPC  C218 7712   2.954   3.474  12.644
   82SLPC  H18R 7713   2.903   3.568  12.673
   82SLPC  H18S 7714   3.008   3.437  12.730
   82SLPC  H18T 7715   2.879   3.396  12.622
   82SLPC   C33 7716   2.677   3.939  11.907
   82SLPC   H3X 7717   2.674   3.832  11.919
   82SLPC   H3Y 7718   2.573   3.944  11.939
   82SLPC   C34 7719   2.793   4.017  11.991
   82SLPC   H4X 7720   2.811   4.117  11.946
   82SLPC   H4Y 7721   2.875   3.945  12.002
   82SLPC   C35 7722   2.779   4.091  12.128
   82SLPC   H5X 7723   2.759   3.990  12.167
   82SLPC   H5Y 7724   2.699   4.168  12.128
   82SLPC   C36 7725   2.849   4.121  12.259
   82SLPC   H6X 7726   2.862   4.227  12.238
   82SLPC   H6Y 7727   2.937   4.060  12.269
   82SLPC   C37 7728   2.773   4.122  12.397
   82SLPC   H7X 7729   2.664   4.147  12.406
   82SLPC   H7Y 7730   2.836   4.195  12.441
   82SLPC   C38 7731   2.809   4.020  12.504
   82SLPC   H8X 7732   2.900   3.969  12.476
   82SLPC   H8Y 7733   2.725   3.995  12.442
   82SLPC   C39 7734   2.748   3.980  12.642
   82SLPC   H9X 7735   2.701   3.876  12.670
   82SLPC   H9Y 7736   2.667   4.050  12.672
   82SLPC  C310 7737   2.844   3.934  12.730
   82SLPC  H10X 7738   2.784   3.907  12.811
   82SLPC  H10Y 7739   2.845   4.040  12.732
   82SLPC  C311 7740   2.976   3.867  12.700
   82SLPC  H11X 7741   3.027   3.944  12.638
   82SLPC  H11Y 7742   2.963   3.772  12.649
   82SLPC  C312 7743   3.054   3.834  12.829
   82SLPC  H12X 7744   3.052   3.937  12.868
   82SLPC  H12Y 7745   3.163   3.830  12.824
   82SLPC  C313 7746   2.992   3.705  12.907
   82SLPC  H13X 7747   3.033   3.620  12.864
   82SLPC  H13Y 7748   2.894   3.695  12.860
   82SLPC  C314 7749   2.994   3.661  13.066
   82SLPC  H14X 7750   2.941   3.718  13.139
   82SLPC  H14Y 7751   3.084   3.718  13.082
   82SLPC  C315 7752   2.868   3.627  13.171
   82SLPC  H15X 7753   2.886   3.601  13.278
   82SLPC  H15Y 7754   2.898   3.546  13.109
   82SLPC  C316 7755   2.712   3.670  13.172
   82SLPC  H16X 7756   2.665   3.691  13.067
   82SLPC  H16Y 7757   2.688   3.755  13.236
   82SLPC  C317 7758   2.617   3.603  13.241
   82SLPC  H17X 7759   2.504   3.597  13.222
   82SLPC  H17Y 7760   2.677   3.550  13.323
   82SLPC  C318 7761   2.632   3.523  13.145
   82SLPC  H18X 7762   2.725   3.466  13.170
   82SLPC  H18Y 7763   2.594   3.530  13.038
   82SLPC  H18Z 7764   2.578   3.449  13.158
   83SLPC     N 7765   3.752   5.483  10.844
   83SLPC   C13 7766   3.700   5.370  10.763
   83SLPC  H13A 7767   3.679   5.286  10.829
   83SLPC  H13B 7768   3.606   5.398  10.716
   83SLPC  H13C 7769   3.769   5.340  10.685
   83SLPC   C14 7770   3.794   5.591  10.750
   83SLPC  H14A 7771   3.708   5.624  10.692
   83SLPC  H14B 7772   3.835   5.678  10.801
   83SLPC  H14C 7773   3.871   5.551  10.686
   83SLPC   C15 7774   3.873   5.437  10.918
   83SLPC  H15A 7775   3.894   5.504  11.001
   83SLPC  H15B 7776   3.856   5.339  10.962
   83SLPC  H15C 7777   3.957   5.431  10.850
   83SLPC   C12 7778   3.645   5.535  10.941
   83SLPC  H12A 7779   3.572   5.592  10.884
   83SLPC  H12B 7780   3.689   5.606  11.011
   83SLPC   C11 7781   3.564   5.434  11.027
   83SLPC  H11A 7782   3.503   5.368  10.962
   83SLPC  H11B 7783   3.491   5.493  11.088
   83SLPC     P 7784   3.671   5.406  11.258
   83SLPC   O13 7785   3.701   5.550  11.252
   83SLPC   O14 7786   3.559   5.359  11.343
   83SLPC   O12 7787   3.648   5.354  11.109
   83SLPC   O11 7788   3.803   5.330  11.289
   83SLPC    C1 7789   3.821   5.200  11.238
   83SLPC    HA 7790   3.726   5.139  11.240
   83SLPC    HB 7791   3.858   5.198  11.134
   83SLPC    C2 7792   3.917   5.130  11.331
   83SLPC    HS 7793   3.909   5.033  11.288
   83SLPC   O21 7794   3.865   5.155  11.465
   83SLPC   C21 7795   3.912   5.073  11.553
   83SLPC   O22 7796   3.956   4.967  11.530
   83SLPC   C22 7797   3.922   5.116  11.693
   83SLPC   H2R 7798   4.026   5.080  11.722
   83SLPC   H2S 7799   3.909   5.223  11.697
   83SLPC    C3 7800   4.069   5.163  11.327
   83SLPC    HX 7801   4.109   5.136  11.227
   83SLPC    HY 7802   4.123   5.094  11.397
   83SLPC   O31 7803   4.087   5.303  11.351
   83SLPC   C31 7804   4.186   5.344  11.428
   83SLPC   O32 7805   4.269   5.279  11.481
   83SLPC   C32 7806   4.190   5.488  11.456
   83SLPC   H2X 7807   4.243   5.539  11.373
   83SLPC   H2Y 7808   4.253   5.496  11.548
   83SLPC   C23 7809   3.817   5.043  11.775
   83SLPC   H3R 7810   3.877   4.963  11.800
   83SLPC   H3S 7811   3.733   4.993  11.723
   83SLPC   C24 7812   3.798   5.079  11.921
   83SLPC   H4R 7813   3.735   5.000  11.969
   83SLPC   H4S 7814   3.742   5.174  11.915
   83SLPC   C25 7815   3.926   5.095  12.005
   83SLPC   H5R 7816   3.994   5.007  12.001
   83SLPC   H5S 7817   3.890   5.104  12.109
   83SLPC   C26 7818   3.998   5.226  11.977
   83SLPC   H6R 7819   3.916   5.300  11.964
   83SLPC   H6S 7820   4.057   5.226  11.883
   83SLPC   C27 7821   4.084   5.279  12.092
   83SLPC   H7R 7822   4.022   5.280  12.184
   83SLPC   H7S 7823   4.107   5.384  12.061
   83SLPC   C28 7824   4.214   5.203  12.122
   83SLPC   H8R 7825   4.266   5.172  12.029
   83SLPC   H8S 7826   4.188   5.110  12.179
   83SLPC   C29 7827   4.304   5.296  12.199
   83SLPC   H9R 7828   4.310   5.399  12.160
   83SLPC  C210 7829   4.373   5.265  12.308
   83SLPC  H10R 7830   4.438   5.340  12.356
   83SLPC  C211 7831   4.372   5.130  12.370
   83SLPC  H11R 7832   4.474   5.097  12.361
   83SLPC  H11S 7833   4.326   5.047  12.313
   83SLPC  C212 7834   4.321   5.147  12.511
   83SLPC  H12R 7835   4.343   5.242  12.561
   83SLPC  C213 7836   4.266   5.052  12.587
   83SLPC  H13R 7837   4.218   5.075  12.682
   83SLPC  C214 7838   4.246   4.913  12.545
   83SLPC  H14R 7839   4.318   4.887  12.464
   83SLPC  H14S 7840   4.209   4.900  12.449
   83SLPC  C215 7841   4.202   4.803  12.656
   83SLPC  H15R 7842   4.281   4.805  12.733
   83SLPC  H15S 7843   4.213   4.706  12.606
   83SLPC  C216 7844   4.060   4.795  12.740
   83SLPC  H16R 7845   4.061   4.892  12.797
   83SLPC  H16S 7846   4.074   4.702  12.797
   83SLPC  C217 7847   3.905   4.760  12.696
   83SLPC  H17R 7848   3.897   4.868  12.671
   83SLPC  H17S 7849   3.811   4.792  12.743
   83SLPC  C218 7850   3.862   4.644  12.585
   83SLPC  H18R 7851   3.924   4.633  12.494
   83SLPC  H18S 7852   3.783   4.669  12.509
   83SLPC  H18T 7853   3.902   4.545  12.605
   83SLPC   C33 7854   4.050   5.530  11.485
   83SLPC   H3X 7855   4.007   5.473  11.571
   83SLPC   H3Y 7856   3.983   5.514  11.396
   83SLPC   C34 7857   4.048   5.674  11.518
   83SLPC   H4X 7858   4.117   5.723  11.451
   83SLPC   H4Y 7859   4.090   5.697  11.618
   83SLPC   C35 7860   3.906   5.715  11.495
   83SLPC   H5X 7861   3.857   5.676  11.404
   83SLPC   H5Y 7862   3.910   5.821  11.461
   83SLPC   C36 7863   3.831   5.666  11.621
   83SLPC   H6X 7864   3.749   5.726  11.654
   83SLPC   H6Y 7865   3.900   5.662  11.707
   83SLPC   C37 7866   3.728   5.555  11.612
   83SLPC   H7X 7867   3.782   5.467  11.573
   83SLPC   H7Y 7868   3.651   5.587  11.538
   83SLPC   C38 7869   3.647   5.533  11.742
   83SLPC   H8X 7870   3.587   5.442  11.722
   83SLPC   H8Y 7871   3.575   5.617  11.762
   83SLPC   C39 7872   3.729   5.514  11.870
   83SLPC   H9X 7873   3.798   5.600  11.885
   83SLPC   H9Y 7874   3.788   5.423  11.850
   83SLPC  C310 7875   3.638   5.499  11.993
   83SLPC  H10X 7876   3.551   5.436  11.966
   83SLPC  H10Y 7877   3.599   5.599  12.024
   83SLPC  C311 7878   3.705   5.433  12.113
   83SLPC  H11X 7879   3.801   5.484  12.139
   83SLPC  H11Y 7880   3.725   5.327  12.086
   83SLPC  C312 7881   3.623   5.440  12.242
   83SLPC  H12X 7882   3.538   5.369  12.233
   83SLPC  H12Y 7883   3.581   5.541  12.257
   83SLPC  C313 7884   3.706   5.408  12.364
   83SLPC  H13X 7885   3.653   5.430  12.460
   83SLPC  H13Y 7886   3.802   5.462  12.371
   83SLPC  C314 7887   3.737   5.262  12.365
   83SLPC  H14X 7888   3.798   5.232  12.276
   83SLPC  H14Y 7889   3.650   5.205  12.341
   83SLPC  C315 7890   3.812   5.245  12.496
   83SLPC  H15X 7891   3.881   5.328  12.514
   83SLPC  H15Y 7892   3.891   5.197  12.455
   83SLPC  C316 7893   3.759   5.194  12.632
   83SLPC  H16X 7894   3.683   5.268  12.662
   83SLPC  H16Y 7895   3.841   5.195  12.706
   83SLPC  C317 7896   3.697   5.058  12.656
   83SLPC  H17X 7897   3.751   4.969  12.678
   83SLPC  H17Y 7898   3.671   5.024  12.554
   83SLPC  C318 7899   3.592   5.062  12.773
   83SLPC  H18X 7900   3.553   4.959  12.794
   83SLPC  H18Y 7901   3.504   5.124  12.748
   83SLPC  H18Z 7902   3.615   5.119  12.860
   84SLPC     N 7903   1.114   2.425  10.822
   84SLPC   C13 7904   1.149   2.565  10.825
   84SLPC  H13A 7905   1.071   2.602  10.759
   84SLPC  H13B 7906   1.124   2.611  10.922
   84SLPC  H13C 7907   1.240   2.612  10.790
   84SLPC   C14 7908   1.217   2.375  10.904
   84SLPC  H14A 7909   1.198   2.408  11.009
   84SLPC  H14B 7910   1.226   2.268  10.914
   84SLPC  H14C 7911   1.311   2.421  10.876
   84SLPC   C15 7912   1.120   2.399  10.678
   84SLPC  H15A 7913   1.035   2.449  10.631
   84SLPC  H15B 7914   1.210   2.448  10.641
   84SLPC  H15C 7915   1.115   2.294  10.658
   84SLPC   C12 7916   0.978   2.387  10.883
   84SLPC  H12A 7917   0.971   2.278  10.877
   84SLPC  H12B 7918   0.902   2.432  10.822
   84SLPC   C11 7919   0.948   2.413  11.033
   84SLPC  H11A 7920   0.841   2.393  11.052
   84SLPC  H11B 7921   0.963   2.519  11.059
   84SLPC     P 7922   1.038   2.348  11.273
   84SLPC   O13 7923   1.112   2.233  11.332
   84SLPC   O14 7924   1.089   2.484  11.300
   84SLPC   O12 7925   1.028   2.330  11.115
   84SLPC   O11 7926   0.884   2.331  11.310
   84SLPC    C1 7927   0.800   2.442  11.323
   84SLPC    HA 7928   0.841   2.531  11.268
   84SLPC    HB 7929   0.698   2.420  11.282
   84SLPC    C2 7930   0.791   2.483  11.469
   84SLPC    HS 7931   0.729   2.570  11.457
   84SLPC   O21 7932   0.923   2.513  11.514
   84SLPC   C21 7933   0.946   2.591  11.608
   84SLPC   O22 7934   0.874   2.664  11.674
   84SLPC   C22 7935   1.064   2.590  11.680
   84SLPC   H2R 7936   1.142   2.549  11.616
   84SLPC   H2S 7937   1.087   2.699  11.704
   84SLPC    C3 7938   0.725   2.374  11.558
   84SLPC    HX 7939   0.799   2.292  11.555
   84SLPC    HY 7940   0.630   2.339  11.512
   84SLPC   O31 7941   0.707   2.410  11.697
   84SLPC   C31 7942   0.594   2.468  11.732
   84SLPC   O32 7943   0.502   2.499  11.658
   84SLPC   C32 7944   0.604   2.502  11.882
   84SLPC   H2X 7945   0.699   2.551  11.909
   84SLPC   H2Y 7946   0.626   2.408  11.927
   84SLPC   C23 7947   0.997   2.525  11.808
   84SLPC   H3R 7948   0.931   2.559  11.888
   84SLPC   H3S 7949   1.052   2.598  11.867
   84SLPC   C24 7950   1.001   2.369  11.818
   84SLPC   H4R 7951   1.068   2.327  11.739
   84SLPC   H4S 7952   0.897   2.338  11.798
   84SLPC   C25 7953   1.024   2.292  11.952
   84SLPC   H5R 7954   1.115   2.252  11.988
   84SLPC   H5S 7955   1.029   2.186  11.922
   84SLPC   C26 7956   1.003   2.350  12.093
   84SLPC   H6R 7957   1.004   2.459  12.112
   84SLPC   H6S 7958   1.059   2.300  12.177
   84SLPC   C27 7959   0.879   2.295  12.122
   84SLPC   H7R 7960   0.820   2.350  12.044
   84SLPC   H7S 7961   0.852   2.332  12.221
   84SLPC   C28 7962   0.897   2.138  12.102
   84SLPC   H8R 7963   0.887   2.103  11.998
   84SLPC   H8S 7964   0.809   2.101  12.113
   84SLPC   C29 7965   0.970   2.044  12.194
   84SLPC   H9R 7966   1.061   2.011  12.153
   84SLPC  C210 7967   0.938   1.994  12.316
   84SLPC  H10R 7968   0.995   1.915  12.364
   84SLPC  C211 7969   0.840   2.038  12.406
   84SLPC  H11R 7970   0.853   1.971  12.499
   84SLPC  H11S 7971   0.766   1.946  12.375
   84SLPC  C212 7972   0.753   2.176  12.405
   84SLPC  H12R 7973   0.660   2.192  12.375
   84SLPC  C213 7974   0.749   2.293  12.459
   84SLPC  H13R 7975   0.632   2.330  12.466
   84SLPC  C214 7976   0.828   2.275  12.572
   84SLPC  H14R 7977   0.864   2.378  12.553
   84SLPC  H14S 7978   0.913   2.202  12.568
   84SLPC  C215 7979   0.747   2.262  12.686
   84SLPC  H15R 7980   0.835   2.256  12.749
   84SLPC  H15S 7981   0.703   2.170  12.721
   84SLPC  C216 7982   0.648   2.375  12.686
   84SLPC  H16R 7983   0.544   2.346  12.651
   84SLPC  H16S 7984   0.673   2.478  12.656
   84SLPC  C217 7985   0.660   2.412  12.819
   84SLPC  H17R 7986   0.597   2.328  12.840
   84SLPC  H17S 7987   0.574   2.478  12.838
   84SLPC  C218 7988   0.801   2.402  12.905
   84SLPC  H18R 7989   0.818   2.489  12.965
   84SLPC  H18S 7990   0.834   2.301  12.932
   84SLPC  H18T 7991   0.805   2.360  13.006
   84SLPC   C33 7992   0.476   2.557  11.946
   84SLPC   H3X 7993   0.455   2.524  12.049
   84SLPC   H3Y 7994   0.386   2.545  11.880
   84SLPC   C34 7995   0.486   2.701  11.964
   84SLPC   H4X 7996   0.388   2.743  11.989
   84SLPC   H4Y 7997   0.462   2.726  11.859
   84SLPC   C35 7998   0.616   2.751  12.043
   84SLPC   H5X 7999   0.628   2.866  12.029
   84SLPC   H5Y 8000   0.722   2.735  12.020
   84SLPC   C36 8001   0.600   2.744  12.180
   84SLPC   H6X 8002   0.488   2.745  12.197
   84SLPC   H6Y 8003   0.650   2.844  12.208
   84SLPC   C37 8004   0.659   2.633  12.252
   84SLPC   H7X 8005   0.764   2.644  12.217
   84SLPC   H7Y 8006   0.609   2.547  12.205
   84SLPC   C38 8007   0.646   2.628  12.407
   84SLPC   H8X 8008   0.713   2.544  12.431
   84SLPC   H8Y 8009   0.546   2.608  12.446
   84SLPC   C39 8010   0.706   2.737  12.492
   84SLPC   H9X 8011   0.714   2.721  12.599
   84SLPC   H9Y 8012   0.649   2.823  12.517
   84SLPC  C310 8013   0.825   2.776  12.414
   84SLPC  H10X 8014   0.863   2.867  12.430
   84SLPC  H10Y 8015   0.792   2.825  12.324
   84SLPC  C311 8016   0.952   2.704  12.445
   84SLPC  H11X 8017   1.047   2.758  12.423
   84SLPC  H11Y 8018   0.944   2.619  12.378
   84SLPC  C312 8019   0.965   2.671  12.592
   84SLPC  H12X 8020   0.871   2.643  12.640
   84SLPC  H12Y 8021   0.994   2.758  12.650
   84SLPC  C313 8022   1.060   2.557  12.610
   84SLPC  H13X 8023   1.166   2.590  12.609
   84SLPC  H13Y 8024   1.039   2.476  12.538
   84SLPC  C314 8025   1.021   2.487  12.735
   84SLPC  H14X 8026   0.916   2.473  12.730
   84SLPC  H14Y 8027   1.018   2.572  12.809
   84SLPC  C315 8028   1.093   2.348  12.761
   84SLPC  H15X 8029   1.201   2.353  12.746
   84SLPC  H15Y 8030   1.080   2.281  12.676
   84SLPC  C316 8031   1.085   2.287  12.906
   84SLPC  H16X 8032   0.995   2.228  12.903
   84SLPC  H16Y 8033   1.067   2.355  12.992
   84SLPC  C317 8034   1.202   2.204  12.960
   84SLPC  H17X 8035   1.303   2.239  12.985
   84SLPC  H17Y 8036   1.225   2.129  12.887
   84SLPC  C318 8037   1.157   2.134  13.082
   84SLPC  H18X 8038   1.234   2.053  13.095
   84SLPC  H18Y 8039   1.058   2.092  13.054
   84SLPC  H18Z 8040   1.145   2.185  13.179
   85SLPC     N 8041   6.972   4.624  11.011
   85SLPC   C13 8042   7.088   4.544  11.046
   85SLPC  H13A 8043   7.084   4.460  11.114
   85SLPC  H13B 8044   7.121   4.500  10.952
   85SLPC  H13C 8045   7.173   4.605  11.077
   85SLPC   C14 8046   6.871   4.532  10.956
   85SLPC  H14A 8047   6.889   4.511  10.851
   85SLPC  H14B 8048   6.868   4.441  11.013
   85SLPC  H14C 8049   6.776   4.584  10.959
   85SLPC   C15 8050   6.994   4.729  10.906
   85SLPC  H15A 8051   6.944   4.822  10.933
   85SLPC  H15B 8052   7.096   4.760  10.905
   85SLPC  H15C 8053   6.978   4.696  10.805
   85SLPC   C12 8054   6.936   4.697  11.136
   85SLPC  H12A 8055   7.009   4.777  11.146
   85SLPC  H12B 8056   6.947   4.629  11.219
   85SLPC   C11 8057   6.804   4.774  11.139
   85SLPC  H11A 8058   6.794   4.816  11.242
   85SLPC  H11B 8059   6.720   4.712  11.121
   85SLPC     P 8060   6.708   4.998  11.063
   85SLPC   O13 8061   6.699   5.076  10.937
   85SLPC   O14 8062   6.585   4.965  11.139
   85SLPC   O12 8063   6.794   4.868  11.033
   85SLPC   O11 8064   6.813   5.062  11.161
   85SLPC    C1 8065   6.891   5.173  11.119
   85SLPC    HA 8066   6.912   5.175  11.010
   85SLPC    HB 8067   6.835   5.265  11.145
   85SLPC    C2 8068   7.024   5.174  11.196
   85SLPC    HS 8069   7.089   5.254  11.153
   85SLPC   O21 8070   7.094   5.049  11.192
   85SLPC   C21 8071   7.225   5.052  11.212
   85SLPC   O22 8072   7.295   5.147  11.239
   85SLPC   C22 8073   7.276   4.919  11.174
   85SLPC   H2R 8074   7.212   4.894  11.089
   85SLPC   H2S 8075   7.383   4.914  11.150
   85SLPC    C3 8076   6.994   5.213  11.341
   85SLPC    HX 8077   6.946   5.312  11.335
   85SLPC    HY 8078   7.093   5.224  11.385
   85SLPC   O31 8079   6.909   5.124  11.417
   85SLPC   C31 8080   6.967   5.036  11.496
   85SLPC   O32 8081   7.087   5.022  11.514
   85SLPC   C32 8082   6.862   4.952  11.565
   85SLPC   H2X 8083   6.762   4.973  11.520
   85SLPC   H2Y 8084   6.860   4.978  11.672
   85SLPC   C23 8085   7.254   4.824  11.284
   85SLPC   H3R 8086   7.150   4.785  11.294
   85SLPC   H3S 8087   7.270   4.880  11.381
   85SLPC   C24 8088   7.355   4.703  11.280
   85SLPC   H4R 8089   7.458   4.728  11.245
   85SLPC   H4S 8090   7.313   4.630  11.210
   85SLPC   C25 8091   7.365   4.638  11.423
   85SLPC   H5R 8092   7.297   4.708  11.428
   85SLPC   H5S 8093   7.282   4.574  11.456
   85SLPC   C26 8094   7.421   4.720  11.537
   85SLPC   H6R 8095   7.477   4.809  11.500
   85SLPC   H6S 8096   7.499   4.662  11.581
   85SLPC   C27 8097   7.312   4.752  11.640
   85SLPC   H7R 8098   7.228   4.694  11.680
   85SLPC   H7S 8099   7.238   4.807  11.576
   85SLPC   C28 8100   7.373   4.790  11.772
   85SLPC   H8R 8101   7.474   4.768  11.801
   85SLPC   H8S 8102   7.326   4.768  11.872
   85SLPC   C29 8103   7.356   4.920  11.732
   85SLPC   H9R 8104   7.423   4.969  11.658
   85SLPC  C210 8105   7.282   4.980  11.816
   85SLPC  H10R 8106   7.296   5.072  11.809
   85SLPC  C211 8107   7.207   4.974  11.935
   85SLPC  H11R 8108   7.278   4.940  12.013
   85SLPC  H11S 8109   7.141   4.902  11.887
   85SLPC  C212 8110   7.144   5.108  11.976
   85SLPC  H12R 8111   7.206   5.201  11.975
   85SLPC  C213 8112   7.017   5.116  12.008
   85SLPC  H13R 8113   6.978   5.213  12.034
   85SLPC  C214 8114   6.924   4.998  12.010
   85SLPC  H14R 8115   6.968   4.914  11.952
   85SLPC  H14S 8116   6.831   5.022  11.956
   85SLPC  C215 8117   6.891   4.941  12.149
   85SLPC  H15R 8118   6.805   4.871  12.145
   85SLPC  H15S 8119   6.866   5.020  12.223
   85SLPC  C216 8120   7.005   4.860  12.206
   85SLPC  H16R 8121   7.052   4.785  12.139
   85SLPC  H16S 8122   6.968   4.804  12.296
   85SLPC  C217 8123   7.108   4.956  12.248
   85SLPC  H17R 8124   7.075   5.058  12.280
   85SLPC  H17S 8125   7.196   4.963  12.182
   85SLPC  C218 8126   7.159   4.904  12.367
   85SLPC  H18R 8127   7.206   4.801  12.367
   85SLPC  H18S 8128   7.108   4.940  12.457
   85SLPC  H18T 8129   7.234   4.977  12.367
   85SLPC   C33 8130   6.901   4.804  11.555
   85SLPC   H3X 8131   7.006   4.785  11.583
   85SLPC   H3Y 8132   6.890   4.774  11.447
   85SLPC   C34 8133   6.832   4.714  11.657
   85SLPC   H4X 8134   6.849   4.605  11.644
   85SLPC   H4Y 8135   6.729   4.744  11.660
   85SLPC   C35 8136   6.823   4.724  11.806
   85SLPC   H5X 8137   6.772   4.820  11.832
   85SLPC   H5Y 8138   6.927   4.711  11.837
   85SLPC   C36 8139   6.743   4.606  11.862
   85SLPC   H6X 8140   6.759   4.507  11.813
   85SLPC   H6Y 8141   6.635   4.625  11.862
   85SLPC   C37 8142   6.741   4.605  12.010
   85SLPC   H7X 8143   6.677   4.689  12.047
   85SLPC   H7Y 8144   6.845   4.606  12.043
   85SLPC   C38 8145   6.682   4.479  12.056
   85SLPC   H8X 8146   6.758   4.402  12.040
   85SLPC   H8Y 8147   6.603   4.456  11.982
   85SLPC   C39 8148   6.607   4.492  12.189
   85SLPC   H9X 8149   6.563   4.408  12.243
   85SLPC   H9Y 8150   6.522   4.548  12.155
   85SLPC  C310 8151   6.669   4.523  12.319
   85SLPC  H10X 8152   6.741   4.600  12.291
   85SLPC  H10Y 8153   6.719   4.430  12.358
   85SLPC  C311 8154   6.557   4.569  12.413
   85SLPC  H11X 8155   6.521   4.488  12.482
   85SLPC  H11Y 8156   6.469   4.604  12.357
   85SLPC  C312 8157   6.604   4.689  12.490
   85SLPC  H12X 8158   6.517   4.744  12.532
   85SLPC  H12Y 8159   6.657   4.759  12.423
   85SLPC  C313 8160   6.705   4.644  12.592
   85SLPC  H13X 8161   6.791   4.595  12.539
   85SLPC  H13Y 8162   6.662   4.566  12.658
   85SLPC  C314 8163   6.762   4.766  12.667
   85SLPC  H14X 8164   6.810   4.838  12.601
   85SLPC  H14Y 8165   6.851   4.729  12.723
   85SLPC  C315 8166   6.661   4.843  12.753
   85SLPC  H15X 8167   6.565   4.790  12.763
   85SLPC  H15Y 8168   6.630   4.937  12.707
   85SLPC  C316 8169   6.717   4.885  12.885
   85SLPC  H16X 8170   6.762   4.808  12.948
   85SLPC  H16Y 8171   6.645   4.930  12.958
   85SLPC  C317 8172   6.835   4.955  12.865
   85SLPC  H17X 8173   6.830   5.023  12.783
   85SLPC  H17Y 8174   6.924   4.893  12.837
   85SLPC  C318 8175   6.835   5.028  12.990
   85SLPC  H18X 8176   6.763   5.073  13.050
   85SLPC  H18Y 8177   6.933   5.064  12.975
   85SLPC  H18Z 8178   6.856   4.995  13.090
   86SLPC     N 8179   7.562   3.204  11.030
   86SLPC   C13 8180   7.692   3.140  11.065
   86SLPC  H13A 8181   7.677   3.047  11.119
   86SLPC  H13B 8182   7.751   3.119  10.976
   86SLPC  H13C 8183   7.752   3.206  11.126
   86SLPC   C14 8184   7.488   3.120  10.930
   86SLPC  H14A 8185   7.400   3.174  10.894
   86SLPC  H14B 8186   7.551   3.092  10.847
   86SLPC  H14C 8187   7.447   3.031  10.979
   86SLPC   C15 8188   7.594   3.340  10.975
   86SLPC  H15A 8189   7.501   3.392  10.949
   86SLPC  H15B 8190   7.640   3.401  11.052
   86SLPC  H15C 8191   7.660   3.334  10.890
   86SLPC   C12 8192   7.472   3.219  11.150
   86SLPC  H12A 8193   7.514   3.295  11.216
   86SLPC  H12B 8194   7.469   3.126  11.204
   86SLPC   C11 8195   7.324   3.250  11.124
   86SLPC  H11A 8196   7.275   3.280  11.221
   86SLPC  H11B 8197   7.270   3.162  11.083
   86SLPC     P 8198   7.207   3.457  11.026
   86SLPC   O13 8199   7.246   3.534  10.909
   86SLPC   O14 8200   7.072   3.407  11.043
   86SLPC   O12 8201   7.315   3.349  11.027
   86SLPC   O11 8202   7.240   3.522  11.162
   86SLPC    C1 8203   7.364   3.575  11.178
   86SLPC    HA 8204   7.450   3.524  11.136
   86SLPC    HB 8205   7.340   3.674  11.140
   86SLPC    C2 8206   7.424   3.575  11.311
   86SLPC    HS 8207   7.526   3.619  11.302
   86SLPC   O21 8208   7.450   3.445  11.357
   86SLPC   C21 8209   7.550   3.415  11.435
   86SLPC   O22 8210   7.663   3.461  11.441
   86SLPC   C22 8211   7.499   3.297  11.503
   86SLPC   H2R 8212   7.496   3.298  11.612
   86SLPC   H2S 8213   7.396   3.273  11.470
   86SLPC    C3 8214   7.310   3.653  11.381
   86SLPC    HX 8215   7.290   3.760  11.369
   86SLPC    HY 8216   7.334   3.717  11.466
   86SLPC   O31 8217   7.205   3.554  11.400
   86SLPC   C31 8218   7.187   3.538  11.528
   86SLPC   O32 8219   7.221   3.618  11.601
   86SLPC   C32 8220   7.123   3.420  11.584
   86SLPC   H2X 8221   7.145   3.340  11.514
   86SLPC   H2Y 8222   7.018   3.448  11.591
   86SLPC   C23 8223   7.609   3.208  11.454
   86SLPC   H3R 8224   7.699   3.224  11.519
   86SLPC   H3S 8225   7.639   3.225  11.348
   86SLPC   C24 8226   7.559   3.071  11.455
   86SLPC   H4R 8227   7.648   3.006  11.450
   86SLPC   H4S 8228   7.488   3.046  11.373
   86SLPC   C25 8229   7.485   3.044  11.579
   86SLPC   H5R 8230   7.427   2.958  11.546
   86SLPC   H5S 8231   7.417   3.113  11.632
   86SLPC   C26 8232   7.588   3.021  11.677
   86SLPC   H6R 8233   7.653   3.110  11.686
   86SLPC   H6S 8234   7.653   2.930  11.655
   86SLPC   C27 8235   7.540   3.007  11.812
   86SLPC   H7R 8236   7.569   2.915  11.870
   86SLPC   H7S 8237   7.551   2.904  11.819
   86SLPC   C28 8238   7.466   3.097  11.908
   86SLPC   H8R 8239   7.427   3.050  12.002
   86SLPC   H8S 8240   7.379   3.127  11.847
   86SLPC   C29 8241   7.558   3.197  11.956
   86SLPC   H9R 8242   7.650   3.185  12.006
   86SLPC  C210 8243   7.527   3.311  11.975
   86SLPC  H10R 8244   7.617   3.371  11.998
   86SLPC  C211 8245   7.377   3.328  11.920
   86SLPC  H11R 8246   7.316   3.288  11.993
   86SLPC  H11S 8247   7.394   3.339  11.819
   86SLPC  C212 8248   7.387   3.465  11.962
   86SLPC  H12R 8249   7.460   3.512  11.903
   86SLPC  C213 8250   7.262   3.528  12.013
   86SLPC  H13R 8251   7.269   3.616  12.084
   86SLPC  C214 8252   7.153   3.499  12.103
   86SLPC  H14R 8253   7.103   3.434  12.031
   86SLPC  H14S 8254   7.103   3.613  12.078
   86SLPC  C215 8255   7.194   3.505  12.234
   86SLPC  H15R 8256   7.247   3.412  12.251
   86SLPC  H15S 8257   7.128   3.495  12.299
   86SLPC  C216 8258   7.222   3.626  12.334
   86SLPC  H16R 8259   7.172   3.720  12.316
   86SLPC  H16S 8260   7.316   3.655  12.307
   86SLPC  C217 8261   7.233   3.581  12.485
   86SLPC  H17R 8262   7.296   3.636  12.557
   86SLPC  H17S 8263   7.272   3.477  12.487
   86SLPC  C218 8264   7.130   3.622  12.579
   86SLPC  H18R 8265   7.124   3.595  12.678
   86SLPC  H18S 8266   7.065   3.537  12.566
   86SLPC  H18T 8267   7.101   3.727  12.576
   86SLPC   C33 8268   7.104   3.392  11.734
   86SLPC   H3X 8269   7.063   3.467  11.803
   86SLPC   H3Y 8270   7.199   3.358  11.773
   86SLPC   C34 8271   6.982   3.302  11.741
   86SLPC   H4X 8272   6.998   3.232  11.660
   86SLPC   H4Y 8273   6.887   3.346  11.711
   86SLPC   C35 8274   6.962   3.261  11.883
   86SLPC   H5X 8275   6.867   3.203  11.894
   86SLPC   H5Y 8276   6.965   3.345  11.954
   86SLPC   C36 8277   7.083   3.193  11.935
   86SLPC   H6X 8278   7.186   3.209  11.918
   86SLPC   H6Y 8279   7.092   3.140  11.847
   86SLPC   C37 8280   7.050   3.119  12.058
   86SLPC   H7X 8281   7.114   3.036  12.058
   86SLPC   H7Y 8282   6.944   3.088  12.060
   86SLPC   C38 8283   7.108   3.176  12.179
   86SLPC   H8X 8284   7.058   3.268  12.162
   86SLPC   H8Y 8285   7.218   3.178  12.177
   86SLPC   C39 8286   7.072   3.091  12.292
   86SLPC   H9X 8287   7.105   2.991  12.262
   86SLPC   H9Y 8288   6.960   3.099  12.302
   86SLPC  C310 8289   7.154   3.104  12.419
   86SLPC  H10X 8290   7.160   3.208  12.431
   86SLPC  H10Y 8291   7.260   3.116  12.405
   86SLPC  C311 8292   7.108   3.025  12.544
   86SLPC  H11X 8293   7.166   2.932  12.538
   86SLPC  H11Y 8294   7.004   2.994  12.547
   86SLPC  C312 8295   7.131   3.093  12.677
   86SLPC  H12X 8296   7.121   3.034  12.770
   86SLPC  H12Y 8297   7.062   3.173  12.703
   86SLPC  C313 8298   7.252   3.175  12.669
   86SLPC  H13X 8299   7.237   3.217  12.768
   86SLPC  H13Y 8300   7.247   3.250  12.588
   86SLPC  C314 8301   7.386   3.114  12.663
   86SLPC  H14X 8302   7.377   3.021  12.602
   86SLPC  H14Y 8303   7.405   3.082  12.766
   86SLPC  C315 8304   7.488   3.211  12.596
   86SLPC  H15X 8305   7.446   3.255  12.504
   86SLPC  H15Y 8306   7.571   3.151  12.574
   86SLPC  C316 8307   7.547   3.334  12.666
   86SLPC  H16X 8308   7.458   3.350  12.711
   86SLPC  H16Y 8309   7.597   3.418  12.623
   86SLPC  C317 8310   7.590   3.333  12.804
   86SLPC  H17X 8311   7.641   3.252  12.757
   86SLPC  H17Y 8312   7.526   3.265  12.860
   86SLPC  C318 8313   7.695   3.430  12.879
   86SLPC  H18X 8314   7.723   3.513  12.816
   86SLPC  H18Y 8315   7.786   3.405  12.934
   86SLPC  H18Z 8316   7.666   3.449  12.979
   87SLPC     N 8317   7.231   1.989  10.885
   87SLPC   C13 8318   7.340   2.036  10.976
   87SLPC  H13A 8319   7.393   2.120  10.932
   87SLPC  H13B 8320   7.300   2.088  11.060
   87SLPC  H13C 8321   7.435   1.988  11.002
   87SLPC   C14 8322   7.197   1.871  10.958
   87SLPC  H14A 8323   7.149   1.903  11.051
   87SLPC  H14B 8324   7.138   1.804  10.901
   87SLPC  H14C 8325   7.289   1.821  10.987
   87SLPC   C15 8326   7.296   1.962  10.756
   87SLPC  H15A 8327   7.378   1.896  10.774
   87SLPC  H15B 8328   7.222   1.926  10.686
   87SLPC  H15C 8329   7.333   2.057  10.718
   87SLPC   C12 8330   7.098   2.072  10.851
   87SLPC  H12A 8331   7.026   2.018  10.795
   87SLPC  H12B 8332   7.127   2.154  10.786
   87SLPC   C11 8333   7.011   2.155  10.949
   87SLPC  H11A 8334   6.959   2.250  10.927
   87SLPC  H11B 8335   7.096   2.213  10.969
   87SLPC     P 8336   6.898   2.138  11.189
   87SLPC   O13 8337   6.954   2.054  11.294
   87SLPC   O14 8338   6.889   2.284  11.190
   87SLPC   O12 8339   6.952   2.076  11.052
   87SLPC   O11 8340   6.756   2.102  11.218
   87SLPC    C1 8341   6.733   1.979  11.158
   87SLPC    HA 8342   6.717   2.002  11.051
   87SLPC    HB 8343   6.811   1.899  11.172
   87SLPC    C2 8344   6.615   1.931  11.229
   87SLPC    HS 8345   6.553   2.018  11.258
   87SLPC   O21 8346   6.656   1.879  11.348
   87SLPC   C21 8347   6.553   1.860  11.420
   87SLPC   O22 8348   6.438   1.900  11.410
   87SLPC   C22 8349   6.623   1.801  11.525
   87SLPC   H2R 8350   6.700   1.727  11.501
   87SLPC   H2S 8351   6.660   1.885  11.582
   87SLPC    C3 8352   6.552   1.824  11.144
   87SLPC    HX 8353   6.511   1.875  11.055
   87SLPC    HY 8354   6.469   1.776  11.199
   87SLPC   O31 8355   6.656   1.737  11.095
   87SLPC   C31 8356   6.664   1.621  11.153
   87SLPC   O32 8357   6.590   1.580  11.241
   87SLPC   C32 8358   6.777   1.544  11.081
   87SLPC   H2X 8359   6.840   1.610  11.021
   87SLPC   H2Y 8360   6.726   1.464  11.021
   87SLPC   C23 8361   6.561   1.704  11.588
   87SLPC   H3R 8362   6.477   1.643  11.535
   87SLPC   H3S 8363   6.449   1.752  11.613
   87SLPC   C24 8364   6.692   1.628  11.763
   87SLPC   H4R 8365   6.621   1.596  11.854
   87SLPC   H4S 8366   6.672   1.651  11.873
   87SLPC   C25 8367   6.772   1.513  11.802
   87SLPC   H5R 8368   6.822   1.604  11.761
   87SLPC   H5S 8369   6.697   1.446  11.785
   87SLPC   C26 8370   6.748   1.449  11.938
   87SLPC   H6R 8371   6.822   1.367  11.916
   87SLPC   H6S 8372   6.649   1.396  11.951
   87SLPC   C27 8373   6.773   1.555  12.048
   87SLPC   H7R 8374   6.802   1.487  12.128
   87SLPC   H7S 8375   6.683   1.596  12.086
   87SLPC   C28 8376   6.853   1.688  12.016
   87SLPC   H8R 8377   6.875   1.751  12.099
   87SLPC   H8S 8378   6.818   1.752  11.932
   87SLPC   C29 8379   6.949   1.598  11.965
   87SLPC   H9R 8380   6.986   1.666  11.886
   87SLPC  C210 8381   7.027   1.516  12.027
   87SLPC  H10R 8382   7.094   1.450  11.965
   87SLPC  C211 8383   7.037   1.513  12.175
   87SLPC  H11R 8384   7.059   1.409  12.179
   87SLPC  H11S 8385   6.947   1.558  12.215
   87SLPC  C212 8386   7.135   1.570  12.274
   87SLPC  H12R 8387   7.212   1.501  12.307
   87SLPC  C213 8388   7.145   1.682  12.343
   87SLPC  H13R 8389   7.240   1.714  12.397
   87SLPC  C214 8390   7.043   1.782  12.323
   87SLPC  H14R 8391   6.987   1.786  12.233
   87SLPC  H14S 8392   7.124   1.852  12.302
   87SLPC  C215 8393   6.942   1.787  12.439
   87SLPC  H15R 8394   6.884   1.874  12.471
   87SLPC  H15S 8395   7.025   1.798  12.500
   87SLPC  C216 8396   6.855   1.666  12.461
   87SLPC  H16R 8397   6.917   1.585  12.431
   87SLPC  H16S 8398   6.785   1.680  12.378
   87SLPC  C217 8399   6.781   1.637  12.595
   87SLPC  H17R 8400   6.722   1.725  12.624
   87SLPC  H17S 8401   6.835   1.606  12.687
   87SLPC  C218 8402   6.709   1.505  12.602
   87SLPC  H18R 8403   6.788   1.432  12.633
   87SLPC  H18S 8404   6.664   1.480  12.505
   87SLPC  H18T 8405   6.640   1.496  12.687
   87SLPC   C33 8406   6.868   1.470  11.178
   87SLPC   H3X 8407   6.939   1.393  11.142
   87SLPC   H3Y 8408   6.783   1.409  11.195
   87SLPC   C34 8409   6.913   1.543  11.303
   87SLPC   H4X 8410   6.978   1.473  11.361
   87SLPC   H4Y 8411   6.835   1.577  11.374
   87SLPC   C35 8412   6.969   1.676  11.266
   87SLPC   H5X 8413   6.919   1.739  11.193
   87SLPC   H5Y 8414   7.057   1.645  11.202
   87SLPC   C36 8415   6.992   1.774  11.386
   87SLPC   H6X 8416   7.028   1.865  11.341
   87SLPC   H6Y 8417   7.068   1.751  11.457
   87SLPC   C37 8418   6.928   1.804  11.513
   87SLPC   H7X 8419   6.896   1.707  11.558
   87SLPC   H7Y 8420   6.854   1.868  11.463
   87SLPC   C38 8421   7.022   1.884  11.609
   87SLPC   H8X 8422   7.099   1.949  11.559
   87SLPC   H8Y 8423   7.082   1.816  11.673
   87SLPC   C39 8424   6.922   1.959  11.692
   87SLPC   H9X 8425   6.853   1.880  11.727
   87SLPC   H9Y 8426   6.869   2.026  11.619
   87SLPC  C310 8427   6.971   2.029  11.816
   87SLPC  H10X 8428   7.065   2.069  11.782
   87SLPC  H10Y 8429   7.014   1.968  11.897
   87SLPC  C311 8430   6.865   2.126  11.873
   87SLPC  H11X 8431   6.823   2.191  11.793
   87SLPC  H11Y 8432   6.908   2.189  11.953
   87SLPC  C312 8433   6.753   2.047  11.939
   87SLPC  H12X 8434   6.804   1.975  12.007
   87SLPC  H12Y 8435   6.696   1.993  11.862
   87SLPC  C313 8436   6.659   2.132  12.025
   87SLPC  H13X 8437   6.608   2.204  11.959
   87SLPC  H13Y 8438   6.718   2.179  12.106
   87SLPC  C314 8439   6.551   2.055  12.093
   87SLPC  H14X 8440   6.484   2.026  12.011
   87SLPC  H14Y 8441   6.483   2.103  12.167
   87SLPC  C315 8442   6.615   1.939  12.161
   87SLPC  H15X 8443   6.674   1.937  12.255
   87SLPC  H15Y 8444   6.659   1.877  12.079
   87SLPC  C316 8445   6.511   1.858  12.212
   87SLPC  H16X 8446   6.563   1.757  12.224
   87SLPC  H16Y 8447   6.452   1.872  12.119
   87SLPC  C317 8448   6.389   1.891  12.291
   87SLPC  H17X 8449   6.306   1.825  12.270
   87SLPC  H17Y 8450   6.323   1.969  12.255
   87SLPC  C318 8451   6.434   1.865  12.430
   87SLPC  H18X 8452   6.348   1.852  12.498
   87SLPC  H18Y 8453   6.497   1.952  12.450
   87SLPC  H18Z 8454   6.493   1.769  12.432
   88SLPC     N 8455   0.248  -0.251  11.050
   88SLPC   C13 8456   0.362  -0.209  10.961
   88SLPC  H13A 8457   0.353  -0.102  10.941
   88SLPC  H13B 8458   0.458  -0.224  11.006
   88SLPC  H13C 8459   0.358  -0.261  10.865
   88SLPC   C14 8460   0.265  -0.388  11.077
   88SLPC  H14A 8461   0.261  -0.444  10.984
   88SLPC  H14B 8462   0.365  -0.413  11.115
   88SLPC  H14C 8463   0.191  -0.434  11.141
   88SLPC   C15 8464   0.122  -0.240  10.971
   88SLPC  H15A 8465   0.077  -0.142  10.987
   88SLPC  H15B 8466   0.143  -0.246  10.865
   88SLPC  H15C 8467   0.052  -0.318  10.999
   88SLPC   C12 8468   0.244  -0.180  11.183
   88SLPC  H12A 8469   0.342  -0.182  11.230
   88SLPC  H12B 8470   0.178  -0.236  11.248
   88SLPC   C11 8471   0.197  -0.035  11.180
   88SLPC  H11A 8472   0.212   0.013  11.279
   88SLPC  H11B 8473   0.088  -0.035  11.157
   88SLPC     P 8474   0.209   0.153  11.003
   88SLPC   O13 8475   0.318   0.224  10.931
   88SLPC   O14 8476   0.090   0.108  10.928
   88SLPC   O12 8477   0.274   0.033  11.082
   88SLPC   O11 8478   0.159   0.238  11.124
   88SLPC    C1 8479   0.167   0.379  11.122
   88SLPC    HA 8480   0.248   0.421  11.056
   88SLPC    HB 8481   0.070   0.422  11.087
   88SLPC    C2 8482   0.200   0.425  11.265
   88SLPC    HS 8483   0.253   0.524  11.253
   88SLPC   O21 8484   0.267   0.341  11.354
   88SLPC   C21 8485   0.375   0.307  11.310
   88SLPC   O22 8486   0.433   0.352  11.211
   88SLPC   C22 8487   0.418   0.209  11.418
   88SLPC   H2R 8488   0.404   0.255  11.519
   88SLPC   H2S 8489   0.359   0.118  11.403
   88SLPC    C3 8490   0.088   0.448  11.350
   88SLPC    HX 8491   0.034   0.496  11.278
   88SLPC    HY 8492   0.127   0.508  11.437
   88SLPC   O31 8493  -0.002   0.343  11.374
   88SLPC   C31 8494  -0.003   0.304  11.496
   88SLPC   O32 8495   0.053   0.355  11.591
   88SLPC   C32 8496  -0.088   0.180  11.498
   88SLPC   H2X 8497  -0.143   0.166  11.402
   88SLPC   H2Y 8498  -0.162   0.193  11.579
   88SLPC   C23 8499   0.559   0.173  11.400
   88SLPC   H3R 8500   0.599   0.256  11.460
   88SLPC   H3S 8501   0.578   0.172  11.292
   88SLPC   C24 8502   0.622   0.065  11.480
   88SLPC   H4R 8503   0.584   0.073  11.583
   88SLPC   H4S 8504   0.726   0.097  11.491
   88SLPC   C25 8505   0.605  -0.071  11.418
   88SLPC   H5R 8506   0.656  -0.076  11.318
   88SLPC   H5S 8507   0.496  -0.082  11.397
   88SLPC   C26 8508   0.645  -0.185  11.510
   88SLPC   H6R 8509   0.755  -0.192  11.519
   88SLPC   H6S 8510   0.611  -0.280  11.464
   88SLPC   C27 8511   0.596  -0.176  11.655
   88SLPC   H7R 8512   0.638  -0.088  11.708
   88SLPC   H7S 8513   0.641  -0.264  11.708
   88SLPC   C28 8514   0.443  -0.187  11.670
   88SLPC   H8R 8515   0.428  -0.252  11.759
   88SLPC   H8S 8516   0.400  -0.245  11.586
   88SLPC   C29 8517   0.366  -0.059  11.690
   88SLPC   H9R 8518   0.294  -0.033  11.611
   88SLPC  C210 8519   0.382   0.025  11.794
   88SLPC  H10R 8520   0.320   0.115  11.803
   88SLPC  C211 8521   0.482   0.002  11.904
   88SLPC  H11R 8522   0.574   0.055  11.872
   88SLPC  H11S 8523   0.509  -0.105  11.915
   88SLPC  C212 8524   0.432   0.051  12.036
   88SLPC  H12R 8525   0.377   0.147  12.035
   88SLPC  C213 8526   0.452  -0.010  12.155
   88SLPC  H13R 8527   0.416   0.046  12.243
   88SLPC  C214 8528   0.528  -0.140  12.184
   88SLPC  H14R 8529   0.600  -0.149  12.270
   88SLPC  H14S 8530   0.598  -0.164  12.103
   88SLPC  C215 8531   0.434  -0.244  12.240
   88SLPC  H15R 8532   0.494  -0.327  12.285
   88SLPC  H15S 8533   0.374  -0.281  12.155
   88SLPC  C216 8534   0.349  -0.193  12.357
   88SLPC  H16R 8535   0.294  -0.100  12.334
   88SLPC  H16S 8536   0.417  -0.172  12.443
   88SLPC  C217 8537   0.252  -0.301  12.405
   88SLPC  H17R 8538   0.314  -0.392  12.423
   88SLPC  H17S 8539   0.177  -0.326  12.326
   88SLPC  C218 8540   0.182  -0.254  12.531
   88SLPC  H18R 8541   0.258  -0.223  12.606
   88SLPC  H18S 8542   0.115  -0.331  12.573
   88SLPC  H18T 8543   0.121  -0.164  12.506
   88SLPC   C33 8544   0.006   0.064  11.525
   88SLPC   H3X 8545   0.052   0.083  11.625
   88SLPC   H3Y 8546   0.087   0.062  11.449
   88SLPC   C34 8547  -0.068  -0.070  11.526
   88SLPC   H4X 8548  -0.076  -0.101  11.419
   88SLPC   H4Y 8549  -0.172  -0.056  11.565
   88SLPC   C35 8550   0.007  -0.176  11.608
   88SLPC   H5X 8551   0.114  -0.171  11.580
   88SLPC   H5Y 8552  -0.031  -0.277  11.579
   88SLPC   C36 8553  -0.010  -0.162  11.761
   88SLPC   H6X 8554  -0.118  -0.165  11.786
   88SLPC   H6Y 8555   0.032  -0.065  11.797
   88SLPC   C37 8556   0.055  -0.275  11.845
   88SLPC   H7X 8557   0.165  -0.269  11.829
   88SLPC   H7Y 8558   0.021  -0.374  11.806
   88SLPC   C38 8559   0.018  -0.268  11.995
   88SLPC   H8X 8560   0.080  -0.341  12.052
   88SLPC   H8Y 8561  -0.088  -0.302  12.005
   88SLPC   C39 8562   0.036  -0.130  12.064
   88SLPC   H9X 8563  -0.018  -0.051  12.009
   88SLPC   H9Y 8564   0.143  -0.102  12.059
   88SLPC  C310 8565  -0.008  -0.123  12.212
   88SLPC  H10X 8566   0.080  -0.114  12.279
   88SLPC  H10Y 8567  -0.065  -0.214  12.240
   88SLPC  C311 8568  -0.100  -0.007  12.246
   88SLPC  H11X 8569  -0.118  -0.004  12.355
   88SLPC  H11Y 8570  -0.198  -0.020  12.201
   88SLPC  C312 8571  -0.066   0.131  12.200
   88SLPC  H12X 8572  -0.148   0.191  12.236
   88SLPC  H12Y 8573  -0.068   0.142  12.090
   88SLPC  C313 8574   0.055   0.182  12.270
   88SLPC  H13X 8575   0.143   0.148  12.211
   88SLPC  H13Y 8576   0.060   0.136  12.372
   88SLPC  C314 8577   0.042   0.333  12.283
   88SLPC  H14X 8578   0.015   0.370  12.383
   88SLPC  H14Y 8579  -0.007   0.387  12.200
   88SLPC  C315 8580   0.173   0.385  12.279
   88SLPC  H15X 8581   0.176   0.497  12.277
   88SLPC  H15Y 8582   0.218   0.346  12.186
   88SLPC  C316 8583   0.243   0.319  12.397
   88SLPC  H16X 8584   0.290   0.417  12.402
   88SLPC  H16Y 8585   0.307   0.234  12.367
   88SLPC  C317 8586   0.206   0.305  12.540
   88SLPC  H17X 8587   0.125   0.235  12.542
   88SLPC  H17Y 8588   0.170   0.408  12.567
   88SLPC  C318 8589   0.318   0.242  12.630
   88SLPC  H18X 8590   0.370   0.265  12.724
   88SLPC  H18Y 8591   0.351   0.336  12.679
   88SLPC  H18Z 8592   0.371   0.150  12.617
   89SAPE     N 8593   4.044   2.637  14.943
   89SAPE   HN1 8594   4.031   2.723  14.886
   89SAPE   HN2 8595   3.982   2.642  15.026
   89SAPE   HN3 8596   4.144   2.629  14.973
   89SAPE   C12 8597   4.008   2.516  14.859
   89SAPE  H12A 8598   4.024   2.427  14.924
   89SAPE  H12B 8599   4.082   2.515  14.776
   89SAPE   C11 8600   3.864   2.514  14.800
   89SAPE  H11A 8601   3.794   2.463  14.870
   89SAPE  H11B 8602   3.863   2.449  14.708
   89SAPE     P 8603   3.695   2.672  14.673
   89SAPE   O13 8604   3.577   2.607  14.733
   89SAPE   O14 8605   3.690   2.818  14.646
   89SAPE   O12 8606   3.818   2.646  14.771
   89SAPE   O11 8607   3.737   2.594  14.543
   89SAPE    C1 8608   3.849   2.633  14.466
   89SAPE    HA 8609   3.932   2.674  14.527
   89SAPE    HB 8610   3.888   2.542  14.414
   89SAPE    C2 8611   3.815   2.741  14.360
   89SAPE    HS 8612   3.825   2.839  14.411
   89SAPE   O21 8613   3.684   2.734  14.302
   89SAPE   C21 8614   3.635   2.618  14.264
   89SAPE   O22 8615   3.688   2.509  14.258
   89SAPE   C22 8616   3.490   2.643  14.230
   89SAPE   H2R 8617   3.437   2.636  14.327
   89SAPE   H2S 8618   3.477   2.743  14.186
   89SAPE    C3 8619   3.913   2.737  14.245
   89SAPE    HX 8620   4.019   2.752  14.275
   89SAPE    HY 8621   3.882   2.832  14.189
   89SAPE   O31 8622   3.895   2.607  14.176
   89SAPE   C31 8623   3.936   2.628  14.055
   89SAPE   O32 8624   3.986   2.739  14.036
   89SAPE   C32 8625   3.922   2.491  13.964
   89SAPE   H2X 8626   3.819   2.456  13.977
   89SAPE   H2Y 8627   3.985   2.417  14.017
   89SAPE   C23 8628   3.433   2.540  14.132
   89SAPE   H3R 8629   3.323   2.547  14.136
   89SAPE   H3S 8630   3.465   2.438  14.168
   89SAPE   C24 8631   3.476   2.556  13.986
   89SAPE   H4R 8632   3.421   2.482  13.925
   89SAPE   H4S 8633   3.584   2.529  13.981
   89SAPE   C25 8634   3.429   2.669  13.907
   89SAPE   H5R 8635   3.322   2.686  13.917
   89SAPE   C26 8636   3.506   2.741  13.825
   89SAPE   H6R 8637   3.454   2.813  13.760
   89SAPE   C27 8638   3.654   2.721  13.799
   89SAPE   H7R 8639   3.671   2.691  13.694
   89SAPE   H7S 8640   3.699   2.639  13.859
   89SAPE   C28 8641   3.723   2.850  13.831
   89SAPE   H8R 8642   3.714   2.887  13.935
   89SAPE   C29 8643   3.799   2.918  13.743
   89SAPE   H9R 8644   3.855   3.005  13.781
   89SAPE  C210 8645   3.831   2.875  13.599
   89SAPE  H10R 8646   3.848   2.767  13.601
   89SAPE  H10S 8647   3.932   2.919  13.585
   89SAPE  C211 8648   3.735   2.914  13.484
   89SAPE  H11R 8649   3.629   2.905  13.515
   89SAPE  C212 8650   3.762   2.948  13.350
   89SAPE  H12R 8651   3.677   3.005  13.303
   89SAPE  C213 8652   3.901   2.984  13.277
   89SAPE  H13R 8653   3.955   3.007  13.364
   89SAPE  H13S 8654   3.890   3.076  13.229
   89SAPE  C214 8655   4.013   2.899  13.197
   89SAPE  H14R 8656   4.060   2.805  13.186
   89SAPE  C215 8657   4.088   2.913  13.094
   89SAPE  H15R 8658   4.163   2.834  13.064
   89SAPE  C216 8659   4.057   2.992  12.985
   89SAPE  H16R 8660   4.172   2.991  12.987
   89SAPE  H16S 8661   4.016   3.086  13.031
   89SAPE  C217 8662   4.002   2.914  12.863
   89SAPE  H17R 8663   4.059   2.970  12.788
   89SAPE  H17S 8664   3.893   2.936  12.860
   89SAPE  C218 8665   4.032   2.762  12.815
   89SAPE  H18R 8666   3.960   2.677  12.835
   89SAPE  H18S 8667   4.131   2.732  12.846
   89SAPE  C219 8668   4.027   2.720  12.673
   89SAPE  H19R 8669   4.038   2.607  12.666
   89SAPE  H19S 8670   4.117   2.774  12.640
   89SAPE  C220 8671   3.891   2.765  12.626
   89SAPE  H20R 8672   3.882   2.875  12.636
   89SAPE  H20S 8673   3.808   2.719  12.687
   89SAPE  H20T 8674   3.883   2.732  12.521
   89SAPE   C33 8675   3.952   2.464  13.806
   89SAPE   H3X 8676   4.042   2.494  13.757
   89SAPE   H3Y 8677   3.884   2.512  13.736
   89SAPE   C34 8678   4.014   2.331  13.772
   89SAPE   H4X 8679   4.090   2.302  13.850
   89SAPE   H4Y 8680   4.073   2.322  13.676
   89SAPE   C35 8681   3.893   2.251  13.756
   89SAPE   H5X 8682   3.814   2.262  13.832
   89SAPE   H5Y 8683   3.943   2.159  13.768
   89SAPE   C36 8684   3.848   2.221  13.618
   89SAPE   H6X 8685   3.802   2.121  13.632
   89SAPE   H6Y 8686   3.939   2.217  13.553
   89SAPE   C37 8687   3.757   2.314  13.547
   89SAPE   H7X 8688   3.737   2.270  13.446
   89SAPE   H7Y 8689   3.820   2.404  13.538
   89SAPE   C38 8690   3.628   2.342  13.621
   89SAPE   H8X 8691   3.652   2.360  13.729
   89SAPE   H8Y 8692   3.558   2.257  13.614
   89SAPE   C39 8693   3.549   2.458  13.562
   89SAPE   H9X 8694   3.624   2.538  13.547
   89SAPE   H9Y 8695   3.473   2.486  13.638
   89SAPE  C310 8696   3.476   2.431  13.430
   89SAPE  H10X 8697   3.394   2.357  13.445
   89SAPE  H10Y 8698   3.548   2.389  13.356
   89SAPE  C311 8699   3.406   2.558  13.375
   89SAPE  H11X 8700   3.341   2.602  13.454
   89SAPE  H11Y 8701   3.339   2.529  13.291
   89SAPE  C312 8702   3.499   2.669  13.326
   89SAPE  H12X 8703   3.558   2.707  13.413
   89SAPE  H12Y 8704   3.436   2.752  13.287
   89SAPE  C313 8705   3.594   2.626  13.215
   89SAPE  H13X 8706   3.664   2.548  13.252
   89SAPE  H13Y 8707   3.655   2.713  13.186
   89SAPE  C314 8708   3.525   2.574  13.089
   89SAPE  H14X 8709   3.466   2.656  13.042
   89SAPE  H14Y 8710   3.453   2.493  13.112
   89SAPE  C315 8711   3.631   2.521  12.992
   89SAPE  H15X 8712   3.691   2.599  12.949
   89SAPE  H15Y 8713   3.588   2.479  12.904
   89SAPE  C316 8714   3.704   2.392  13.021
   89SAPE  H16X 8715   3.633   2.311  13.047
   89SAPE  H16Y 8716   3.769   2.405  13.107
   89SAPE  C317 8717   3.775   2.347  12.894
   89SAPE  H17X 8718   3.842   2.428  12.857
   89SAPE  H17Y 8719   3.702   2.330  12.813
   89SAPE  C318 8720   3.846   2.215  12.915
   89SAPE  H18X 8721   3.924   2.200  12.838
   89SAPE  H18Y 8722   3.772   2.132  12.909
   89SAPE  H18Z 8723   3.892   2.214  13.017
   90SAPE     N 8724   5.108   3.090  14.891
   90SAPE   HN1 8725   5.063   3.171  14.941
   90SAPE   HN2 8726   5.034   3.019  14.879
   90SAPE   HN3 8727   5.189   3.054  14.944
   90SAPE   C12 8728   5.155   3.130  14.753
   90SAPE  H12A 8729   5.205   3.042  14.708
   90SAPE  H12B 8730   5.228   3.213  14.765
   90SAPE   C11 8731   5.040   3.170  14.660
   90SAPE  H11A 8732   4.984   3.079  14.630
   90SAPE  H11B 8733   5.081   3.214  14.567
   90SAPE     P 8734   4.973   3.415  14.736
   90SAPE   O13 8735   4.852   3.492  14.697
   90SAPE   O14 8736   5.027   3.436  14.871
   90SAPE   O12 8737   4.949   3.259  14.722
   90SAPE   O11 8738   5.088   3.448  14.633
   90SAPE    C1 8739   5.143   3.577  14.659
   90SAPE    HA 8740   5.066   3.657  14.659
   90SAPE    HB 8741   5.199   3.584  14.756
   90SAPE    C2 8742   5.246   3.614  14.554
   90SAPE    HS 8743   5.261   3.722  14.577
   90SAPE   O21 8744   5.210   3.595  14.417
   90SAPE   C21 8745   5.102   3.652  14.374
   90SAPE   O22 8746   5.033   3.735  14.432
   90SAPE   C22 8747   5.083   3.607  14.229
   90SAPE   H2R 8748   5.138   3.660  14.156
   90SAPE   H2S 8749   5.114   3.504  14.210
   90SAPE    C3 8750   5.376   3.534  14.581
   90SAPE    HX 8751   5.421   3.555  14.680
   90SAPE    HY 8752   5.444   3.592  14.531
   90SAPE   O31 8753   5.374   3.393  14.544
   90SAPE   C31 8754   5.419   3.326  14.438
   90SAPE   O32 8755   5.489   3.352  14.346
   90SAPE   C32 8756   5.374   3.189  14.427
   90SAPE   H2X 8757   5.274   3.186  14.471
   90SAPE   H2Y 8758   5.454   3.134  14.481
   90SAPE   C23 8759   4.943   3.633  14.191
   90SAPE   H3R 8760   4.899   3.733  14.218
   90SAPE   H3S 8761   4.909   3.553  14.257
   90SAPE   C24 8762   4.898   3.589  14.056
   90SAPE   H4R 8763   4.790   3.568  14.062
   90SAPE   H4S 8764   4.934   3.495  14.017
   90SAPE   C25 8765   4.922   3.687  13.955
   90SAPE   H5R 8766   4.881   3.785  13.979
   90SAPE   C26 8767   4.979   3.659  13.839
   90SAPE   H6R 8768   4.978   3.738  13.763
   90SAPE   C27 8769   5.030   3.527  13.793
   90SAPE   H7R 8770   5.067   3.542  13.689
   90SAPE   H7S 8771   4.953   3.448  13.794
   90SAPE   C28 8772   5.145   3.485  13.879
   90SAPE   H8R 8773   5.167   3.544  13.971
   90SAPE   C29 8774   5.238   3.403  13.840
   90SAPE   H9R 8775   5.322   3.415  13.904
   90SAPE  C210 8776   5.252   3.331  13.708
   90SAPE  H10R 8777   5.185   3.381  13.638
   90SAPE  H10S 8778   5.208   3.233  13.727
   90SAPE  C211 8779   5.381   3.296  13.637
   90SAPE  H11R 8780   5.464   3.289  13.697
   90SAPE  C212 8781   5.419   3.305  13.511
   90SAPE  H12R 8782   5.526   3.293  13.483
   90SAPE  C213 8783   5.327   3.359  13.408
   90SAPE  H13R 8784   5.231   3.311  13.402
   90SAPE  H13S 8785   5.377   3.364  13.309
   90SAPE  C214 8786   5.296   3.492  13.455
   90SAPE  H14R 8787   5.201   3.530  13.497
   90SAPE  C215 8788   5.386   3.573  13.425
   90SAPE  H15R 8789   5.339   3.667  13.444
   90SAPE  C216 8790   5.517   3.556  13.346
   90SAPE  H16R 8791   5.578   3.467  13.357
   90SAPE  H16S 8792   5.591   3.634  13.376
   90SAPE  C217 8793   5.505   3.551  13.190
   90SAPE  H17R 8794   5.599   3.536  13.141
   90SAPE  H17S 8795   5.508   3.647  13.159
   90SAPE  C218 8796   5.393   3.493  13.103
   90SAPE  H18R 8797   5.290   3.521  13.140
   90SAPE  H18S 8798   5.435   3.394  13.106
   90SAPE  C219 8799   5.393   3.511  12.953
   90SAPE  H19R 8800   5.481   3.534  12.882
   90SAPE  H19S 8801   5.321   3.596  12.972
   90SAPE  C220 8802   5.300   3.475  12.860
   90SAPE  H20R 8803   5.199   3.462  12.901
   90SAPE  H20S 8804   5.354   3.396  12.804
   90SAPE  H20T 8805   5.293   3.568  12.794
   90SAPE   C33 8806   5.384   3.154  14.274
   90SAPE   H3X 8807   5.353   3.049  14.264
   90SAPE   H3Y 8808   5.490   3.157  14.237
   90SAPE   C34 8809   5.298   3.239  14.176
   90SAPE   H4X 8810   5.335   3.223  14.073
   90SAPE   H4Y 8811   5.313   3.348  14.199
   90SAPE   C35 8812   5.147   3.217  14.186
   90SAPE   H5X 8813   5.101   3.310  14.147
   90SAPE   H5Y 8814   5.121   3.205  14.293
   90SAPE   C36 8815   5.084   3.103  14.105
   90SAPE   H6X 8816   4.977   3.097  14.135
   90SAPE   H6Y 8817   5.129   3.005  14.129
   90SAPE   C37 8818   5.087   3.127  13.954
   90SAPE   H7X 8819   5.193   3.118  13.922
   90SAPE   H7Y 8820   5.046   3.226  13.926
   90SAPE   C38 8821   5.005   3.023  13.880
   90SAPE   H8X 8822   4.902   3.013  13.921
   90SAPE   H8Y 8823   5.069   2.939  13.908
   90SAPE   C39 8824   5.009   3.019  13.729
   90SAPE   H9X 8825   4.968   2.923  13.690
   90SAPE   H9Y 8826   5.116   3.020  13.700
   90SAPE  C310 8827   4.928   3.133  13.669
   90SAPE  H10X 8828   4.947   3.227  13.725
   90SAPE  H10Y 8829   4.820   3.107  13.678
   90SAPE  C311 8830   4.970   3.158  13.525
   90SAPE  H11X 8831   4.956   3.068  13.461
   90SAPE  H11Y 8832   5.076   3.188  13.522
   90SAPE  C312 8833   4.883   3.260  13.457
   90SAPE  H12X 8834   4.896   3.360  13.506
   90SAPE  H12Y 8835   4.778   3.230  13.483
   90SAPE  C313 8836   4.904   3.250  13.302
   90SAPE  H13X 8837   4.841   3.168  13.264
   90SAPE  H13Y 8838   5.012   3.245  13.278
   90SAPE  C314 8839   4.860   3.372  13.227
   90SAPE  H14X 8840   4.911   3.427  13.301
   90SAPE  H14Y 8841   4.758   3.386  13.224
   90SAPE  C315 8842   4.903   3.463  13.119
   90SAPE  H15X 8843   4.896   3.389  13.043
   90SAPE  H15Y 8844   5.008   3.490  13.121
   90SAPE  C316 8845   4.810   3.588  13.099
   90SAPE  H16X 8846   4.779   3.651  13.182
   90SAPE  H16Y 8847   4.706   3.576  13.068
   90SAPE  C317 8848   4.868   3.662  12.985
   90SAPE  H17X 8849   4.966   3.703  13.007
   90SAPE  H17Y 8850   4.792   3.739  12.951
   90SAPE  C318 8851   4.915   3.572  12.881
   90SAPE  H18X 8852   4.900   3.466  12.866
   90SAPE  H18Y 8853   4.956   3.614  12.792
   90SAPE  H18Z 8854   4.813   3.579  12.858
   91SAPE     N 8855   1.829   3.322  15.030
   91SAPE   HN1 8856   1.920   3.362  15.061
   91SAPE   HN2 8857   1.759   3.398  15.040
   91SAPE   HN3 8858   1.800   3.238  15.086
   91SAPE   C12 8859   1.833   3.287  14.884
   91SAPE  H12A 8860   1.727   3.275  14.851
   91SAPE  H12B 8861   1.885   3.190  14.873
   91SAPE   C11 8862   1.898   3.400  14.804
   91SAPE  H11A 8863   1.936   3.359  14.706
   91SAPE  H11B 8864   1.987   3.443  14.856
   91SAPE     P 8865   1.801   3.590  14.652
   91SAPE   O13 8866   1.665   3.637  14.633
   91SAPE   O14 8867   1.909   3.689  14.663
   91SAPE   O12 8868   1.802   3.503  14.786
   91SAPE   O11 8869   1.833   3.480  14.541
   91SAPE    C1 8870   1.745   3.376  14.496
   91SAPE    HA 8871   1.779   3.279  14.535
   91SAPE    HB 8872   1.649   3.379  14.546
   91SAPE    C2 8873   1.733   3.376  14.339
   91SAPE    HS 8874   1.825   3.323  14.309
   91SAPE   O21 8875   1.727   3.512  14.290
   91SAPE   C21 8876   1.813   3.539  14.193
   91SAPE   O22 8877   1.867   3.455  14.123
   91SAPE   C22 8878   1.830   3.689  14.170
   91SAPE   H2R 8879   1.794   3.749  14.256
   91SAPE   H2S 8880   1.930   3.718  14.139
   91SAPE    C3 8881   1.612   3.297  14.278
   91SAPE    HX 8882   1.514   3.347  14.286
   91SAPE    HY 8883   1.600   3.207  14.336
   91SAPE   O31 8884   1.627   3.265  14.139
   91SAPE   C31 8885   1.723   3.179  14.111
   91SAPE   O32 8886   1.788   3.113  14.190
   91SAPE   C32 8887   1.743   3.172  13.962
   91SAPE   H2X 8888   1.795   3.078  13.938
   91SAPE   H2Y 8889   1.805   3.258  13.931
   91SAPE   C23 8890   1.759   3.719  14.041
   91SAPE   H3R 8891   1.670   3.700  14.094
   91SAPE   H3S 8892   1.771   3.646  13.958
   91SAPE   C24 8893   1.730   3.856  13.993
   91SAPE   H4R 8894   1.825   3.909  13.993
   91SAPE   H4S 8895   1.661   3.907  14.066
   91SAPE   C25 8896   1.669   3.840  13.854
   91SAPE   H5R 8897   1.559   3.835  13.847
   91SAPE   C26 8898   1.715   3.866  13.734
   91SAPE   H6R 8899   1.640   3.874  13.653
   91SAPE   C27 8900   1.845   3.919  13.699
   91SAPE   H7R 8901   1.822   4.023  13.705
   91SAPE   H7S 8902   1.857   3.896  13.593
   91SAPE   C28 8903   1.963   3.889  13.787
   91SAPE   H8R 8904   1.990   3.966  13.861
   91SAPE   C29 8905   2.028   3.774  13.793
   91SAPE   H9R 8906   2.110   3.763  13.865
   91SAPE  C210 8907   1.993   3.656  13.710
   91SAPE  H10R 8908   2.077   3.644  13.644
   91SAPE  H10S 8909   1.907   3.673  13.642
   91SAPE  C211 8910   1.960   3.536  13.795
   91SAPE  H11R 8911   1.935   3.562  13.899
   91SAPE  C212 8912   1.995   3.409  13.770
   91SAPE  H12R 8913   1.980   3.335  13.851
   91SAPE  C213 8914   2.074   3.362  13.651
   91SAPE  H13R 8915   2.175   3.332  13.683
   91SAPE  H13S 8916   2.094   3.445  13.582
   91SAPE  C214 8917   2.009   3.246  13.582
   91SAPE  H14R 8918   1.983   3.160  13.646
   91SAPE  C215 8919   1.986   3.240  13.450
   91SAPE  H15R 8920   1.934   3.152  13.409
   91SAPE  C216 8921   2.023   3.349  13.354
   91SAPE  H16R 8922   2.119   3.398  13.383
   91SAPE  H16S 8923   1.947   3.429  13.349
   91SAPE  C217 8924   2.043   3.298  13.211
   91SAPE  H17R 8925   1.959   3.238  13.173
   91SAPE  H17S 8926   2.121   3.221  13.215
   91SAPE  C218 8927   2.064   3.425  13.124
   91SAPE  H18R 8928   2.142   3.491  13.171
   91SAPE  H18S 8929   1.970   3.479  13.119
   91SAPE  C219 8930   2.089   3.418  12.974
   91SAPE  H19R 8931   2.190   3.437  12.981
   91SAPE  H19S 8932   2.098   3.509  12.915
   91SAPE  C220 8933   2.042   3.292  12.900
   91SAPE  H20R 8934   1.950   3.324  12.850
   91SAPE  H20S 8935   2.042   3.201  12.964
   91SAPE  H20T 8936   2.090   3.242  12.817
   91SAPE   C33 8937   1.619   3.185  13.876
   91SAPE   H3X 8938   1.548   3.265  13.905
   91SAPE   H3Y 8939   1.559   3.096  13.882
   91SAPE   C34 8940   1.672   3.173  13.733
   91SAPE   H4X 8941   1.712   3.069  13.716
   91SAPE   H4Y 8942   1.726   3.261  13.700
   91SAPE   C35 8943   1.569   3.182  13.634
   91SAPE   H5X 8944   1.505   3.273  13.649
   91SAPE   H5Y 8945   1.530   3.081  13.670
   91SAPE   C36 8946   1.581   3.177  13.488
   91SAPE   H6X 8947   1.568   3.275  13.439
   91SAPE   H6Y 8948   1.481   3.166  13.456
   91SAPE   C37 8949   1.630   3.043  13.436
   91SAPE   H7X 8950   1.566   2.951  13.446
   91SAPE   H7Y 8951   1.719   3.027  13.496
   91SAPE   C38 8952   1.654   3.064  13.293
   91SAPE   H8X 8953   1.722   2.992  13.244
   91SAPE   H8Y 8954   1.678   3.171  13.281
   91SAPE   C39 8955   1.529   3.042  13.225
   91SAPE   H9X 8956   1.460   3.126  13.252
   91SAPE   H9Y 8957   1.487   2.936  13.227
   91SAPE  C310 8958   1.532   3.076  13.096
   91SAPE  H10X 8959   1.467   3.023  13.031
   91SAPE  H10Y 8960   1.570   2.982  13.061
   91SAPE  C311 8961   1.565   3.229  13.081
   91SAPE  H11X 8962   1.585   3.281  12.988
   91SAPE  H11Y 8963   1.645   3.275  13.135
   91SAPE  C312 8964   1.460   3.315  13.072
   91SAPE  H12X 8965   1.473   3.417  13.033
   91SAPE  H12Y 8966   1.396   3.281  13.156
   91SAPE  C313 8967   1.376   3.320  12.964
   91SAPE  H13X 8968   1.281   3.292  13.014
   91SAPE  H13Y 8969   1.329   3.221  12.975
   91SAPE  C314 8970   1.402   3.424  12.831
   91SAPE  H14X 8971   1.327   3.437  12.745
   91SAPE  H14Y 8972   1.478   3.390  12.763
   91SAPE  C315 8973   1.391   3.567  12.818
   91SAPE  H15X 8974   1.495   3.583  12.844
   91SAPE  H15Y 8975   1.320   3.617  12.881
   91SAPE  C316 8976   1.343   3.629  12.690
   91SAPE  H16X 8977   1.234   3.611  12.663
   91SAPE  H16Y 8978   1.398   3.596  12.599
   91SAPE  C317 8979   1.370   3.770  12.744
   91SAPE  H17X 8980   1.409   3.832  12.663
   91SAPE  H17Y 8981   1.461   3.765  12.807
   91SAPE  C318 8982   1.248   3.831  12.818
   91SAPE  H18X 8983   1.159   3.818  12.756
   91SAPE  H18Y 8984   1.257   3.939  12.836
   91SAPE  H18Z 8985   1.220   3.781  12.914
   92SAPE     N 8986   3.237   5.605  14.833
   92SAPE   HN1 8987   3.153   5.609  14.894
   92SAPE   HN2 8988   3.306   5.544  14.879
   92SAPE   HN3 8989   3.270   5.703  14.824
   92SAPE   C12 8990   3.187   5.561  14.698
   92SAPE  H12A 8991   3.121   5.474  14.716
   92SAPE  H12B 8992   3.272   5.526  14.637
   92SAPE   C11 8993   3.111   5.677  14.634
   92SAPE  H11A 8994   3.062   5.647  14.539
   92SAPE  H11B 8995   3.179   5.761  14.608
   92SAPE     P 8996   2.880   5.663  14.766
   92SAPE   O13 8997   2.886   5.638  14.912
   92SAPE   O14 8998   2.767   5.741  14.712
   92SAPE   O12 8999   3.017   5.729  14.726
   92SAPE   O11 9000   2.884   5.521  14.697
   92SAPE    C1 9001   2.845   5.408  14.779
   92SAPE    HA 9002   2.936   5.364  14.826
   92SAPE    HB 9003   2.768   5.432  14.855
   92SAPE    C2 9004   2.779   5.294  14.705
   92SAPE    HS 9005   2.725   5.216  14.759
   92SAPE   O21 9006   2.895   5.228  14.656
   92SAPE   C21 9007   3.022   5.174  14.670
   92SAPE   O22 9008   3.055   5.125  14.774
   92SAPE   C22 9009   3.125   5.181  14.536
   92SAPE   H2R 9010   3.227   5.154  14.565
   92SAPE   H2S 9011   3.108   5.095  14.469
   92SAPE    C3 9012   2.669   5.355  14.596
   92SAPE    HX 9013   2.607   5.424  14.658
   92SAPE    HY 9014   2.593   5.280  14.564
   92SAPE   O31 9015   2.714   5.438  14.485
   92SAPE   C31 9016   2.676   5.417  14.358
   92SAPE   O32 9017   2.609   5.328  14.312
   92SAPE   C32 9018   2.731   5.517  14.262
   92SAPE   H2X 9019   2.834   5.551  14.293
   92SAPE   H2Y 9020   2.661   5.599  14.267
   92SAPE   C23 9021   3.150   5.317  14.450
   92SAPE   H3R 9022   3.114   5.404  14.503
   92SAPE   H3S 9023   3.082   5.348  14.376
   92SAPE   C24 9024   3.249   5.314  14.331
   92SAPE   H4R 9025   3.246   5.214  14.283
   92SAPE   H4S 9026   3.337   5.329  14.393
   92SAPE   C25 9027   3.259   5.415  14.218
   92SAPE   H5R 9028   3.230   5.520  14.247
   92SAPE   C26 9029   3.256   5.378  14.087
   92SAPE   H6R 9030   3.235   5.467  14.021
   92SAPE   C27 9031   3.239   5.234  14.017
   92SAPE   H7R 9032   3.336   5.190  14.023
   92SAPE   H7S 9033   3.223   5.269  13.912
   92SAPE   C28 9034   3.139   5.109  14.044
   92SAPE   H8R 9035   3.129   5.103  14.154
   92SAPE   C29 9036   3.041   5.032  13.971
   92SAPE   H9R 9037   2.941   5.016  14.023
   92SAPE  C210 9038   2.998   5.045  13.824
   92SAPE  H10R 9039   3.047   4.958  13.788
   92SAPE  H10S 9040   3.058   5.124  13.775
   92SAPE  C211 9041   2.890   5.009  13.727
   92SAPE  H11R 9042   2.790   5.030  13.781
   92SAPE  C212 9043   2.892   5.075  13.606
   92SAPE  H12R 9044   2.812   5.123  13.597
   92SAPE  C213 9045   2.963   5.186  13.522
   92SAPE  H13R 9046   3.041   5.248  13.570
   92SAPE  H13S 9047   2.900   5.278  13.490
   92SAPE  C214 9048   2.985   5.123  13.397
   92SAPE  H14R 9049   3.092   5.110  13.391
   92SAPE  C215 9050   2.906   5.110  13.290
   92SAPE  H15R 9051   2.927   5.024  13.230
   92SAPE  C216 9052   2.767   5.155  13.261
   92SAPE  H16R 9053   2.720   5.183  13.349
   92SAPE  H16S 9054   2.709   5.067  13.228
   92SAPE  C217 9055   2.729   5.283  13.187
   92SAPE  H17R 9056   2.766   5.271  13.085
   92SAPE  H17S 9057   2.781   5.371  13.236
   92SAPE  C218 9058   2.580   5.314  13.176
   92SAPE  H18R 9059   2.540   5.350  13.272
   92SAPE  H18S 9060   2.492   5.257  13.173
   92SAPE  C219 9061   2.546   5.395  13.057
   92SAPE  H19R 9062   2.633   5.450  13.017
   92SAPE  H19S 9063   2.487   5.462  13.117
   92SAPE  C220 9064   2.435   5.349  12.971
   92SAPE  H20R 9065   2.477   5.259  12.926
   92SAPE  H20S 9066   2.410   5.425  12.896
   92SAPE  H20T 9067   2.346   5.334  13.039
   92SAPE   C33 9068   2.724   5.470  14.116
   92SAPE   H3X 9069   2.630   5.430  14.077
   92SAPE   H3Y 9070   2.758   5.366  14.102
   92SAPE   C34 9071   2.801   5.588  14.038
   92SAPE   H4X 9072   2.905   5.610  14.071
   92SAPE   H4Y 9073   2.738   5.673  14.048
   92SAPE   C35 9074   2.828   5.577  13.889
   92SAPE   H5X 9075   2.741   5.567  13.831
   92SAPE   H5Y 9076   2.818   5.488  13.936
   92SAPE   C36 9077   2.961   5.579  13.806
   92SAPE   H6X 9078   2.948   5.545  13.700
   92SAPE   H6Y 9079   3.054   5.529  13.836
   92SAPE   C37 9080   3.017   5.712  13.828
   92SAPE   H7X 9081   3.114   5.723  13.776
   92SAPE   H7Y 9082   3.036   5.709  13.938
   92SAPE   C38 9083   2.916   5.817  13.791
   92SAPE   H8X 9084   2.962   5.909  13.830
   92SAPE   H8Y 9085   2.818   5.805  13.844
   92SAPE   C39 9086   2.892   5.824  13.641
   92SAPE   H9X 9087   2.814   5.898  13.616
   92SAPE   H9Y 9088   2.854   5.730  13.604
   92SAPE  C310 9089   3.015   5.844  13.553
   92SAPE  H10X 9090   3.073   5.749  13.551
   92SAPE  H10Y 9091   3.079   5.921  13.601
   92SAPE  C311 9092   2.968   5.886  13.413
   92SAPE  H11X 9093   2.908   5.979  13.421
   92SAPE  H11Y 9094   2.900   5.807  13.373
   92SAPE  C312 9095   3.079   5.918  13.311
   92SAPE  H12X 9096   3.127   6.011  13.349
   92SAPE  H12Y 9097   3.034   5.941  13.212
   92SAPE  C313 9098   3.185   5.809  13.296
   92SAPE  H13X 9099   3.220   5.788  13.399
   92SAPE  H13Y 9100   3.273   5.848  13.240
   92SAPE  C314 9101   3.134   5.676  13.235
   92SAPE  H14X 9102   3.047   5.643  13.297
   92SAPE  H14Y 9103   3.215   5.601  13.251
   92SAPE  C315 9104   3.087   5.671  13.087
   92SAPE  H15X 9105   3.003   5.745  13.073
   92SAPE  H15Y 9106   3.047   5.570  13.065
   92SAPE  C316 9107   3.190   5.696  12.973
   92SAPE  H16X 9108   3.209   5.804  13.001
   92SAPE  H16Y 9109   3.143   5.701  12.875
   92SAPE  C317 9110   3.314   5.594  12.958
   92SAPE  H17X 9111   3.312   5.492  12.996
   92SAPE  H17Y 9112   3.331   5.642  13.054
   92SAPE  C318 9113   3.439   5.588  12.850
   92SAPE  H18X 9114   3.479   5.681  12.811
   92SAPE  H18Y 9115   3.409   5.604  12.749
   92SAPE  H18Z 9116   3.546   5.591  12.887
   93SAPE     N 9117   5.714   3.527  14.996
   93SAPE   HN1 9118   5.812   3.494  15.014
   93SAPE   HN2 9119   5.714   3.631  14.990
   93SAPE   HN3 9120   5.649   3.493  15.071
   93SAPE   C12 9121   5.668   3.478  14.861
   93SAPE  H12A 9122   5.686   3.560  14.788
   93SAPE  H12B 9123   5.559   3.461  14.865
   93SAPE   C11 9124   5.739   3.348  14.821
   93SAPE  H11A 9125   5.689   3.309  14.729
   93SAPE  H11B 9126   5.723   3.272  14.901
   93SAPE     P 9127   5.942   3.357  14.656
   93SAPE   O13 9128   6.086   3.386  14.653
   93SAPE   O14 9129   5.887   3.238  14.589
   93SAPE   O12 9130   5.881   3.367  14.804
   93SAPE   O11 9131   5.869   3.478  14.596
   93SAPE    C1 9132   5.915   3.608  14.627
   93SAPE    HA 9133   5.860   3.652  14.714
   93SAPE    HB 9134   6.026   3.622  14.641
   93SAPE    C2 9135   5.888   3.690  14.507
   93SAPE    HS 9136   5.866   3.788  14.558
   93SAPE   O21 9137   5.783   3.655  14.424
   93SAPE   C21 9138   5.671   3.648  14.473
   93SAPE   O22 9139   5.632   3.675  14.587
   93SAPE   C22 9140   5.592   3.577  14.365
   93SAPE   H2R 9141   5.617   3.486  14.416
   93SAPE   H2S 9142   5.482   3.588  14.361
   93SAPE    C3 9143   5.999   3.697  14.400
   93SAPE    HX 9144   6.095   3.728  14.434
   93SAPE    HY 9145   5.968   3.762  14.315
   93SAPE   O31 9146   6.037   3.575  14.353
   93SAPE   C31 9147   5.980   3.538  14.245
   93SAPE   O32 9148   5.913   3.604  14.167
   93SAPE   C32 9149   6.044   3.403  14.233
   93SAPE   H2X 9150   6.055   3.361  14.335
   93SAPE   H2Y 9151   6.145   3.424  14.193
   93SAPE   C23 9152   5.628   3.567  14.216
   93SAPE   H3R 9153   5.692   3.482  14.193
   93SAPE   H3S 9154   5.694   3.655  14.204
   93SAPE   C24 9155   5.505   3.566  14.122
   93SAPE   H4R 9156   5.464   3.660  14.098
   93SAPE   H4S 9157   5.401   3.530  14.136
   93SAPE   C25 9158   5.569   3.577  13.998
   93SAPE   H5R 9159   5.594   3.677  13.974
   93SAPE   C26 9160   5.585   3.484  13.912
   93SAPE   H6R 9161   5.616   3.503  13.810
   93SAPE   C27 9162   5.532   3.356  13.943
   93SAPE   H7R 9163   5.478   3.337  13.857
   93SAPE   H7S 9164   5.460   3.357  14.025
   93SAPE   C28 9165   5.651   3.276  13.958
   93SAPE   H8R 9166   5.706   3.299  14.048
   93SAPE   C29 9167   5.696   3.192  13.867
   93SAPE   H9R 9168   5.790   3.143  13.891
   93SAPE  C210 9169   5.634   3.162  13.736
   93SAPE  H10R 9170   5.653   3.241  13.660
   93SAPE  H10S 9171   5.528   3.130  13.746
   93SAPE  C211 9172   5.681   3.041  13.683
   93SAPE  H11R 9173   5.644   2.960  13.742
   93SAPE  C212 9174   5.750   3.018  13.578
   93SAPE  H12R 9175   5.774   2.916  13.579
   93SAPE  C213 9176   5.809   3.103  13.472
   93SAPE  H13R 9177   5.904   3.053  13.441
   93SAPE  H13S 9178   5.833   3.199  13.520
   93SAPE  C214 9179   5.713   3.123  13.357
   93SAPE  H14R 9180   5.610   3.144  13.388
   93SAPE  C215 9181   5.733   3.109  13.225
   93SAPE  H15R 9182   5.643   3.117  13.162
   93SAPE  C216 9183   5.859   3.068  13.153
   93SAPE  H16R 9184   5.831   3.007  13.063
   93SAPE  H16S 9185   5.921   3.001  13.218
   93SAPE  C217 9186   5.955   3.180  13.110
   93SAPE  H17R 9187   6.045   3.133  13.063
   93SAPE  H17S 9188   5.990   3.235  13.200
   93SAPE  C218 9189   5.897   3.280  13.010
   93SAPE  H18R 9190   5.823   3.344  13.063
   93SAPE  H18S 9191   5.844   3.229  12.926
   93SAPE  C219 9192   6.004   3.370  12.950
   93SAPE  H19R 9193   6.086   3.308  12.908
   93SAPE  H19S 9194   6.046   3.432  13.033
   93SAPE  C220 9195   5.945   3.460  12.842
   93SAPE  H20R 9196   5.897   3.402  12.761
   93SAPE  H20S 9197   6.024   3.519  12.795
   93SAPE  H20T 9198   5.870   3.529  12.886
   93SAPE   C33 9199   5.962   3.307  14.147
   93SAPE   H3X 9200   5.946   3.357  14.049
   93SAPE   H3Y 9201   5.861   3.290  14.192
   93SAPE   C34 9202   6.028   3.170  14.130
   93SAPE   H4X 9203   5.961   3.112  14.064
   93SAPE   H4Y 9204   6.036   3.117  14.228
   93SAPE   C35 9205   6.166   3.171  14.065
   93SAPE   H5X 9206   6.197   3.067  14.045
   93SAPE   H5Y 9207   6.237   3.215  14.139
   93SAPE   C36 9208   6.162   3.253  13.936
   93SAPE   H6X 9209   6.257   3.258  13.881
   93SAPE   H6Y 9210   6.136   3.356  13.969
   93SAPE   C37 9211   6.084   3.200  13.815
   93SAPE   H7X 9212   5.987   3.162  13.848
   93SAPE   H7Y 9213   6.146   3.116  13.776
   93SAPE   C38 9214   6.063   3.300  13.699
   93SAPE   H8X 9215   6.005   3.251  13.618
   93SAPE   H8Y 9216   6.158   3.335  13.653
   93SAPE   C39 9217   5.980   3.418  13.745
   93SAPE   H9X 9218   6.023   3.465  13.836
   93SAPE   H9Y 9219   5.877   3.383  13.768
   93SAPE  C310 9220   5.975   3.527  13.643
   93SAPE  H10X 9221   5.955   3.491  13.540
   93SAPE  H10Y 9222   6.074   3.579  13.644
   93SAPE  C311 9223   5.865   3.623  13.679
   93SAPE  H11X 9224   5.871   3.656  13.786
   93SAPE  H11Y 9225   5.763   3.586  13.661
   93SAPE  C312 9226   5.894   3.741  13.594
   93SAPE  H12X 9227   5.993   3.764  13.633
   93SAPE  H12Y 9228   5.826   3.821  13.623
   93SAPE  C313 9229   5.941   3.745  13.453
   93SAPE  H13X 9230   6.037   3.690  13.447
   93SAPE  H13Y 9231   5.958   3.848  13.414
   93SAPE  C314 9232   5.842   3.679  13.369
   93SAPE  H14X 9233   5.751   3.735  13.375
   93SAPE  H14Y 9234   5.818   3.581  13.413
   93SAPE  C315 9235   5.886   3.684  13.227
   93SAPE  H15X 9236   5.870   3.583  13.186
   93SAPE  H15Y 9237   5.992   3.718  13.220
   93SAPE  C316 9238   5.828   3.800  13.150
   93SAPE  H16X 9239   5.863   3.788  13.043
   93SAPE  H16Y 9240   5.823   3.901  13.193
   93SAPE  C317 9241   5.689   3.805  13.128
   93SAPE  H17X 9242   5.608   3.797  13.179
   93SAPE  H17Y 9243   5.688   3.698  13.085
   93SAPE  C318 9244   5.637   3.951  13.083
   93SAPE  H18X 9245   5.536   3.973  13.121
   93SAPE  H18Y 9246   5.546   3.962  13.021
   93SAPE  H18Z 9247   5.680   3.976  12.985
   94SAPE     N 9248   4.127   5.743  14.580
   94SAPE   HN1 9249   4.058   5.704  14.511
   94SAPE   HN2 9250   4.214   5.767  14.529
   94SAPE   HN3 9251   4.147   5.666  14.646
   94SAPE   C12 9252   4.072   5.859  14.657
   94SAPE  H12A 9253   3.988   5.823  14.720
   94SAPE  H12B 9254   4.035   5.935  14.585
   94SAPE   C11 9255   4.182   5.915  14.745
   94SAPE  H11A 9256   4.262   5.959  14.682
   94SAPE  H11B 9257   4.232   5.837  14.805
   94SAPE     P 9258   4.099   6.155  14.802
   94SAPE   O13 9259   3.970   6.159  14.729
   94SAPE   O14 9260   4.119   6.240  14.920
   94SAPE   O12 9261   4.124   6.005  14.839
   94SAPE   O11 9262   4.215   6.175  14.705
   94SAPE    C1 9263   4.215   6.292  14.628
   94SAPE    HA 9264   4.137   6.372  14.642
   94SAPE    HB 9265   4.300   6.337  14.679
   94SAPE    C2 9266   4.220   6.246  14.481
   94SAPE    HS 9267   4.235   6.337  14.417
   94SAPE   O21 9268   4.101   6.174  14.449
   94SAPE   C21 9269   4.027   6.225  14.355
   94SAPE   O22 9270   4.044   6.329  14.293
   94SAPE   C22 9271   3.910   6.130  14.333
   94SAPE   H2R 9272   3.901   6.063  14.421
   94SAPE   H2S 9273   3.818   6.192  14.328
   94SAPE    C3 9274   4.342   6.146  14.465
   94SAPE    HX 9275   4.328   6.059  14.527
   94SAPE    HY 9276   4.434   6.190  14.512
   94SAPE   O31 9277   4.362   6.085  14.334
   94SAPE   C31 9278   4.424   6.180  14.269
   94SAPE   O32 9279   4.431   6.289  14.320
   94SAPE   C32 9280   4.452   6.130  14.119
   94SAPE   H2X 9281   4.349   6.149  14.088
   94SAPE   H2Y 9282   4.429   6.027  14.107
   94SAPE   C23 9283   3.926   6.046  14.203
   94SAPE   H3R 9284   3.976   6.103  14.122
   94SAPE   H3S 9285   3.823   6.025  14.165
   94SAPE   C24 9286   3.993   5.909  14.225
   94SAPE   H4R 9287   3.960   5.847  14.139
   94SAPE   H4S 9288   3.947   5.859  14.313
   94SAPE   C25 9289   4.143   5.904  14.238
   94SAPE   H5R 9290   4.189   5.925  14.336
   94SAPE   C26 9291   4.224   5.879  14.134
   94SAPE   H6R 9292   4.332   5.875  14.151
   94SAPE   C27 9293   4.175   5.854  13.994
   94SAPE   H7R 9294   4.114   5.941  13.962
   94SAPE   H7S 9295   4.104   5.768  13.993
   94SAPE   C28 9296   4.290   5.834  13.898
   94SAPE   H8R 9297   4.387   5.807  13.942
   94SAPE   C29 9298   4.286   5.860  13.767
   94SAPE   H9R 9299   4.376   5.841  13.707
   94SAPE  C210 9300   4.168   5.912  13.689
   94SAPE  H10R 9301   4.089   5.958  13.754
   94SAPE  H10S 9302   4.121   5.822  13.653
   94SAPE  C211 9303   4.202   6.002  13.573
   94SAPE  H11R 9304   4.214   6.107  13.603
   94SAPE  C212 9305   4.226   5.972  13.442
   94SAPE  H12R 9306   4.248   6.057  13.377
   94SAPE  C213 9307   4.230   5.843  13.362
   94SAPE  H13R 9308   4.170   5.767  13.396
   94SAPE  H13S 9309   4.325   5.789  13.377
   94SAPE  C214 9310   4.176   5.837  13.223
   94SAPE  H14R 9311   4.073   5.798  13.211
   94SAPE  C215 9312   4.243   5.873  13.115
   94SAPE  H15R 9313   4.197   5.853  13.018
   94SAPE  C216 9314   4.383   5.928  13.114
   94SAPE  H16R 9315   4.454   5.850  13.078
   94SAPE  H16S 9316   4.415   5.961  13.215
   94SAPE  C217 9317   4.400   6.041  13.011
   94SAPE  H17R 9318   4.501   6.087  13.022
   94SAPE  H17S 9319   4.325   6.121  13.030
   94SAPE  C218 9320   4.389   5.981  12.870
   94SAPE  H18R 9321   4.281   5.962  12.846
   94SAPE  H18S 9322   4.447   5.887  12.860
   94SAPE  C219 9323   4.442   6.070  12.764
   94SAPE  H19R 9324   4.404   6.037  12.663
   94SAPE  H19S 9325   4.551   6.086  12.751
   94SAPE  C220 9326   4.389   6.200  12.801
   94SAPE  H20R 9327   4.283   6.187  12.768
   94SAPE  H20S 9328   4.453   6.270  12.742
   94SAPE  H20T 9329   4.366   6.254  12.892
   94SAPE   C33 9330   4.579   6.158  14.019
   94SAPE   H3X 9331   4.663   6.109  14.069
   94SAPE   H3Y 9332   4.633   6.252  14.001
   94SAPE   C34 9333   4.576   6.144  13.866
   94SAPE   H4X 9334   4.528   6.047  13.851
   94SAPE   H4Y 9335   4.683   6.152  13.833
   94SAPE   C35 9336   4.508   6.250  13.776
   94SAPE   H5X 9337   4.536   6.357  13.785
   94SAPE   H5Y 9338   4.402   6.230  13.793
   94SAPE   C36 9339   4.515   6.224  13.629
   94SAPE   H6X 9340   4.459   6.129  13.617
   94SAPE   H6Y 9341   4.622   6.214  13.603
   94SAPE   C37 9342   4.449   6.327  13.538
   94SAPE   H7X 9343   4.480   6.431  13.562
   94SAPE   H7Y 9344   4.339   6.321  13.550
   94SAPE   C38 9345   4.475   6.281  13.395
   94SAPE   H8X 9346   4.434   6.177  13.388
   94SAPE   H8Y 9347   4.583   6.280  13.373
   94SAPE   C39 9348   4.404   6.360  13.289
   94SAPE   H9X 9349   4.428   6.317  13.189
   94SAPE   H9Y 9350   4.440   6.466  13.293
   94SAPE  C310 9351   4.254   6.354  13.308
   94SAPE  H10X 9352   4.235   6.430  13.384
   94SAPE  H10Y 9353   4.205   6.260  13.334
   94SAPE  C311 9354   4.185   6.412  13.194
   94SAPE  H11X 9355   4.220   6.378  13.094
   94SAPE  H11Y 9356   4.229   6.512  13.208
   94SAPE  C312 9357   4.035   6.404  13.208
   94SAPE  H12X 9358   3.983   6.501  13.235
   94SAPE  H12Y 9359   3.993   6.323  13.269
   94SAPE  C313 9360   3.985   6.371  13.073
   94SAPE  H13X 9361   4.037   6.459  13.027
   94SAPE  H13Y 9362   3.873   6.376  13.084
   94SAPE  C314 9363   4.020   6.263  12.969
   94SAPE  H14X 9364   3.998   6.171  13.026
   94SAPE  H14Y 9365   4.127   6.277  12.942
   94SAPE  C315 9366   3.933   6.235  12.840
   94SAPE  H15X 9367   3.825   6.220  12.855
   94SAPE  H15Y 9368   3.982   6.148  12.791
   94SAPE  C316 9369   3.932   6.324  12.722
   94SAPE  H16X 9370   4.040   6.359  12.722
   94SAPE  H16Y 9371   3.880   6.416  12.727
   94SAPE  C317 9372   3.838   6.306  12.594
   94SAPE  H17X 9373   3.806   6.405  12.552
   94SAPE  H17Y 9374   3.739   6.272  12.622
   94SAPE  C318 9375   3.902   6.239  12.475
   94SAPE  H18X 9376   3.868   6.244  12.371
   94SAPE  H18Y 9377   3.913   6.135  12.511
   94SAPE  H18Z 9378   4.001   6.289  12.460
   95SAPE     N 9379   0.894   3.442  14.540
   95SAPE   HN1 9380   0.853   3.480  14.453
   95SAPE   HN2 9381   0.978   3.497  14.569
   95SAPE   HN3 9382   0.928   3.344  14.525
   95SAPE   C12 9383   0.800   3.436  14.656
   95SAPE  H12A 9384   0.718   3.369  14.624
   95SAPE  H12B 9385   0.756   3.537  14.675
   95SAPE   C11 9386   0.875   3.388  14.781
   95SAPE  H11A 9387   0.935   3.296  14.760
   95SAPE  H11B 9388   0.802   3.358  14.859
   95SAPE     P 9389   1.101   3.527  14.804
   95SAPE   O13 9390   1.098   3.660  14.740
   95SAPE   O14 9391   1.188   3.507  14.922
   95SAPE   O12 9392   0.951   3.494  14.839
   95SAPE   O11 9393   1.130   3.420  14.691
   95SAPE    C1 9394   1.267   3.400  14.658
   95SAPE    HA 9395   1.339   3.424  14.741
   95SAPE    HB 9396   1.284   3.292  14.639
   95SAPE    C2 9397   1.301   3.489  14.536
   95SAPE    HS 9398   1.292   3.597  14.566
   95SAPE   O21 9399   1.222   3.450  14.422
   95SAPE   C21 9400   1.163   3.545  14.355
   95SAPE   O22 9401   1.145   3.661  14.388
   95SAPE   C22 9402   1.100   3.480  14.234
   95SAPE   H2R 9403   1.182   3.440  14.170
   95SAPE   H2S 9404   1.035   3.398  14.269
   95SAPE    C3 9405   1.446   3.472  14.499
   95SAPE    HX 9406   1.459   3.364  14.475
   95SAPE    HY 9407   1.506   3.493  14.589
   95SAPE   O31 9408   1.485   3.548  14.384
   95SAPE   C31 9409   1.486   3.679  14.390
   95SAPE   O32 9410   1.468   3.749  14.487
   95SAPE   C32 9411   1.498   3.734  14.248
   95SAPE   H2X 9412   1.604   3.758  14.251
   95SAPE   H2Y 9413   1.460   3.837  14.243
   95SAPE   C23 9414   1.009   3.574  14.155
   95SAPE   H3R 9415   0.937   3.628  14.222
   95SAPE   H3S 9416   0.950   3.507  14.085
   95SAPE   C24 9417   1.088   3.673  14.074
   95SAPE   H4R 9418   1.163   3.620  14.012
   95SAPE   H4S 9419   1.140   3.751  14.131
   95SAPE   C25 9420   0.966   3.722  14.004
   95SAPE   H5R 9421   0.903   3.801  14.047
   95SAPE   C26 9422   0.951   3.703  13.881
   95SAPE   H6R 9423   0.876   3.773  13.840
   95SAPE   C27 9424   1.055   3.632  13.795
   95SAPE   H7R 9425   1.158   3.612  13.826
   95SAPE   H7S 9426   1.119   3.712  13.762
   95SAPE   C28 9427   1.003   3.525  13.705
   95SAPE   H8R 9428   1.020   3.437  13.766
   95SAPE   C29 9429   0.948   3.506  13.581
   95SAPE   H9R 9430   0.912   3.404  13.561
   95SAPE  C210 9431   0.907   3.593  13.465
   95SAPE  H10R 9432   0.898   3.691  13.506
   95SAPE  H10S 9433   0.801   3.589  13.436
   95SAPE  C211 9434   0.998   3.588  13.343
   95SAPE  H11R 9435   1.090   3.529  13.355
   95SAPE  C212 9436   0.983   3.658  13.229
   95SAPE  H12R 9437   1.071   3.673  13.164
   95SAPE  C213 9438   0.873   3.756  13.195
   95SAPE  H13R 9439   0.919   3.843  13.152
   95SAPE  H13S 9440   0.808   3.796  13.276
   95SAPE  C214 9441   0.765   3.713  13.115
   95SAPE  H14R 9442   0.714   3.628  13.161
   95SAPE  C215 9443   0.736   3.774  13.001
   95SAPE  H15R 9444   0.647   3.742  12.950
   95SAPE  C216 9445   0.812   3.892  12.944
   95SAPE  H16R 9446   0.911   3.922  12.988
   95SAPE  H16S 9447   0.754   3.981  12.950
   95SAPE  C217 9448   0.830   3.889  12.795
   95SAPE  H17R 9449   0.883   3.986  12.774
   95SAPE  H17S 9450   0.733   3.891  12.742
   95SAPE  C218 9451   0.918   3.774  12.755
   95SAPE  H18R 9452   0.995   3.761  12.835
   95SAPE  H18S 9453   0.960   3.806  12.659
   95SAPE  C219 9454   0.855   3.637  12.731
   95SAPE  H19R 9455   0.869   3.578  12.824
   95SAPE  H19S 9456   0.916   3.590  12.650
   95SAPE  C220 9457   0.709   3.633  12.688
   95SAPE  H20R 9458   0.644   3.681  12.764
   95SAPE  H20S 9459   0.677   3.528  12.678
   95SAPE  H20T 9460   0.694   3.684  12.591
   95SAPE   C33 9461   1.434   3.642  14.134
   95SAPE   H3X 9462   1.336   3.690  14.120
   95SAPE   H3Y 9463   1.431   3.535  14.161
   95SAPE   C34 9464   1.490   3.645  13.990
   95SAPE   H4X 9465   1.583   3.584  13.987
   95SAPE   H4Y 9466   1.497   3.755  13.990
   95SAPE   C35 9467   1.447   3.580  13.860
   95SAPE   H5X 9468   1.352   3.628  13.836
   95SAPE   H5Y 9469   1.446   3.472  13.883
   95SAPE   C36 9470   1.545   3.594  13.740
   95SAPE   H6X 9471   1.648   3.553  13.753
   95SAPE   H6Y 9472   1.556   3.699  13.717
   95SAPE   C37 9473   1.484   3.584  13.603
   95SAPE   H7X 9474   1.398   3.656  13.603
   95SAPE   H7Y 9475   1.446   3.481  13.591
   95SAPE   C38 9476   1.585   3.629  13.495
   95SAPE   H8X 9477   1.661   3.548  13.482
   95SAPE   H8Y 9478   1.640   3.721  13.523
   95SAPE   C39 9479   1.523   3.665  13.362
   95SAPE   H9X 9480   1.601   3.712  13.298
   95SAPE   H9Y 9481   1.438   3.737  13.376
   95SAPE  C310 9482   1.475   3.541  13.292
   95SAPE  H10X 9483   1.412   3.482  13.364
   95SAPE  H10Y 9484   1.563   3.474  13.272
   95SAPE  C311 9485   1.383   3.578  13.168
   95SAPE  H11X 9486   1.456   3.587  13.082
   95SAPE  H11Y 9487   1.339   3.675  13.176
   95SAPE  C312 9488   1.248   3.485  13.157
   95SAPE  H12X 9489   1.228   3.391  13.211
   95SAPE  H12Y 9490   1.335   3.439  13.186
   95SAPE  C313 9491   1.160   3.472  13.014
   95SAPE  H13X 9492   1.252   3.506  12.986
   95SAPE  H13Y 9493   1.100   3.561  13.006
   95SAPE  C314 9494   1.119   3.355  12.890
   95SAPE  H14X 9495   1.031   3.370  12.829
   95SAPE  H14Y 9496   1.088   3.280  12.964
   95SAPE  C315 9497   1.207   3.260  12.788
   95SAPE  H15X 9498   1.290   3.196  12.816
   95SAPE  H15Y 9499   1.294   3.278  12.740
   95SAPE  C316 9500   1.195   3.170  12.691
   95SAPE  H16X 9501   1.146   3.227  12.617
   95SAPE  H16Y 9502   1.136   3.114  12.766
   95SAPE  C317 9503   1.339   3.126  12.634
   95SAPE  H17X 9504   1.331   3.025  12.613
   95SAPE  H17Y 9505   1.409   3.067  12.684
   95SAPE  C318 9506   1.426   3.225  12.555
   95SAPE  H18X 9507   1.483   3.189  12.471
   95SAPE  H18Y 9508   1.511   3.273  12.610
   95SAPE  H18Z 9509   1.348   3.279  12.504
   96SAPE     N 9510   3.613   6.122  14.766
   96SAPE   HN1 9511   3.717   6.139  14.771
   96SAPE   HN2 9512   3.577   6.111  14.864
   96SAPE   HN3 9513   3.590   6.034  14.716
   96SAPE   C12 9514   3.547   6.239  14.696
   96SAPE  H12A 9515   3.443   6.212  14.668
   96SAPE  H12B 9516   3.604   6.260  14.604
   96SAPE   C11 9517   3.550   6.364  14.784
   96SAPE  H11A 9518   3.656   6.389  14.809
   96SAPE  H11B 9519   3.494   6.344  14.878
   96SAPE     P 9520   3.359   6.534  14.752
   96SAPE   O13 9521   3.264   6.420  14.748
   96SAPE   O14 9522   3.373   6.605  14.881
   96SAPE   O12 9523   3.500   6.475  14.710
   96SAPE   O11 9524   3.334   6.637  14.637
   96SAPE    C1 9525   3.421   6.749  14.610
   96SAPE    HA 9526   3.373   6.843  14.644
   96SAPE    HB 9527   3.518   6.742  14.665
   96SAPE    C2 9528   3.454   6.755  14.459
   96SAPE    HS 9529   3.513   6.848  14.439
   96SAPE   O21 9530   3.335   6.747  14.380
   96SAPE   C21 9531   3.317   6.833  14.285
   96SAPE   O22 9532   3.384   6.931  14.257
   96SAPE   C22 9533   3.200   6.778  14.207
   96SAPE   H2R 9534   3.186   6.669  14.217
   96SAPE   H2S 9535   3.109   6.826  14.248
   96SAPE    C3 9536   3.540   6.632  14.424
   96SAPE    HX 9537   3.472   6.544  14.431
   96SAPE    HY 9538   3.623   6.614  14.496
   96SAPE   O31 9539   3.583   6.639  14.288
   96SAPE   C31 9540   3.705   6.681  14.271
   96SAPE   O32 9541   3.785   6.717  14.355
   96SAPE   C32 9542   3.735   6.661  14.125
   96SAPE   H2X 9543   3.677   6.740  14.070
   96SAPE   H2Y 9544   3.692   6.569  14.085
   96SAPE   C23 9545   3.233   6.803  14.061
   96SAPE   H3R 9546   3.320   6.742  14.030
   96SAPE   H3S 9547   3.254   6.912  14.047
   96SAPE   C24 9548   3.125   6.759  13.968
   96SAPE   H4R 9549   3.060   6.837  13.938
   96SAPE   H4S 9550   3.063   6.674  13.997
   96SAPE   C25 9551   3.173   6.735  13.837
   96SAPE   H5R 9552   3.069   6.719  13.796
   96SAPE   C26 9553   3.259   6.822  13.775
   96SAPE   H6R 9554   3.255   6.826  13.666
   96SAPE   C27 9555   3.326   6.956  13.812
   96SAPE   H7R 9556   3.294   7.019  13.899
   96SAPE   H7S 9557   3.323   7.029  13.730
   96SAPE   C28 9558   3.452   6.883  13.822
   96SAPE   H8R 9559   3.455   6.799  13.891
   96SAPE   C29 9560   3.557   6.899  13.746
   96SAPE   H9R 9561   3.640   6.835  13.768
   96SAPE  C210 9562   3.578   6.990  13.636
   96SAPE  H10R 9563   3.632   7.075  13.686
   96SAPE  H10S 9564   3.486   7.024  13.584
   96SAPE  C211 9565   3.663   6.920  13.539
   96SAPE  H11R 9566   3.757   6.978  13.535
   96SAPE  C212 9567   3.624   6.881  13.419
   96SAPE  H12R 9568   3.699   6.850  13.347
   96SAPE  C213 9569   3.501   6.893  13.343
   96SAPE  H13R 9570   3.452   6.992  13.364
   96SAPE  H13S 9571   3.450   6.809  13.389
   96SAPE  C214 9572   3.523   6.867  13.193
   96SAPE  H14R 9573   3.618   6.882  13.141
   96SAPE  C215 9574   3.429   6.870  13.107
   96SAPE  H15R 9575   3.453   6.867  13.003
   96SAPE  C216 9576   3.293   6.898  13.143
   96SAPE  H16R 9577   3.247   6.980  13.091
   96SAPE  H16S 9578   3.288   6.921  13.244
   96SAPE  C217 9579   3.204   6.805  13.099
   96SAPE  H17R 9580   3.103   6.839  13.134
   96SAPE  H17S 9581   3.233   6.705  13.139
   96SAPE  C218 9582   3.221   6.811  12.957
   96SAPE  H18R 9583   3.316   6.785  12.904
   96SAPE  H18S 9584   3.205   6.913  12.912
   96SAPE  C219 9585   3.152   6.680  12.955
   96SAPE  H19R 9586   3.227   6.609  12.924
   96SAPE  H19S 9587   3.172   6.685  12.849
   96SAPE  C220 9588   3.000   6.626  13.024
   96SAPE  H20R 9589   2.984   6.640  13.127
   96SAPE  H20S 9590   2.920   6.575  12.964
   96SAPE  H20T 9591   2.902   6.675  12.994
   96SAPE   C33 9592   3.888   6.654  14.102
   96SAPE   H3X 9593   3.952   6.586  14.159
   96SAPE   H3Y 9594   3.926   6.736  14.166
   96SAPE   C34 9595   3.918   6.650  13.949
   96SAPE   H4X 9596   4.025   6.659  13.919
   96SAPE   H4Y 9597   3.860   6.719  13.886
   96SAPE   C35 9598   3.867   6.523  13.893
   96SAPE   H5X 9599   3.757   6.528  13.898
   96SAPE   H5Y 9600   3.918   6.452  13.963
   96SAPE   C36 9601   3.889   6.499  13.747
   96SAPE   H6X 9602   3.877   6.393  13.718
   96SAPE   H6Y 9603   3.985   6.534  13.727
   96SAPE   C37 9604   3.854   6.598  13.640
   96SAPE   H7X 9605   3.903   6.555  13.547
   96SAPE   H7Y 9606   3.896   6.697  13.667
   96SAPE   C38 9607   3.715   6.605  13.601
   96SAPE   H8X 9608   3.711   6.662  13.505
   96SAPE   H8Y 9609   3.666   6.659  13.683
   96SAPE   C39 9610   3.666   6.464  13.583
   96SAPE   H9X 9611   3.619   6.433  13.678
   96SAPE   H9Y 9612   3.748   6.391  13.560
   96SAPE  C310 9613   3.574   6.460  13.464
   96SAPE  H10X 9614   3.623   6.510  13.378
   96SAPE  H10Y 9615   3.486   6.521  13.493
   96SAPE  C311 9616   3.535   6.317  13.427
   96SAPE  H11X 9617   3.539   6.253  13.519
   96SAPE  H11Y 9618   3.608   6.271  13.357
   96SAPE  C312 9619   3.396   6.312  13.364
   96SAPE  H12X 9620   3.322   6.319  13.447
   96SAPE  H12Y 9621   3.385   6.214  13.314
   96SAPE  C313 9622   3.364   6.426  13.264
   96SAPE  H13X 9623   3.369   6.523  13.317
   96SAPE  H13Y 9624   3.260   6.411  13.227
   96SAPE  C314 9625   3.450   6.431  13.138
   96SAPE  H14X 9626   3.556   6.450  13.166
   96SAPE  H14Y 9627   3.416   6.518  13.077
   96SAPE  C315 9628   3.434   6.296  13.065
   96SAPE  H15X 9629   3.329   6.285  13.030
   96SAPE  H15Y 9630   3.461   6.215  13.133
   96SAPE  C316 9631   3.525   6.261  12.950
   96SAPE  H16X 9632   3.485   6.178  12.889
   96SAPE  H16Y 9633   3.634   6.248  12.973
   96SAPE  C317 9634   3.519   6.373  12.865
   96SAPE  H17X 9635   3.416   6.417  12.856
   96SAPE  H17Y 9636   3.547   6.326  12.766
   96SAPE  C318 9637   3.618   6.480  12.903
   96SAPE  H18X 9638   3.601   6.589  12.886
   96SAPE  H18Y 9639   3.682   6.466  12.813
   96SAPE  H18Z 9640   3.673   6.466  12.997
   97SAPE     N 9641   6.506   2.483  14.772
   97SAPE   HN1 9642   6.610   2.483  14.761
   97SAPE   HN2 9643   6.492   2.395  14.827
   97SAPE   HN3 9644   6.460   2.481  14.679
   97SAPE   C12 9645   6.470   2.601  14.856
   97SAPE  H12A 9646   6.510   2.690  14.803
   97SAPE  H12B 9647   6.521   2.586  14.954
   97SAPE   C11 9648   6.319   2.621  14.874
   97SAPE  H11A 9649   6.303   2.706  14.945
   97SAPE  H11B 9650   6.272   2.531  14.917
   97SAPE     P 9651   6.235   2.798  14.698
   97SAPE   O13 9652   6.105   2.842  14.751
   97SAPE   O14 9653   6.359   2.875  14.725
   97SAPE   O12 9654   6.259   2.648  14.749
   97SAPE   O11 9655   6.221   2.768  14.544
   97SAPE    C1 9656   6.135   2.662  14.499
   97SAPE    HA 9657   6.068   2.621  14.578
   97SAPE    HB 9658   6.070   2.701  14.418
   97SAPE    C2 9659   6.217   2.547  14.439
   97SAPE    HS 9660   6.285   2.506  14.517
   97SAPE   O21 9661   6.288   2.595  14.325
   97SAPE   C21 9662   6.405   2.644  14.342
   97SAPE   O22 9663   6.470   2.648  14.446
   97SAPE   C22 9664   6.449   2.691  14.203
   97SAPE   H2R 9665   6.451   2.602  14.137
   97SAPE   H2S 9666   6.372   2.763  14.167
   97SAPE    C3 9667   6.124   2.435  14.390
   97SAPE    HX 9668   6.031   2.486  14.353
   97SAPE    HY 9669   6.096   2.367  14.475
   97SAPE   O31 9670   6.190   2.371  14.277
   97SAPE   C31 9671   6.132   2.267  14.231
   97SAPE   O32 9672   6.052   2.198  14.286
   97SAPE   C32 9673   6.169   2.233  14.092
   97SAPE   H2X 9674   6.130   2.130  14.071
   97SAPE   H2Y 9675   6.278   2.235  14.085
   97SAPE   C23 9676   6.589   2.751  14.205
   97SAPE   H3R 9677   6.658   2.672  14.241
   97SAPE   H3S 9678   6.592   2.838  14.275
   97SAPE   C24 9679   6.639   2.812  14.075
   97SAPE   H4R 9680   6.737   2.854  14.106
   97SAPE   H4S 9681   6.572   2.895  14.043
   97SAPE   C25 9682   6.670   2.749  13.947
   97SAPE   H5R 9683   6.771   2.701  13.941
   97SAPE   C26 9684   6.576   2.709  13.862
   97SAPE   H6R 9685   6.611   2.670  13.768
   97SAPE   C27 9686   6.429   2.702  13.848
   97SAPE   H7R 9687   6.375   2.672  13.939
   97SAPE   H7S 9688   6.406   2.618  13.777
   97SAPE   C28 9689   6.402   2.836  13.793
   97SAPE   H8R 9690   6.453   2.917  13.843
   97SAPE   C29 9691   6.327   2.863  13.688
   97SAPE   H9R 9692   6.300   2.964  13.660
   97SAPE  C210 9693   6.256   2.765  13.610
   97SAPE  H10R 9694   6.297   2.661  13.626
   97SAPE  H10S 9695   6.256   2.784  13.500
   97SAPE  C211 9696   6.122   2.792  13.673
   97SAPE  H11R 9697   6.071   2.881  13.709
   97SAPE  C212 9698   6.038   2.721  13.619
   97SAPE  H12R 9699   5.959   2.691  13.677
   97SAPE  C213 9700   6.076   2.631  13.520
   97SAPE  H13R 9701   6.041   2.559  13.591
   97SAPE  H13S 9702   6.165   2.576  13.536
   97SAPE  C214 9703   6.022   2.631  13.379
   97SAPE  H14R 9704   5.930   2.683  13.399
   97SAPE  C215 9705   6.032   2.545  13.269
   97SAPE  H15R 9706   5.926   2.542  13.234
   97SAPE  C216 9707   6.111   2.399  13.239
   97SAPE  H16R 9708   6.077   2.292  13.271
   97SAPE  H16S 9709   6.136   2.306  13.303
   97SAPE  C217 9710   6.147   2.361  13.117
   97SAPE  H17R 9711   6.203   2.456  13.128
   97SAPE  H17S 9712   6.076   2.351  13.041
   97SAPE  C218 9713   6.225   2.237  13.128
   97SAPE  H18R 9714   6.187   2.138  13.160
   97SAPE  H18S 9715   6.284   2.280  13.213
   97SAPE  C219 9716   6.300   2.249  13.006
   97SAPE  H19R 9717   6.337   2.352  13.030
   97SAPE  H19S 9718   6.249   2.281  12.916
   97SAPE  C220 9719   6.385   2.132  12.962
   97SAPE  H20R 9720   6.456   2.184  12.895
   97SAPE  H20S 9721   6.394   2.035  13.014
   97SAPE  H20T 9722   6.464   2.101  13.031
   97SAPE   C33 9723   6.102   2.333  14.002
   97SAPE   H3X 9724   6.139   2.436  14.018
   97SAPE   H3Y 9725   5.992   2.334  14.011
   97SAPE   C34 9726   6.133   2.296  13.861
   97SAPE   H4X 9727   6.039   2.330  13.823
   97SAPE   H4Y 9728   6.134   2.186  13.839
   97SAPE   C35 9729   6.257   2.381  13.816
   97SAPE   H5X 9730   6.316   2.346  13.902
   97SAPE   H5Y 9731   6.238   2.488  13.828
   97SAPE   C36 9732   6.302   2.372  13.663
   97SAPE   H6X 9733   6.243   2.435  13.606
   97SAPE   H6Y 9734   6.237   2.283  13.666
   97SAPE   C37 9735   6.444   2.397  13.565
   97SAPE   H7X 9736   6.527   2.323  13.575
   97SAPE   H7Y 9737   6.436   2.477  13.626
   97SAPE   C38 9738   6.575   2.362  13.463
   97SAPE   H8X 9739   6.590   2.273  13.397
   97SAPE   H8Y 9740   6.684   2.340  13.480
   97SAPE   C39 9741   6.504   2.469  13.394
   97SAPE   H9X 9742   6.390   2.472  13.396
   97SAPE   H9Y 9743   6.512   2.474  13.291
   97SAPE  C310 9744   6.579   2.585  13.430
   97SAPE  H10X 9745   6.685   2.545  13.428
   97SAPE  H10Y 9746   6.545   2.615  13.531
   97SAPE  C311 9747   6.559   2.684  13.320
   97SAPE  H11X 9748   6.635   2.663  13.241
   97SAPE  H11Y 9749   6.580   2.777  13.375
   97SAPE  C312 9750   6.421   2.692  13.251
   97SAPE  H12X 9751   6.336   2.681  13.321
   97SAPE  H12Y 9752   6.409   2.614  13.172
   97SAPE  C313 9753   6.407   2.827  13.185
   97SAPE  H13X 9754   6.447   2.816  13.081
   97SAPE  H13Y 9755   6.464   2.904  13.243
   97SAPE  C314 9756   6.266   2.873  13.164
   97SAPE  H14X 9757   6.270   2.982  13.138
   97SAPE  H14Y 9758   6.213   2.860  13.261
   97SAPE  C315 9759   6.202   2.795  13.049
   97SAPE  H15X 9760   6.103   2.757  13.080
   97SAPE  H15Y 9761   6.267   2.707  13.030
   97SAPE  C316 9762   6.175   2.882  12.925
   97SAPE  H16X 9763   6.256   2.955  12.914
   97SAPE  H16Y 9764   6.083   2.938  12.935
   97SAPE  C317 9765   6.151   2.810  12.796
   97SAPE  H17X 9766   6.152   2.869  12.701
   97SAPE  H17Y 9767   6.079   2.725  12.801
   97SAPE  C318 9768   6.268   2.740  12.775
   97SAPE  H18X 9769   6.357   2.808  12.780
   97SAPE  H18Y 9770   6.250   2.684  12.682
   97SAPE  H18Z 9771   6.274   2.656  12.842
   98SAPE     N 9772   5.692   1.587  14.860
   98SAPE   HN1 9773   5.716   1.561  14.957
   98SAPE   HN2 9774   5.733   1.682  14.842
   98SAPE   HN3 9775   5.589   1.587  14.848
   98SAPE   C12 9776   5.739   1.481  14.762
   98SAPE  H12A 9777   5.850   1.485  14.759
   98SAPE  H12B 9778   5.700   1.510  14.662
   98SAPE   C11 9779   5.687   1.342  14.803
   98SAPE  H11A 9780   5.740   1.308  14.894
   98SAPE  H11B 9781   5.712   1.264  14.726
   98SAPE     P 9782   5.445   1.334  14.716
   98SAPE   O13 9783   5.310   1.328  14.771
   98SAPE   O14 9784   5.472   1.450  14.630
   98SAPE   O12 9785   5.547   1.346  14.835
   98SAPE   O11 9786   5.497   1.206  14.649
   98SAPE    C1 9787   5.430   1.084  14.667
   98SAPE    HA 9788   5.491   1.012  14.726
   98SAPE    HB 9789   5.324   1.086  14.705
   98SAPE    C2 9790   5.414   1.029  14.531
   98SAPE    HS 9791   5.383   0.927  14.553
   98SAPE   O21 9792   5.530   1.055  14.439
   98SAPE   C21 9793   5.575   1.012  14.322
   98SAPE   O22 9794   5.534   0.941  14.235
   98SAPE   C22 9795   5.705   1.037  14.285
   98SAPE   H2R 9796   5.751   1.113  14.347
   98SAPE   H2S 9797   5.743   0.934  14.313
   98SAPE    C3 9798   5.279   1.079  14.472
   98SAPE    HX 9799   5.195   1.025  14.521
   98SAPE    HY 9800   5.267   1.050  14.370
   98SAPE   O31 9801   5.272   1.215  14.466
   98SAPE   C31 9802   5.225   1.264  14.356
   98SAPE   O32 9803   5.151   1.213  14.273
   98SAPE   C32 9804   5.282   1.394  14.354
   98SAPE   H2X 9805   5.370   1.388  14.289
   98SAPE   H2Y 9806   5.304   1.426  14.458
   98SAPE   C23 9807   5.679   1.067  14.130
   98SAPE   H3R 9808   5.624   0.997  14.061
   98SAPE   H3S 9809   5.769   1.077  14.068
   98SAPE   C24 9810   5.605   1.195  14.107
   98SAPE   H4R 9811   5.650   1.228  14.010
   98SAPE   H4S 9812   5.638   1.257  14.192
   98SAPE   C25 9813   5.456   1.169  14.101
   98SAPE   H5R 9814   5.410   1.134  14.194
   98SAPE   C26 9815   5.383   1.160  13.991
   98SAPE   H6R 9816   5.276   1.136  13.996
   98SAPE   C27 9817   5.441   1.177  13.856
   98SAPE   H7R 9818   5.534   1.120  13.861
   98SAPE   H7S 9819   5.475   1.281  13.839
   98SAPE   C28 9820   5.342   1.141  13.748
   98SAPE   H8R 9821   5.246   1.193  13.763
   98SAPE   C29 9822   5.343   1.074  13.633
   98SAPE   H9R 9823   5.250   1.093  13.582
   98SAPE  C210 9824   5.440   0.996  13.542
   98SAPE  H10R 9825   5.416   0.907  13.487
   98SAPE  H10S 9826   5.483   0.914  13.604
   98SAPE  C211 9827   5.518   1.083  13.440
   98SAPE  H11R 9828   5.572   1.169  13.471
   98SAPE  C212 9829   5.549   1.067  13.313
   98SAPE  H12R 9830   5.613   1.138  13.259
   98SAPE  C213 9831   5.513   0.958  13.231
   98SAPE  H13R 9832   5.476   0.999  13.138
   98SAPE  H13S 9833   5.440   0.914  13.288
   98SAPE  C214 9834   5.599   0.844  13.222
   98SAPE  H14R 9835   5.642   0.803  13.315
   98SAPE  C215 9836   5.612   0.784  13.107
   98SAPE  H15R 9837   5.677   0.703  13.117
   98SAPE  C216 9838   5.557   0.802  12.966
   98SAPE  H16R 9839   5.487   0.887  12.960
   98SAPE  H16S 9840   5.501   0.712  12.932
   98SAPE  C217 9841   5.666   0.813  12.859
   98SAPE  H17R 9842   5.618   0.822  12.759
   98SAPE  H17S 9843   5.727   0.719  12.857
   98SAPE  C218 9844   5.755   0.937  12.870
   98SAPE  H18R 9845   5.820   0.944  12.780
   98SAPE  H18S 9846   5.820   0.939  12.958
   98SAPE  C219 9847   5.690   1.067  12.902
   98SAPE  H19R 9848   5.658   1.076  13.007
   98SAPE  H19S 9849   5.596   1.083  12.858
   98SAPE  C220 9850   5.780   1.176  12.851
   98SAPE  H20R 9851   5.737   1.273  12.882
   98SAPE  H20S 9852   5.788   1.168  12.741
   98SAPE  H20T 9853   5.882   1.161  12.891
   98SAPE   C33 9854   5.188   1.488  14.294
   98SAPE   H3X 9855   5.247   1.576  14.324
   98SAPE   H3Y 9856   5.095   1.501  14.348
   98SAPE   C34 9857   5.165   1.471  14.144
   98SAPE   H4X 9858   5.074   1.526  14.111
   98SAPE   H4Y 9859   5.134   1.371  14.112
   98SAPE   C35 9860   5.284   1.509  14.064
   98SAPE   H5X 9861   5.362   1.435  14.082
   98SAPE   H5Y 9862   5.317   1.611  14.094
   98SAPE   C36 9863   5.243   1.506  13.921
   98SAPE   H6X 9864   5.145   1.557  13.937
   98SAPE   H6Y 9865   5.195   1.416  13.880
   98SAPE   C37 9866   5.355   1.562  13.827
   98SAPE   H7X 9867   5.452   1.533  13.870
   98SAPE   H7Y 9868   5.362   1.673  13.826
   98SAPE   C38 9869   5.343   1.509  13.683
   98SAPE   H8X 9870   5.278   1.559  13.609
   98SAPE   H8Y 9871   5.296   1.410  13.691
   98SAPE   C39 9872   5.462   1.523  13.591
   98SAPE   H9X 9873   5.548   1.478  13.641
   98SAPE   H9Y 9874   5.487   1.631  13.576
   98SAPE  C310 9875   5.418   1.459  13.459
   98SAPE  H10X 9876   5.324   1.506  13.420
   98SAPE  H10Y 9877   5.395   1.352  13.479
   98SAPE  C311 9878   5.519   1.467  13.347
   98SAPE  H11X 9879   5.608   1.409  13.380
   98SAPE  H11Y 9880   5.548   1.574  13.333
   98SAPE  C312 9881   5.465   1.404  13.218
   98SAPE  H12X 9882   5.363   1.445  13.195
   98SAPE  H12Y 9883   5.465   1.296  13.218
   98SAPE  C313 9884   5.559   1.435  13.104
   98SAPE  H13X 9885   5.666   1.416  13.125
   98SAPE  H13Y 9886   5.529   1.538  13.121
   98SAPE  C314 9887   5.517   1.411  12.960
   98SAPE  H14X 9888   5.416   1.457  12.973
   98SAPE  H14Y 9889   5.520   1.305  12.932
   98SAPE  C315 9890   5.586   1.491  12.849
   98SAPE  H15X 9891   5.696   1.482  12.853
   98SAPE  H15Y 9892   5.544   1.589  12.883
   98SAPE  C316 9893   5.561   1.501  12.696
   98SAPE  H16X 9894   5.573   1.407  12.650
   98SAPE  H16Y 9895   5.615   1.577  12.638
   98SAPE  C317 9896   5.433   1.529  12.661
   98SAPE  H17X 9897   5.414   1.594  12.752
   98SAPE  H17Y 9898   5.369   1.544  12.772
   98SAPE  C318 9899   5.327   1.424  12.522
   98SAPE  H18X 9900   5.352   1.397  12.432
   98SAPE  H18Y 9901   5.216   1.457  12.491
   98SAPE  H18Z 9902   5.213   1.416  12.545
   99SAPE     N 9903   5.293   6.454  14.872
   99SAPE   HN1 9904   5.367   6.527  14.885
   99SAPE   HN2 9905   5.229   6.449  14.955
   99SAPE   HN3 9906   5.329   6.360  14.847
   99SAPE   C12 9907   5.209   6.498  14.757
   99SAPE  H12A 9908   5.119   6.438  14.759
   99SAPE  H12B 9909   5.267   6.486  14.664
   99SAPE   C11 9910   5.156   6.638  14.778
   99SAPE  H11A 9911   5.089   6.645  14.862
   99SAPE  H11B 9912   5.084   6.670  14.700
   99SAPE     P 9913   5.319   6.836  14.716
   99SAPE   O13 9914   5.263   6.962  14.769
   99SAPE   O14 9915   5.464   6.815  14.715
   99SAPE   O12 9916   5.264   6.720  14.807
   99SAPE   O11 9917   5.263   6.800  14.575
   99SAPE    C1 9918   5.133   6.850  14.543
   99SAPE    HA 9919   5.071   6.888  14.625
   99SAPE    HB 9920   5.142   6.940  14.488
   99SAPE    C2 9921   5.057   6.764  14.450
   99SAPE    HS 9922   5.039   6.662  14.491
   99SAPE   O21 9923   5.130   6.748  14.338
   99SAPE   C21 9924   5.241   6.673  14.350
   99SAPE   O22 9925   5.254   6.578  14.424
   99SAPE   C22 9926   5.336   6.702  14.235
   99SAPE   H2R 9927   5.240   6.721  14.183
   99SAPE   H2S 9928   5.347   6.796  14.180
   99SAPE    C3 9929   4.927   6.829  14.408
   99SAPE    HX 9930   4.875   6.827  14.508
   99SAPE    HY 9931   4.896   6.758  14.335
   99SAPE   O31 9932   4.912   6.951  14.342
   99SAPE   C31 9933   4.821   6.962  14.247
   99SAPE   O32 9934   4.778   6.868  14.185
   99SAPE   C32 9935   4.819   7.105  14.188
   99SAPE   H2X 9936   4.838   7.187  14.252
   99SAPE   H2Y 9937   4.733   7.119  14.122
   99SAPE   C23 9938   5.450   6.597  14.173
   99SAPE   H3R 9939   5.504   6.586  14.266
   99SAPE   H3S 9940   5.501   6.660  14.096
   99SAPE   C24 9941   5.429   6.459  14.095
   99SAPE   H4R 9942   5.525   6.409  14.048
   99SAPE   H4S 9943   5.382   6.439  14.009
   99SAPE   C25 9944   5.335   6.345  14.148
   99SAPE   H5R 9945   5.352   6.344  14.260
   99SAPE   C26 9946   5.186   6.320  14.108
   99SAPE   H6R 9947   5.141   6.274  14.185
   99SAPE   C27 9948   5.103   6.297  13.957
   99SAPE   H7R 9949   5.038   6.214  13.983
   99SAPE   H7S 9950   5.168   6.309  13.892
   99SAPE   C28 9951   4.958   6.387  13.950
   99SAPE   H8R 9952   4.958   6.446  14.013
   99SAPE   C29 9953   4.911   6.464  13.846
   99SAPE   H9R 9954   4.888   6.567  13.917
   99SAPE  C210 9955   5.006   6.529  13.774
   99SAPE  H10R 9956   4.933   6.518  13.690
   99SAPE  H10S 9957   5.072   6.436  13.731
   99SAPE  C211 9958   5.100   6.648  13.764
   99SAPE  H11R 9959   5.178   6.649  13.779
   99SAPE  C212 9960   5.082   6.785  13.732
   99SAPE  H12R 9961   5.192   6.822  13.701
   99SAPE  C213 9962   5.013   6.835  13.621
   99SAPE  H13R 9963   4.924   6.783  13.602
   99SAPE  H13S 9964   4.962   6.753  13.585
   99SAPE  C214 9965   5.062   6.967  13.572
   99SAPE  H14R 9966   5.010   7.042  13.638
   99SAPE  C215 9967   5.078   7.018  13.444
   99SAPE  H15R 9968   5.050   7.115  13.430
   99SAPE  C216 9969   5.090   6.983  13.295
   99SAPE  H16R 9970   5.042   6.912  13.357
   99SAPE  H16S 9971   5.191   6.954  13.271
   99SAPE  C217 9972   5.026   6.897  13.175
   99SAPE  H17R 9973   4.973   6.806  13.216
   99SAPE  H17S 9974   5.110   6.873  13.114
   99SAPE  C218 9975   4.935   6.920  13.065
   99SAPE  H18R 9976   4.957   7.026  13.057
   99SAPE  H18S 9977   4.876   6.938  13.152
   99SAPE  C219 9978   4.848   6.799  12.975
   99SAPE  H19R 9979   4.804   6.863  12.940
   99SAPE  H19S 9980   4.729   6.777  12.968
   99SAPE  C220 9981   4.856   6.741  12.847
   99SAPE  H20R 9982   4.753   6.765  12.796
   99SAPE  H20S 9983   4.848   6.664  12.929
   99SAPE  H20T 9984   4.939   6.814  12.837
   99SAPE   C33 9985   4.941   7.095  14.103
   99SAPE   H3X 9986   4.890   7.018  14.045
   99SAPE   H3Y 9987   5.008   7.060  14.182
   99SAPE   C34 9988   5.017   7.193  14.006
   99SAPE   H4X 9989   5.083   7.253  14.072
   99SAPE   H4Y 9990   4.933   7.244  13.965
   99SAPE   C35 9991   5.109   7.168  13.879
   99SAPE   H5X 9992   5.099   7.252  13.811
   99SAPE   H5Y 9993   5.073   7.100  13.802
   99SAPE   C36 9994   5.256   7.128  13.902
   99SAPE   H6X 9995   5.269   7.025  13.933
   99SAPE   H6Y 9996   5.316   7.195  13.965
   99SAPE   C37 9997   5.317   7.048  13.795
   99SAPE   H7X 9998   5.272   7.112  13.723
   99SAPE   H7Y 9999   5.279   6.957  13.756
   99SAPE   C3810000   5.459   7.010  13.818
   99SAPE   H8X10001   5.473   6.940  13.903
   99SAPE   H8Y10002   5.514   7.100  13.852
   99SAPE   C3910003   5.518   6.942  13.696
   99SAPE   H9X10004   5.601   7.002  13.671
   99SAPE   H9Y10005   5.491   6.952  13.592
   99SAPE  C31010006   5.516   6.794  13.689
   99SAPE  H10X10007   5.407   6.798  13.674
   99SAPE  H10Y10008   5.544   6.752  13.785
   99SAPE  C31110009   5.591   6.730  13.570
   99SAPE  H11X10010   5.698   6.719  13.579
   99SAPE  H11Y10011   5.561   6.778  13.474
   99SAPE  C31210012   5.611   6.581  13.561
   99SAPE  H12X10013   5.623   6.542  13.666
   99SAPE  H12Y10014   5.682   6.542  13.487
   99SAPE  C31310015   5.498   6.526  13.497
   99SAPE  H13X10016   5.457   6.598  13.567
   99SAPE  H13Y10017   5.471   6.423  13.521
   99SAPE  C31410018   5.422   6.578  13.384
   99SAPE  H14X10019   5.411   6.689  13.390
   99SAPE  H14Y10020   5.325   6.519  13.389
   99SAPE  C31510021   5.481   6.532  13.271
   99SAPE  H15X10022   5.479   6.422  13.296
   99SAPE  H15Y10023   5.575   6.588  13.282
   99SAPE  C31610024   5.408   6.583  13.155
   99SAPE  H16X10025   5.469   6.551  13.073
   99SAPE  H16Y10026   5.381   6.691  13.148
   99SAPE  C31710027   5.310   6.492  13.103
   99SAPE  H17X10028   5.235   6.499  13.161
   99SAPE  H17Y10029   5.278   6.403  13.161
   99SAPE  C31810030   5.282   6.526  12.954
   99SAPE  H18X10031   5.190   6.497  12.903
   99SAPE  H18Y10032   5.256   6.428  12.913
   99SAPE  H18Z10033   5.238   6.630  12.941
  100SAPE     N10034   0.818   6.335  14.839
  100SAPE   HN110035   0.860   6.299  14.750
  100SAPE   HN210036   0.716   6.342  14.828
  100SAPE   HN310037   0.862   6.426  14.862
  100SAPE   C1210038   0.852   6.229  14.939
  100SAPE  H12A10039   0.806   6.257  15.033
  100SAPE  H12B10040   0.961   6.230  14.957
  100SAPE   C1110041   0.805   6.095  14.885
  100SAPE  H11A10042   0.695   6.098  14.868
  100SAPE  H11B10043   0.825   6.014  14.959
  100SAPE     P10044   0.805   5.980  14.654
  100SAPE   O1310045   0.900   5.947  14.547
  100SAPE   O1410046   0.733   5.873  14.728
  100SAPE   O1210047   0.877   6.069  14.764
  100SAPE   O1110048   0.700   6.088  14.612
  100SAPE    C110049   0.711   6.153  14.489
  100SAPE    HA10050   0.656   6.251  14.494
  100SAPE    HB10051   0.814   6.171  14.449
  100SAPE    C210052   0.641   6.071  14.385
  100SAPE    HS10053   0.541   6.060  14.422
  100SAPE   O2110054   0.681   5.935  14.354
  100SAPE   C2110055   0.580   5.853  14.312
  100SAPE   O2210056   0.462   5.873  14.325
  100SAPE   C2210057   0.639   5.732  14.241
  100SAPE   H2R10058   0.749   5.743  14.238
  100SAPE   H2S10059   0.614   5.646  14.306
  100SAPE    C310060   0.661   6.166  14.265
  100SAPE    HX10061   0.600   6.259  14.256
  100SAPE    HY10062   0.615   6.088  14.218
  100SAPE   O3110063   0.790   6.178  14.208
  100SAPE   C3110064   0.797   6.240  14.092
  100SAPE   O3210065   0.705   6.276  14.021
  100SAPE   C3210066   0.944   6.271  14.074
  100SAPE   H2X10067   0.998   6.175  14.083
  100SAPE   H2Y10068   0.972   6.332  14.163
  100SAPE   C2310069   0.587   5.710  14.097
  100SAPE   H3R10070   0.476   5.720  14.093
  100SAPE   H3S10071   0.607   5.604  14.070
  100SAPE   C2410072   0.663   5.797  13.994
  100SAPE   H4R10073   0.771   5.774  13.997
  100SAPE   H4S10074   0.663   5.901  14.032
  100SAPE   C2510075   0.611   5.782  13.850
  100SAPE   H5R10076   0.579   5.680  13.825
  100SAPE   C2610077   0.572   5.879  13.765
  100SAPE   H6R10078   0.516   5.856  13.673
  100SAPE   C2710079   0.574   6.025  13.799
  100SAPE   H7R10080   0.657   6.093  13.776
  100SAPE   H7S10081   0.589   6.022  13.901
  100SAPE   C2810082   0.444   6.082  13.766
  100SAPE   H8R10083   0.371   6.123  13.839
  100SAPE   C2910084   0.431   6.134  13.655
  100SAPE   H9R10085   0.324   6.157  13.646
  100SAPE  C21010086   0.531   6.154  13.541
  100SAPE  H10R10087   0.477   6.100  13.460
  100SAPE  H10S10088   0.619   6.096  13.568
  100SAPE  C21110089   0.581   6.293  13.487
  100SAPE  H11R10090   0.530   6.388  13.511
  100SAPE  C21210091   0.679   6.338  13.419
  100SAPE  H12R10092   0.671   6.441  13.378
  100SAPE  C21310093   0.779   6.243  13.376
  100SAPE  H13R10094   0.734   6.176  13.300
  100SAPE  H13S10095   0.805   6.183  13.465
  100SAPE  C21410096   0.894   6.324  13.329
  100SAPE  H14R10097   0.912   6.422  13.378
  100SAPE  C21510098   0.980   6.277  13.240
  100SAPE  H15R10099   1.068   6.338  13.214
  100SAPE  C21610100   0.971   6.140  13.178
  100SAPE  H16R10101   0.923   6.067  13.246
  100SAPE  H16S10102   1.074   6.103  13.163
  100SAPE  C21710103   0.903   6.134  13.041
  100SAPE  H17R10104   0.801   6.178  13.042
  100SAPE  H17S10105   0.894   6.025  13.019
  100SAPE  C21810106   0.996   6.191  12.933
  100SAPE  H18R10107   1.096   6.147  12.956
  100SAPE  H18S10108   1.008   6.300  12.945
  100SAPE  C21910109   0.959   6.145  12.791
  100SAPE  H19R10110   0.939   6.035  12.792
  100SAPE  H19S10111   1.049   6.157  12.726
  100SAPE  C22010112   0.841   6.216  12.725
  100SAPE  H20R10113   0.751   6.211  12.790
  100SAPE  H20S10114   0.814   6.167  12.629
  100SAPE  H20T10115   0.866   6.322  12.703
  100SAPE   C3310116   0.977   6.344  13.943
  100SAPE   H3X10117   1.075   6.395  13.960
  100SAPE   H3Y10118   0.904   6.425  13.919
  100SAPE   C3410119   0.990   6.257  13.816
  100SAPE   H4X10120   1.019   6.328  13.736
  100SAPE   H4Y10121   0.891   6.214  13.788
  100SAPE   C3510122   1.100   6.148  13.819
  100SAPE   H5X10123   1.069   6.058  13.877
  100SAPE   H5Y10124   1.190   6.191  13.868
  100SAPE   C3610125   1.147   6.101  13.680
  100SAPE   H6X10126   1.227   6.025  13.695
  100SAPE   H6Y10127   1.194   6.186  13.627
  100SAPE   C3710128   1.038   6.038  13.590
  100SAPE   H7X10129   1.086   6.011  13.494
  100SAPE   H7Y10130   0.956   6.109  13.568
  100SAPE   C3810131   0.973   5.913  13.651
  100SAPE   H8X10132   0.891   5.945  13.720
  100SAPE   H8Y10133   1.047   5.857  13.712
  100SAPE   C3910134   0.912   5.817  13.547
  100SAPE   H9X10135   0.875   5.732  13.608
  100SAPE   H9Y10136   0.989   5.776  13.477
  100SAPE  C31010137   0.796   5.874  13.464
  100SAPE  H10X10138   0.834   5.938  13.382
  100SAPE  H10Y10139   0.734   5.938  13.530
  100SAPE  C31110140   0.711   5.761  13.403
  100SAPE  H11X10141   0.673   5.700  13.488
  100SAPE  H11Y10142   0.778   5.696  13.343
  100SAPE  C31210143   0.591   5.803  13.315
  100SAPE  H12X10144   0.514   5.857  13.374
  100SAPE  H12Y10145   0.546   5.711  13.271
  100SAPE  C31310146   0.629   5.892  13.197
  100SAPE  H13X10147   0.725   5.852  13.157
  100SAPE  H13Y10148   0.643   5.996  13.232
  100SAPE  C31410149   0.525   5.893  13.084
  100SAPE  H14X10150   0.428   5.932  13.122
  100SAPE  H14Y10151   0.509   5.787  13.053
  100SAPE  C31510152   0.578   5.977  12.966
  100SAPE  H15X10153   0.683   5.946  12.944
  100SAPE  H15Y10154   0.584   6.082  13.001
  100SAPE  C31610155   0.495   5.969  12.836
  100SAPE  H16X10156   0.543   6.032  12.757
  100SAPE  H16Y10157   0.395   6.012  12.858
  100SAPE  C31710158   0.480   5.829  12.778
  100SAPE  H17X10159   0.414   5.828  12.687
  100SAPE  H17Y10160   0.429   5.761  12.851
  100SAPE  C31810161   0.613   5.772  12.735
  100SAPE  H18X10162   0.683   5.745  12.816
  100SAPE  H18Y10163   0.663   5.832  12.657
  100SAPE  H18Z10164   0.588   5.680  12.686
  101SAPE     N10165   0.448   1.419  14.601
  101SAPE   HN110166   0.345   1.413  14.600
  101SAPE   HN210167   0.483   1.473  14.685
  101SAPE   HN310168   0.483   1.467  14.516
  101SAPE   C1210169   0.511   1.283  14.612
  101SAPE  H12A10170   0.497   1.229  14.517
  101SAPE  H12B10171   0.467   1.230  14.699
  101SAPE   C1110172   0.657   1.298  14.647
  101SAPE  H11A10173   0.708   1.368  14.574
  101SAPE  H11B10174   0.703   1.197  14.635
  101SAPE     P10175   0.769   1.449  14.823
  101SAPE   O1310176   0.714   1.578  14.776
  101SAPE   O1410177   0.813   1.431  14.962
  101SAPE   O1210178   0.663   1.338  14.784
  101SAPE   O1110179   0.891   1.400  14.735
  101SAPE    C110180   0.998   1.490  14.713
  101SAPE    HA10181   0.995   1.582  14.777
  101SAPE    HB10182   1.092   1.435  14.734
  101SAPE    C210183   0.991   1.540  14.568
  101SAPE    HS10184   1.065   1.625  14.563
  101SAPE   O2110185   0.851   1.566  14.536
  101SAPE   C2110186   0.838   1.684  14.484
  101SAPE   O2210187   0.929   1.760  14.473
  101SAPE   C2210188   0.704   1.706  14.423
  101SAPE   H2R10189   0.627   1.662  14.490
  101SAPE   H2S10190   0.683   1.815  14.411
  101SAPE    C310191   1.039   1.433  14.469
  101SAPE    HX10192   0.962   1.354  14.482
  101SAPE    HY10193   1.137   1.391  14.499
  101SAPE   O3110194   1.032   1.473  14.331
  101SAPE   C3110195   1.114   1.569  14.288
  101SAPE   O3210196   1.204   1.618  14.352
  101SAPE   C3210197   1.094   1.586  14.135
  101SAPE   H2X10198   0.991   1.606  14.107
  101SAPE   H2Y10199   1.113   1.481  14.101
  101SAPE   C2310200   0.713   1.637  14.286
  101SAPE   H3R10201   0.716   1.527  14.297
  101SAPE   H3S10202   0.803   1.672  14.230
  101SAPE   C2410203   0.601   1.680  14.199
  101SAPE   H4R10204   0.618   1.659  14.091
  101SAPE   H4S10205   0.613   1.788  14.211
  101SAPE   C2510206   0.472   1.628  14.252
  101SAPE   H5R10207   0.428   1.677  14.340
  101SAPE   C2610208   0.401   1.534  14.194
  101SAPE   H6R10209   0.312   1.511  14.246
  101SAPE   C2710210   0.432   1.461  14.067
  101SAPE   H7R10211   0.501   1.520  14.005
  101SAPE   H7S10212   0.346   1.454  14.000
  101SAPE   C2810213   0.484   1.324  14.099
  101SAPE   H8R10214   0.430   1.267  14.177
  101SAPE   C2910215   0.595   1.270  14.044
  101SAPE   H9R10216   0.617   1.164  14.065
  101SAPE  C21010217   0.685   1.336  13.942
  101SAPE  H10R10218   0.682   1.447  13.946
  101SAPE  H10S10219   0.646   1.308  13.842
  101SAPE  C21110220   0.829   1.292  13.953
  101SAPE  H11R10221   0.870   1.283  14.055
  101SAPE  C21210222   0.913   1.280  13.849
  101SAPE  H12R10223   1.016   1.250  13.870
  101SAPE  C21310224   0.882   1.308  13.704
  101SAPE  H13R10225   0.913   1.413  13.687
  101SAPE  H13S10226   0.773   1.306  13.680
  101SAPE  C21410227   0.952   1.215  13.607
  101SAPE  H14R10228   1.000   1.126  13.651
  101SAPE  C21510229   0.960   1.231  13.474
  101SAPE  H15R10230   1.016   1.155  13.416
  101SAPE  C21610231   0.901   1.344  13.393
  101SAPE  H16R10232   0.896   1.436  13.456
  101SAPE  H16S10233   0.800   1.315  13.360
  101SAPE  C21710234   0.970   1.377  13.260
  101SAPE  H17R10235   1.064   1.415  13.287
  101SAPE  H17S10236   0.935   1.468  13.209
  101SAPE  C21810237   0.987   1.256  13.167
  101SAPE  H18R10238   0.912   1.182  13.206
  101SAPE  H18S10239   1.088   1.212  13.179
  101SAPE  C21910240   0.951   1.282  13.020
  101SAPE  H19R10241   0.875   1.364  13.019
  101SAPE  H19S10242   0.903   1.191  12.979
  101SAPE  C22010243   1.069   1.313  12.928
  101SAPE  H20R10244   1.044   1.319  12.821
  101SAPE  H20S10245   1.154   1.241  12.943
  101SAPE  H20T10246   1.103   1.414  12.950
  101SAPE   C3310247   1.178   1.701  14.065
  101SAPE   H3X10248   1.283   1.680  14.091
  101SAPE   H3Y10249   1.188   1.797  14.115
  101SAPE   C3410250   1.149   1.712  13.907
  101SAPE   H4X10251   1.048   1.715  13.868
  101SAPE   H4Y10252   1.124   1.609  13.877
  101SAPE   C3510253   1.263   1.784  13.817
  101SAPE   H5X10254   1.373   1.768  13.835
  101SAPE   H5Y10255   1.249   1.885  13.852
  101SAPE   C3610256   1.257   1.778  13.662
  101SAPE   H6X10257   1.152   1.778  13.634
  101SAPE   H6Y10258   1.282   1.688  13.603
  101SAPE   C3710259   1.362   1.862  13.592
  101SAPE   H7X10260   1.464   1.849  13.639
  101SAPE   H7Y10261   1.325   1.964  13.612
  101SAPE   C3810262   1.372   1.821  13.444
  101SAPE   H8X10263   1.430   1.725  13.434
  101SAPE   H8Y10264   1.427   1.901  13.391
  101SAPE   C3910265   1.235   1.791  13.379
  101SAPE   H9X10266   1.180   1.710  13.432
  101SAPE   H9Y10267   1.254   1.750  13.279
  101SAPE  C31010268   1.140   1.910  13.382
  101SAPE  H10X10269   1.190   2.004  13.349
  101SAPE  H10Y10270   1.107   1.923  13.487
  101SAPE  C31110271   1.014   1.888  13.299
  101SAPE  H11X10272   0.952   1.980  13.308
  101SAPE  H11Y10273   0.957   1.800  13.335
  101SAPE  C31210274   1.040   1.853  13.154
  101SAPE  H12X10275   1.109   1.772  13.129
  101SAPE  H12Y10276   1.107   1.924  13.118
  101SAPE  C31310277   0.914   1.854  13.072
  101SAPE  H13X10278   0.846   1.936  13.108
  101SAPE  H13Y10279   0.867   1.756  13.093
  101SAPE  C31410280   0.938   1.873  12.922
  101SAPE  H14X10281   1.019   1.811  12.880
  101SAPE  H14Y10282   0.960   1.981  12.901
  101SAPE  C31510283   0.813   1.830  12.849
  101SAPE  H15X10284   0.818   1.860  12.742
  101SAPE  H15Y10285   0.750   1.897  12.910
  101SAPE  C31610286   0.747   1.691  12.872
  101SAPE  H16X10287   0.700   1.686  12.973
  101SAPE  H16Y10288   0.832   1.621  12.872
  101SAPE  C31710289   0.641   1.637  12.770
  101SAPE  H17X10290   0.626   1.531  12.798
  101SAPE  H17Y10291   0.684   1.644  12.667
  101SAPE  C31810292   0.494   1.683  12.768
  101SAPE  H18X10293   0.484   1.761  12.691
  101SAPE  H18Y10294   0.465   1.722  12.869
  101SAPE  H18Z10295   0.419   1.621  12.720
  102SAPE     N10296   7.141   0.826  14.675
  102SAPE   HN110297   7.200   0.794  14.596
  102SAPE   HN210298   7.163   0.924  14.703
  102SAPE   HN310299   7.168   0.761  14.753
  102SAPE   C1210300   6.997   0.816  14.633
  102SAPE  H12A10301   6.983   0.719  14.580
  102SAPE  H12B10302   6.975   0.899  14.563
  102SAPE   C1110303   6.907   0.825  14.755
  102SAPE  H11A10304   6.919   0.925  14.801
  102SAPE  H11B10305   6.940   0.747  14.828
  102SAPE     P10306   6.681   0.700  14.789
  102SAPE   O1310307   6.735   0.681  14.925
  102SAPE   O1410308   6.541   0.742  14.770
  102SAPE   O1210309   6.771   0.812  14.717
  102SAPE   O1110310   6.716   0.571  14.705
  102SAPE    C110311   6.643   0.542  14.586
  102SAPE    HA10312   6.542   0.500  14.609
  102SAPE    HB10313   6.628   0.634  14.525
  102SAPE    C210314   6.721   0.438  14.502
  102SAPE    HS10315   6.741   0.350  14.566
  102SAPE   O2110316   6.837   0.507  14.460
  102SAPE   C2110317   6.945   0.440  14.442
  102SAPE   O2210318   6.967   0.324  14.471
  102SAPE   C2210319   7.041   0.535  14.377
  102SAPE   H2R10320   6.993   0.631  14.351
  102SAPE   H2S10321   7.130   0.549  14.443
  102SAPE    C310322   6.649   0.387  14.375
  102SAPE    HX10323   6.558   0.328  14.405
  102SAPE    HY10324   6.708   0.314  14.318
  102SAPE   O3110325   6.636   0.496  14.283
  102SAPE   C3110326   6.522   0.548  14.302
  102SAPE   O3210327   6.436   0.498  14.373
  102SAPE   C3210328   6.519   0.680  14.225
  102SAPE   H2X10329   6.503   0.769  14.284
  102SAPE   H2Y10330   6.424   0.695  14.198
  102SAPE   C2310331   7.080   0.473  14.247
  102SAPE   H3R10332   7.002   0.416  14.192
  102SAPE   H3S10333   7.143   0.396  14.287
  102SAPE   C2410334   7.158   0.563  14.155
  102SAPE   H4R10335   7.146   0.506  14.060
  102SAPE   H4S10336   7.266   0.570  14.187
  102SAPE   C2510337   7.120   0.697  14.128
  102SAPE   H5R10338   7.131   0.755  14.219
  102SAPE   C2610339   7.095   0.744  14.006
  102SAPE   H6R10340   7.050   0.843  14.006
  102SAPE   C2710341   7.102   0.668  13.875
  102SAPE   H7R10342   7.178   0.590  13.880
  102SAPE   H7S10343   7.149   0.731  13.796
  102SAPE   C2810344   6.974   0.603  13.828
  102SAPE   H8R10345   6.924   0.530  13.894
  102SAPE   C2910346   6.917   0.629  13.710
  102SAPE   H9R10347   6.830   0.573  13.676
  102SAPE  C21010348   6.969   0.724  13.610
  102SAPE  H10R10349   6.919   0.699  13.515
  102SAPE  H10S10350   7.078   0.717  13.590
  102SAPE  C21110351   6.939   0.862  13.654
  102SAPE  H11R10352   6.935   0.892  13.761
  102SAPE  C21210353   6.934   0.952  13.561
  102SAPE  H12R10354   6.930   1.053  13.598
  102SAPE  C21310355   6.955   0.944  13.410
  102SAPE  H13R10356   7.057   0.921  13.379
  102SAPE  H13S10357   6.946   1.045  13.364
  102SAPE  C21410358   6.862   0.855  13.344
  102SAPE  H14R10359   6.763   0.853  13.385
  102SAPE  C21510360   6.880   0.787  13.234
  102SAPE  H15R10361   6.793   0.732  13.199
  102SAPE  C21610362   7.002   0.786  13.153
  102SAPE  H16R10363   7.062   0.880  13.151
  102SAPE  H16S10364   6.980   0.751  13.050
  102SAPE  C21710365   7.081   0.681  13.225
  102SAPE  H17R10366   7.118   0.718  13.324
  102SAPE  H17S10367   7.163   0.669  13.153
  102SAPE  C21810368   7.016   0.546  13.251
  102SAPE  H18R10369   6.929   0.554  13.320
  102SAPE  H18S10370   7.100   0.495  13.300
  102SAPE  C21910371   6.978   0.459  13.132
  102SAPE  H19R10372   6.898   0.506  13.076
  102SAPE  H19S10373   6.934   0.366  13.177
  102SAPE  C22010374   7.091   0.423  13.036
  102SAPE  H20R10375   7.184   0.403  13.092
  102SAPE  H20S10376   7.112   0.503  12.963
  102SAPE  H20T10377   7.061   0.331  12.982
  102SAPE   C3310378   6.588   0.690  14.089
  102SAPE   H3X10379   6.569   0.610  14.012
  102SAPE   H3Y10380   6.693   0.676  14.115
  102SAPE   C3410381   6.568   0.824  14.021
  102SAPE   H4X10382   6.604   0.905  14.087
  102SAPE   H4Y10383   6.470   0.872  13.999
  102SAPE   C3510384   6.644   0.803  13.892
  102SAPE   H5X10385   6.753   0.791  13.891
  102SAPE   H5Y10386   6.635   0.898  13.860
  102SAPE   C3610387   6.583   0.754  13.768
  102SAPE   H6X10388   6.563   0.645  13.784
  102SAPE   H6Y10389   6.659   0.765  13.686
  102SAPE   C3710390   6.469   0.829  13.702
  102SAPE   H7X10391   6.454   0.934  13.679
  102SAPE   H7Y10392   6.374   0.858  13.748
  102SAPE   C3810393   6.467   0.722  13.600
  102SAPE   H8X10394   6.369   0.706  13.634
  102SAPE   H8Y10395   6.458   0.616  13.628
  102SAPE   C3910396   6.507   0.768  13.450
  102SAPE   H9X10397   6.610   0.737  13.460
  102SAPE   H9Y10398   6.467   0.874  13.458
  102SAPE  C31010399   6.442   0.721  13.308
  102SAPE  H10X10400   6.344   0.771  13.278
  102SAPE  H10Y10401   6.440   0.612  13.303
  102SAPE  C31110402   6.483   0.714  13.178
  102SAPE  H11X10403   6.585   0.689  13.202
  102SAPE  H11Y10404   6.457   0.807  13.151
  102SAPE  C31210405   6.387   0.672  13.070
  102SAPE  H12X10406   6.300   0.737  13.055
  102SAPE  H12Y10407   6.342   0.574  13.096
  102SAPE  C31310408   6.466   0.693  12.946
  102SAPE  H13X10409   6.575   0.684  12.952
  102SAPE  H13Y10410   6.459   0.798  12.916
  102SAPE  C31410411   6.438   0.583  12.854
  102SAPE  H14X10412   6.339   0.602  12.853
  102SAPE  H14Y10413   6.411   0.481  12.892
  102SAPE  C31510414   6.542   0.578  12.746
  102SAPE  H15X10415   6.631   0.520  12.784
  102SAPE  H15Y10416   6.566   0.683  12.722
  102SAPE  C31610417   6.501   0.519  12.617
  102SAPE  H16X10418   6.404   0.542  12.578
  102SAPE  H16Y10419   6.512   0.411  12.641
  102SAPE  C31710420   6.579   0.543  12.500
  102SAPE  H17X10421   6.583   0.649  12.480
  102SAPE  H17Y10422   6.535   0.505  12.403
  102SAPE  C31810423   6.696   0.464  12.549
  102SAPE  H18X10424   6.674   0.410  12.460
  102SAPE  H18Y10425   6.704   0.357  12.580
  102SAPE  H18Z10426   6.787   0.524  12.552
  103SAPE     N10427   2.821   4.444  10.824
  103SAPE   HN110428   2.734   4.495  10.846
  103SAPE   HN210429   2.837   4.369  10.894
  103SAPE   HN310430   2.904   4.506  10.818
  103SAPE   C1210431   2.804   4.372  10.694
  103SAPE  H12A10432   2.893   4.307  10.676
  103SAPE  H12B10433   2.797   4.450  10.616
  103SAPE   C1110434   2.674   4.295  10.693
  103SAPE  H11A10435   2.659   4.256  10.590
  103SAPE  H11B10436   2.588   4.361  10.716
  103SAPE     P10437   2.717   4.045  10.742
  103SAPE   O1310438   2.613   3.998  10.649
  103SAPE   O1410439   2.859   4.051  10.701
  103SAPE   O1210440   2.677   4.191  10.789
  103SAPE   O1110441   2.698   3.979  10.882
  103SAPE    C110442   2.773   4.036  10.987
  103SAPE    HA10443   2.878   4.024  10.956
  103SAPE    HB10444   2.753   4.143  11.007
  103SAPE    C210445   2.742   3.961  11.115
  103SAPE    HS10446   2.773   3.854  11.096
  103SAPE   O2110447   2.607   3.977  11.154
  103SAPE   C2110448   2.564   3.905  11.256
  103SAPE   O2210449   2.615   3.813  11.312
  103SAPE   C2210450   2.429   3.948  11.298
  103SAPE   H2R10451   2.408   4.046  11.253
  103SAPE   H2S10452   2.366   3.866  11.258
  103SAPE    C310453   2.827   4.019  11.223
  103SAPE    HX10454   2.923   3.977  11.188
  103SAPE    HY10455   2.818   3.973  11.319
  103SAPE   O3110456   2.824   4.162  11.242
  103SAPE   C3110457   2.778   4.202  11.362
  103SAPE   O3210458   2.744   4.131  11.454
  103SAPE   C3210459   2.776   4.351  11.369
  103SAPE   H2X10460   2.743   4.386  11.269
  103SAPE   H2Y10461   2.879   4.386  11.391
  103SAPE   C2310462   2.424   3.953  11.453
  103SAPE   H3R10463   2.497   4.031  11.486
  103SAPE   H3S10464   2.457   3.856  11.498
  103SAPE   C2410465   2.284   3.987  11.505
  103SAPE   H4R10466   2.286   3.975  11.615
  103SAPE   H4S10467   2.210   3.914  11.466
  103SAPE   C2510468   2.249   4.127  11.461
  103SAPE   H5R10469   2.231   4.140  11.353
  103SAPE   C2610470   2.239   4.235  11.541
  103SAPE   H6R10471   2.218   4.333  11.497
  103SAPE   C2710472   2.259   4.242  11.690
  103SAPE   H7R10473   2.242   4.144  11.740
  103SAPE   H7S10474   2.179   4.309  11.727
  103SAPE   C2810475   2.392   4.305  11.722
  103SAPE   H8R10476   2.416   4.398  11.670
  103SAPE   C2910477   2.478   4.266  11.814
  103SAPE   H9R10478   2.581   4.308  11.814
  103SAPE  C21010479   2.462   4.149  11.904
  103SAPE  H10R10480   2.569   4.141  11.925
  103SAPE  H10S10481   2.427   4.058  11.847
  103SAPE  C21110482   2.392   4.159  12.038
  103SAPE  H11R10483   2.303   4.220  12.035
  103SAPE  C21210484   2.426   4.106  12.159
  103SAPE  H12R10485   2.391   4.142  12.254
  103SAPE  C21310486   2.537   4.017  12.189
  103SAPE  H13R10487   2.590   4.066  12.269
  103SAPE  H13S10488   2.575   4.026  12.099
  103SAPE  C21410489   2.536   3.873  12.216
  103SAPE  H14R10490   2.505   3.821  12.113
  103SAPE  C21510491   2.651   3.802  12.255
  103SAPE  H15R10492   2.609   3.714  12.315
  103SAPE  C21610493   2.764   3.818  12.352
  103SAPE  H16R10494   2.832   3.896  12.309
  103SAPE  H16S10495   2.859   3.757  12.354
  103SAPE  C21710496   2.684   3.782  12.477
  103SAPE  H17R10497   2.784   3.791  12.527
  103SAPE  H17S10498   2.697   3.694  12.544
  103SAPE  C21810499   2.552   3.884  12.516
  103SAPE  H18R10500   2.548   3.992  12.486
  103SAPE  H18S10501   2.537   3.917  12.625
  103SAPE  C21910502   2.424   3.829  12.521
  103SAPE  H19R10503   2.458   3.738  12.575
  103SAPE  H19S10504   2.405   3.829  12.413
  103SAPE  C22010505   2.334   3.922  12.600
  103SAPE  H20R10506   2.332   4.021  12.546
  103SAPE  H20S10507   2.354   3.945  12.706
  103SAPE  H20T10508   2.240   3.865  12.593
  103SAPE   C3310509   2.680   4.398  11.479
  103SAPE   H3X10510   2.699   4.349  11.577
  103SAPE   H3Y10511   2.575   4.371  11.451
  103SAPE   C3410512   2.688   4.550  11.497
  103SAPE   H4X10513   2.597   4.583  11.552
  103SAPE   H4Y10514   2.682   4.596  11.396
  103SAPE   C3510515   2.814   4.601  11.571
  103SAPE   H5X10516   2.810   4.713  11.571
  103SAPE   H5Y10517   2.905   4.572  11.514
  103SAPE   C3610518   2.826   4.557  11.719
  103SAPE   H6X10519   2.915   4.606  11.766
  103SAPE   H6Y10520   2.847   4.448  11.726
  103SAPE   C3710521   2.700   4.591  11.802
  103SAPE   H7X10522   2.616   4.528  11.768
  103SAPE   H7Y10523   2.671   4.698  11.787
  103SAPE   C3810524   2.724   4.567  11.951
  103SAPE   H8X10525   2.798   4.644  11.985
  103SAPE   H8Y10526   2.767   4.465  11.959
  103SAPE   C3910527   2.605   4.576  12.047
  103SAPE   H9X10528   2.534   4.492  12.028
  103SAPE   H9Y10529   2.553   4.672  12.032
  103SAPE  C31010530   2.645   4.575  12.196
  103SAPE  H10X10531   2.552   4.567  12.255
  103SAPE  H10Y10532   2.694   4.672  12.218
  103SAPE  C31110533   2.744   4.462  12.228
  103SAPE  H11X10534   2.836   4.486  12.170
  103SAPE  H11Y10535   2.700   4.367  12.188
  103SAPE  C31210536   2.782   4.438  12.375
  103SAPE  H12X10537   2.835   4.524  12.419
  103SAPE  H12Y10538   2.862   4.361  12.376
  103SAPE  C31310539   2.664   4.388  12.460
  103SAPE  H13X10540   2.619   4.310  12.402
  103SAPE  H13Y10541   2.576   4.450  12.455
  103SAPE  C31410542   2.688   4.353  12.608
  103SAPE  H14X10543   2.604   4.291  12.647
  103SAPE  H14Y10544   2.687   4.451  12.660
  103SAPE  C31510545   2.825   4.296  12.647
  103SAPE  H15X10546   2.909   4.342  12.594
  103SAPE  H15Y10547   2.836   4.195  12.622
  103SAPE  C31610548   2.846   4.275  12.793
  103SAPE  H16X10549   2.752   4.229  12.835
  103SAPE  H16Y10550   2.860   4.373  12.834
  103SAPE  C31710551   2.979   4.206  12.826
  103SAPE  H17X10552   3.055   4.200  12.749
  103SAPE  H17Y10553   2.977   4.100  12.819
  103SAPE  C31810554   3.020   4.225  12.970
  103SAPE  H18X10555   3.071   4.303  13.012
  103SAPE  H18Y10556   3.083   4.139  13.002
  103SAPE  H18Z10557   2.922   4.227  13.028
  104SAPE     N10558   2.410   2.533  10.714
  104SAPE   HN110559   2.462   2.577  10.793
  104SAPE   HN210560   2.421   2.430  10.712
  104SAPE   HN310561   2.441   2.578  10.625
  104SAPE   C1210562   2.270   2.578  10.740
  104SAPE  H12A10563   2.237   2.537  10.837
  104SAPE  H12B10564   2.208   2.532  10.663
  104SAPE   C1110565   2.269   2.733  10.740
  104SAPE  H11A10566   2.180   2.772  10.795
  104SAPE  H11B10567   2.260   2.767  10.634
  104SAPE     P10568   2.448   2.924  10.754
  104SAPE   O1310569   2.570   2.953  10.832
  104SAPE   O1410570   2.462   2.929  10.608
  104SAPE   O1210571   2.390   2.782  10.798
  104SAPE   O1110572   2.329   3.020  10.790
  104SAPE    C110573   2.248   3.004  10.906
  104SAPE    HA10574   2.141   3.017  10.878
  104SAPE    HB10575   2.261   2.906  10.957
  104SAPE    C210576   2.284   3.109  11.007
  104SAPE    HS10577   2.239   3.204  10.967
  104SAPE   O2110578   2.424   3.116  11.020
  104SAPE   C2110579   2.462   3.236  11.037
  104SAPE   O2210580   2.394   3.337  11.049
  104SAPE   C2210581   2.608   3.235  11.037
  104SAPE   H2R10582   2.656   3.135  11.029
  104SAPE   H2S10583   2.632   3.297  10.949
  104SAPE    C310584   2.233   3.078  11.146
  104SAPE    HX10585   2.121   3.071  11.135
  104SAPE    HY10586   2.272   3.163  11.207
  104SAPE   O3110587   2.289   2.968  11.209
  104SAPE   C3110588   2.206   2.895  11.275
  104SAPE   O3210589   2.086   2.911  11.288
  104SAPE   C3210590   2.283   2.778  11.325
  104SAPE   H2X10591   2.209   2.696  11.317
  104SAPE   H2Y10592   2.311   2.799  11.430
  104SAPE   C2310593   2.646   3.292  11.170
  104SAPE   H3R10594   2.586   3.383  11.195
  104SAPE   H3S10595   2.753   3.313  11.152
  104SAPE   C2410596   2.657   3.194  11.285
  104SAPE   H4R10597   2.753   3.141  11.266
  104SAPE   H4S10598   2.570   3.129  11.273
  104SAPE   C2510599   2.671   3.231  11.428
  104SAPE   H5R10600   2.752   3.302  11.445
  104SAPE   C2610601   2.577   3.223  11.521
  104SAPE   H6R10602   2.605   3.240  11.625
  104SAPE   C2710603   2.436   3.182  11.516
  104SAPE   H7R10604   2.404   3.154  11.415
  104SAPE   H7S10605   2.383   3.277  11.543
  104SAPE   C2810606   2.411   3.074  11.617
  104SAPE   H8R10607   2.415   2.972  11.580
  104SAPE   C2910608   2.394   3.093  11.748
  104SAPE   H9R10609   2.361   3.011  11.814
  104SAPE  C21010610   2.398   3.225  11.811
  104SAPE  H10R10611   2.317   3.285  11.779
  104SAPE  H10S10612   2.450   3.302  11.754
  104SAPE  C21110613   2.428   3.193  11.957
  104SAPE  H11R10614   2.535   3.211  11.956
  104SAPE  C21210615   2.378   3.221  12.082
  104SAPE  H12R10616   2.437   3.268  12.163
  104SAPE  C21310617   2.270   3.301  12.117
  104SAPE  H13R10618   2.249   3.352  12.024
  104SAPE  H13S10619   2.303   3.397  12.166
  104SAPE  C21410620   2.164   3.227  12.194
  104SAPE  H14R10621   2.064   3.230  12.150
  104SAPE  C21510622   2.165   3.197  12.324
  104SAPE  H15R10623   2.068   3.197  12.373
  104SAPE  C21610624   2.264   3.223  12.427
  104SAPE  H16R10625   2.207   3.227  12.521
  104SAPE  H16S10626   2.326   3.317  12.422
  104SAPE  C21710627   2.366   3.121  12.415
  104SAPE  H17R10628   2.410   3.133  12.314
  104SAPE  H17S10629   2.317   3.027  12.444
  104SAPE  C21810630   2.475   3.158  12.504
  104SAPE  H18R10631   2.430   3.128  12.604
  104SAPE  H18S10632   2.505   3.266  12.488
  104SAPE  C21910633   2.598   3.088  12.503
  104SAPE  H19R10634   2.643   3.089  12.405
  104SAPE  H19S10635   2.551   2.994  12.532
  104SAPE  C22010636   2.692   3.148  12.601
  104SAPE  H20R10637   2.639   3.144  12.698
  104SAPE  H20S10638   2.722   3.252  12.600
  104SAPE  H20T10639   2.784   3.085  12.603
  104SAPE   C3310640   2.407   2.746  11.237
  104SAPE   H3X10641   2.379   2.759  11.130
  104SAPE   H3Y10642   2.430   2.638  11.252
  104SAPE   C3410643   2.536   2.823  11.276
  104SAPE   H4X10644   2.514   2.929  11.297
  104SAPE   H4Y10645   2.607   2.824  11.189
  104SAPE   C3510646   2.605   2.761  11.400
  104SAPE   H5X10647   2.650   2.664  11.369
  104SAPE   H5Y10648   2.528   2.739  11.477
  104SAPE   C3610649   2.711   2.852  11.465
  104SAPE   H6X10650   2.666   2.950  11.492
  104SAPE   H6Y10651   2.786   2.873  11.385
  104SAPE   C3710652   2.778   2.794  11.592
  104SAPE   H7X10653   2.874   2.848  11.608
  104SAPE   H7Y10654   2.807   2.687  11.574
  104SAPE   C3810655   2.689   2.811  11.719
  104SAPE   H8X10656   2.599   2.746  11.708
  104SAPE   H8Y10657   2.664   2.917  11.735
  104SAPE   C3910658   2.752   2.765  11.850
  104SAPE   H9X10659   2.848   2.819  11.869
  104SAPE   H9Y10660   2.765   2.662  11.811
  104SAPE  C31010661   2.673   2.740  11.980
  104SAPE  H10X10662   2.734   2.728  12.072
  104SAPE  H10Y10663   2.618   2.644  11.973
  104SAPE  C31110664   2.610   2.861  12.037
  104SAPE  H11X10665   2.537   2.901  11.965
  104SAPE  H11Y10666   2.694   2.934  12.051
  104SAPE  C31210667   2.550   2.839  12.176
  104SAPE  H12X10668   2.511   2.941  12.198
  104SAPE  H12Y10669   2.629   2.818  12.252
  104SAPE  C31310670   2.433   2.740  12.185
  104SAPE  H13X10671   2.462   2.633  12.183
  104SAPE  H13Y10672   2.369   2.758  12.095
  104SAPE  C31410673   2.343   2.768  12.307
  104SAPE  H14X10674   2.241   2.731  12.286
  104SAPE  H14Y10675   2.339   2.878  12.318
  104SAPE  C31510676   2.390   2.706  12.439
  104SAPE  H15X10677   2.489   2.749  12.447
  104SAPE  H15Y10678   2.420   2.602  12.430
  104SAPE  C31610679   2.290   2.716  12.558
  104SAPE  H16X10680   2.192   2.676  12.527
  104SAPE  H16Y10681   2.277   2.822  12.590
  104SAPE  C31710682   2.321   2.624  12.678
  104SAPE  H17X10683   2.394   2.672  12.729
  104SAPE  H17Y10684   2.368   2.528  12.650
  104SAPE  C31810685   2.236   2.621  12.804
  104SAPE  H18X10686   2.203   2.725  12.829
  104SAPE  H18Y10687   2.300   2.585  12.890
  104SAPE  H18Z10688   2.152   2.552  12.790
  105SAPE     N10689   5.455   3.069  10.557
  105SAPE   HN110690   5.511   3.034  10.476
  105SAPE   HN210691   5.356   3.087  10.526
  105SAPE   HN310692   5.495   3.159  10.592
  105SAPE   C1210693   5.453   2.968  10.670
  105SAPE  H12A10694   5.552   2.971  10.720
  105SAPE  H12B10695   5.438   2.868  10.625
  105SAPE   C1110696   5.340   2.997  10.771
  105SAPE  H11A10697   5.351   3.097  10.818
  105SAPE  H11B10698   5.349   2.920  10.853
  105SAPE     P10699   5.085   2.936  10.786
  105SAPE   O1310700   4.961   2.944  10.705
  105SAPE   O1410701   5.117   2.806  10.846
  105SAPE   O1210702   5.214   2.991  10.706
  105SAPE   O1110703   5.082   3.044  10.900
  105SAPE    C110704   4.987   3.019  11.002
  105SAPE    HA10705   4.883   3.001  10.962
  105SAPE    HB10706   5.016   2.932  11.066
  105SAPE    C210707   4.983   3.137  11.096
  105SAPE    HS10708   4.941   3.225  11.039
  105SAPE   O2110709   5.114   3.158  11.158
  105SAPE   C2110710   5.165   3.278  11.153
  105SAPE   O2210711   5.131   3.365  11.075
  105SAPE   C2210712   5.279   3.298  11.256
  105SAPE   H2R10713   5.285   3.212  11.326
  105SAPE   H2S10714   5.359   3.301  11.181
  105SAPE    C310715   4.886   3.099  11.205
  105SAPE    HX10716   4.784   3.065  11.185
  105SAPE    HY10717   4.862   3.176  11.266
  105SAPE   O3110718   4.959   3.010  11.282
  105SAPE   C3110719   5.016   3.047  11.393
  105SAPE   O3210720   5.011   3.155  11.450
  105SAPE   C3210721   5.076   2.917  11.454
  105SAPE   H2X10722   5.053   2.827  11.393
  105SAPE   H2Y10723   5.045   2.887  11.556
  105SAPE   C2310724   5.298   3.428  11.342
  105SAPE   H3R10725   5.244   3.512  11.296
  105SAPE   H3S10726   5.397   3.477  11.336
  105SAPE   C2410727   5.268   3.393  11.492
  105SAPE   H4R10728   5.342   3.326  11.534
  105SAPE   H4S10729   5.166   3.347  11.500
  105SAPE   C2510730   5.264   3.514  11.575
  105SAPE   H5R10731   5.261   3.588  11.500
  105SAPE   C2610732   5.286   3.547  11.704
  105SAPE   H6R10733   5.264   3.647  11.745
  105SAPE   C2710734   5.326   3.444  11.800
  105SAPE   H7R10735   5.371   3.489  11.891
  105SAPE   H7S10736   5.408   3.393  11.745
  105SAPE   C2810737   5.207   3.355  11.823
  105SAPE   H8R10738   5.160   3.315  11.731
  105SAPE   C2910739   5.150   3.335  11.941
  105SAPE   H9R10740   5.067   3.263  11.946
  105SAPE  C21010741   5.196   3.397  12.071
  105SAPE  H10R10742   5.103   3.417  12.129
  105SAPE  H10S10743   5.239   3.498  12.054
  105SAPE  C21110744   5.294   3.312  12.150
  105SAPE  H11R10745   5.369   3.255  12.095
  105SAPE  C21210746   5.303   3.308  12.283
  105SAPE  H12R10747   5.370   3.238  12.334
  105SAPE  C21310748   5.216   3.390  12.368
  105SAPE  H13R10749   5.123   3.338  12.398
  105SAPE  H13S10750   5.195   3.485  12.317
  105SAPE  C21410751   5.287   3.427  12.487
  105SAPE  H14R10752   5.396   3.446  12.497
  105SAPE  C21510753   5.218   3.448  12.590
  105SAPE  H15R10754   5.291   3.490  12.648
  105SAPE  C21610755   5.078   3.448  12.635
  105SAPE  H16R10756   5.017   3.493  12.556
  105SAPE  H16S10757   5.086   3.512  12.725
  105SAPE  C21710758   5.007   3.322  12.673
  105SAPE  H17R10759   5.034   3.251  12.594
  105SAPE  H17S10760   4.899   3.341  12.660
  105SAPE  C21810761   5.047   3.278  12.815
  105SAPE  H18R10762   5.029   3.349  12.897
  105SAPE  H18S10763   5.156   3.275  12.816
  105SAPE  C21910764   4.997   3.143  12.860
  105SAPE  H19R10765   5.064   3.093  12.929
  105SAPE  H19S10766   4.992   3.078  12.774
  105SAPE  C22010767   4.865   3.151  12.927
  105SAPE  H20R10768   4.852   3.221  13.007
  105SAPE  H20S10769   4.813   3.059  12.959
  105SAPE  H20T10770   4.813   3.195  12.843
  105SAPE   C3310771   5.216   2.943  11.447
  105SAPE   H3X10772   5.236   3.026  11.518
  105SAPE   H3Y10773   5.231   2.970  11.339
  105SAPE   C3410774   5.286   2.814  11.476
  105SAPE   H4X10775   5.390   2.839  11.451
  105SAPE   H4Y10776   5.252   2.734  11.406
  105SAPE   C3510777   5.269   2.765  11.619
  105SAPE   H5X10778   5.341   2.681  11.631
  105SAPE   H5Y10779   5.168   2.725  11.644
  105SAPE   C3610780   5.289   2.866  11.730
  105SAPE   H6X10781   5.243   2.966  11.727
  105SAPE   H6Y10782   5.392   2.897  11.725
  105SAPE   C3710783   5.274   2.789  11.861
  105SAPE   H7X10784   5.310   2.871  11.921
  105SAPE   H7Y10785   5.342   2.701  11.869
  105SAPE   C3810786   5.159   2.797  11.956
  105SAPE   H8X10787   5.184   2.733  12.044
  105SAPE   H8Y10788   5.083   2.749  11.893
  105SAPE   C3910789   5.142   2.948  11.999
  105SAPE   H9X10790   5.128   3.014  11.912
  105SAPE   H9Y10791   5.220   2.981  12.071
  105SAPE  C31010792   5.024   2.971  12.076
  105SAPE  H10X10793   4.970   2.919  11.992
  105SAPE  H10Y10794   4.949   3.051  12.081
  105SAPE  C31110795   5.063   2.912  12.212
  105SAPE  H11X10796   5.072   2.801  12.225
  105SAPE  H11Y10797   4.972   2.943  12.256
  105SAPE  C31210798   5.091   2.994  12.333
  105SAPE  H12X10799   5.022   3.080  12.360
  105SAPE  H12Y10800   5.176   3.046  12.290
  105SAPE  C31310801   5.113   2.897  12.450
  105SAPE  H13X10802   5.152   2.799  12.411
  105SAPE  H13Y10803   5.033   2.869  12.521
  105SAPE  C31410804   5.217   2.969  12.526
  105SAPE  H14X10805   5.203   3.076  12.545
  105SAPE  H14Y10806   5.280   2.978  12.437
  105SAPE  C31510807   5.257   2.896  12.654
  105SAPE  H15X10808   5.277   2.791  12.634
  105SAPE  H15Y10809   5.172   2.875  12.721
  105SAPE  C31610810   5.370   2.970  12.727
  105SAPE  H16X10811   5.335   3.072  12.755
  105SAPE  H16Y10812   5.462   2.981  12.665
  105SAPE  C31710813   5.405   2.905  12.858
  105SAPE  H17X10814   5.323   2.918  12.932
  105SAPE  H17Y10815   5.496   2.954  12.901
  105SAPE  C31810816   5.425   2.758  12.838
  105SAPE  H18X10817   5.444   2.721  12.938
  105SAPE  H18Y10818   5.505   2.743  12.765
  105SAPE  H18Z10819   5.344   2.692  12.804
  106SAPE     N10820   6.039   4.181  10.598
  106SAPE   HN110821   5.960   4.113  10.607
  106SAPE   HN210822   6.034   4.200  10.701
  106SAPE   HN310823   6.002   4.264  10.548
  106SAPE   C1210824   6.162   4.092  10.591
  106SAPE  H12A10825   6.140   4.013  10.518
  106SAPE  H12B10826   6.190   4.042  10.689
  106SAPE   C1110827   6.279   4.171  10.585
  106SAPE  H11A10828   6.255   4.213  10.485
  106SAPE  H11B10829   6.356   4.088  10.592
  106SAPE     P10830   6.366   4.245  10.822
  106SAPE   O1310831   6.300   4.163  10.924
  106SAPE   O1410832   6.497   4.204  10.766
  106SAPE   O1210833   6.269   4.260  10.698
  106SAPE   O1110834   6.370   4.390  10.877
  106SAPE    C110835   6.375   4.502  10.791
  106SAPE    HA10836   6.474   4.508  10.741
  106SAPE    HB10837   6.303   4.493  10.709
  106SAPE    C210838   6.341   4.632  10.867
  106SAPE    HS10839   6.386   4.720  10.814
  106SAPE   O2110840   6.385   4.632  11.004
  106SAPE   C2110841   6.509   4.593  11.022
  106SAPE   O2210842   6.596   4.582  10.937
  106SAPE   C2210843   6.530   4.571  11.174
  106SAPE   H2R10844   6.635   4.582  11.201
  106SAPE   H2S10845   6.475   4.651  11.228
  106SAPE    C310846   6.188   4.656  10.866
  106SAPE    HX10847   6.156   4.682  10.763
  106SAPE    HY10848   6.171   4.744  10.924
  106SAPE   O3110849   6.111   4.545  10.914
  106SAPE   C3110850   6.086   4.533  11.044
  106SAPE   O3210851   6.098   4.612  11.133
  106SAPE   C3210852   6.026   4.400  11.067
  106SAPE   H2X10853   6.075   4.332  10.994
  106SAPE   H2Y10854   5.917   4.418  11.047
  106SAPE   C2310855   6.502   4.428  11.223
  106SAPE   H3R10856   6.564   4.360  11.160
  106SAPE   H3S10857   6.394   4.408  11.209
  106SAPE   C2410858   6.534   4.399  11.371
  106SAPE   H4R10859   6.525   4.291  11.393
  106SAPE   H4S10860   6.459   4.450  11.435
  106SAPE   C2510861   6.672   4.442  11.398
  106SAPE   H5R10862   6.758   4.385  11.361
  106SAPE   C2610863   6.695   4.552  11.464
  106SAPE   H6R10864   6.803   4.568  11.475
  106SAPE   C2710865   6.585   4.646  11.519
  106SAPE   H7R10866   6.500   4.666  11.454
  106SAPE   H7S10867   6.616   4.754  11.525
  106SAPE   C2810868   6.539   4.590  11.654
  106SAPE   H8R10869   6.596   4.507  11.695
  106SAPE   C2910870   6.443   4.634  11.733
  106SAPE   H9R10871   6.434   4.611  11.842
  106SAPE  C21010872   6.364   4.747  11.698
  106SAPE  H10R10873   6.409   4.819  11.625
  106SAPE  H10S10874   6.350   4.797  11.791
  106SAPE  C21110875   6.237   4.677  11.656
  106SAPE  H11R10876   6.224   4.675  11.547
  106SAPE  C21210877   6.139   4.634  11.738
  106SAPE  H12R10878   6.050   4.591  11.692
  106SAPE  C21310879   6.132   4.643  11.888
  106SAPE  H13R10880   6.030   4.673  11.921
  106SAPE  H13S10881   6.200   4.717  11.928
  106SAPE  C21410882   6.169   4.511  11.948
  106SAPE  H14R10883   6.148   4.424  11.886
  106SAPE  C21510884   6.226   4.495  12.067
  106SAPE  H15R10885   6.243   4.394  12.106
  106SAPE  C21610886   6.261   4.604  12.163
  106SAPE  H16R10887   6.268   4.708  12.126
  106SAPE  H16S10888   6.358   4.583  12.203
  106SAPE  C21710889   6.171   4.600  12.281
  106SAPE  H17R10890   6.065   4.590  12.251
  106SAPE  H17S10891   6.181   4.696  12.337
  106SAPE  C21810892   6.208   4.493  12.379
  106SAPE  H18R10893   6.311   4.503  12.416
  106SAPE  H18S10894   6.203   4.387  12.342
  106SAPE  C21910895   6.115   4.522  12.494
  106SAPE  H19R10896   6.126   4.419  12.534
  106SAPE  H19S10897   6.007   4.526  12.474
  106SAPE  C22010898   6.154   4.649  12.581
  106SAPE  H20R10899   6.096   4.655  12.675
  106SAPE  H20S10900   6.129   4.747  12.538
  106SAPE  H20T10901   6.260   4.645  12.615
  106SAPE   C3310902   6.065   4.332  11.200
  106SAPE   H3X10903   6.165   4.370  11.226
  106SAPE   H3Y10904   6.070   4.221  11.183
  106SAPE   C3410905   5.968   4.351  11.315
  106SAPE   H4X10906   5.878   4.291  11.289
  106SAPE   H4Y10907   5.951   4.461  11.325
  106SAPE   C3510908   5.993   4.287  11.450
  106SAPE   H5X10909   5.980   4.182  11.429
  106SAPE   H5Y10910   5.911   4.306  11.521
  106SAPE   C3610911   6.128   4.325  11.504
  106SAPE   H6X10912   6.134   4.434  11.518
  106SAPE   H6Y10913   6.200   4.298  11.423
  106SAPE   C3710914   6.172   4.260  11.635
  106SAPE   H7X10915   6.147   4.154  11.639
  106SAPE   H7Y10916   6.102   4.281  11.717
  106SAPE   C3810917   6.322   4.301  11.658
  106SAPE   H8X10918   6.315   4.409  11.674
  106SAPE   H8Y10919   6.392   4.271  11.577
  106SAPE   C3910920   6.391   4.246  11.778
  106SAPE   H9X10921   6.440   4.149  11.752
  106SAPE   H9Y10922   6.303   4.254  11.847
  106SAPE  C31010923   6.490   4.294  11.874
  106SAPE  H10X10924   6.446   4.394  11.900
  106SAPE  H10Y10925   6.588   4.297  11.822
  106SAPE  C31110926   6.494   4.190  11.991
  106SAPE  H11X10927   6.539   4.093  11.969
  106SAPE  H11Y10928   6.388   4.182  12.027
  106SAPE  C31210929   6.565   4.232  12.111
  106SAPE  H12X10930   6.489   4.315  12.116
  106SAPE  H12Y10931   6.669   4.250  12.085
  106SAPE  C31310932   6.596   4.162  12.244
  106SAPE  H13X10933   6.677   4.214  12.299
  106SAPE  H13Y10934   6.622   4.057  12.220
  106SAPE  C31410935   6.481   4.179  12.337
  106SAPE  H14X10936   6.436   4.115  12.263
  106SAPE  H14Y10937   6.435   4.280  12.342
  106SAPE  C31510938   6.476   4.101  12.465
  106SAPE  H15X10939   6.546   4.148  12.535
  106SAPE  H15Y10940   6.496   3.992  12.446
  106SAPE  C31610941   6.365   4.117  12.562
  106SAPE  H16X10942   6.264   4.115  12.541
  106SAPE  H16Y10943   6.305   4.208  12.581
  106SAPE  C31710944   6.363   3.998  12.642
  106SAPE  H17X10945   6.361   3.890  12.617
  106SAPE  H17Y10946   6.262   4.002  12.671
  106SAPE  C31810947   6.398   4.048  12.768
  106SAPE  H18X10948   6.505   4.038  12.781
  106SAPE  H18Y10949   6.353   3.970  12.818
  106SAPE  H18Z10950   6.333   4.132  12.803
  107SAPE     N10951   0.977   3.386  10.637
  107SAPE   HN110952   0.878   3.393  10.667
  107SAPE   HN210953   1.041   3.402  10.719
  107SAPE   HN310954   0.997   3.458  10.565
  107SAPE   C1210955   1.006   3.249  10.579
  107SAPE  H12A10956   1.105   3.218  10.615
  107SAPE  H12B10957   1.006   3.261  10.469
  107SAPE   C1110958   0.897   3.147  10.612
  107SAPE  H11A10959   0.912   3.054  10.553
  107SAPE  H11B10960   0.801   3.190  10.576
  107SAPE     P10961   0.755   3.102  10.826
  107SAPE   O1310962   0.761   3.184  10.948
  107SAPE   O1410963   0.646   3.129  10.729
  107SAPE   O1210964   0.896   3.118  10.752
  107SAPE   O1110965   0.752   2.955  10.869
  107SAPE    C110966   0.754   2.853  10.770
  107SAPE    HA10967   0.653   2.833  10.733
  107SAPE    HB10968   0.819   2.876  10.683
  107SAPE    C210969   0.806   2.730  10.836
  107SAPE    HS10970   0.783   2.635  10.781
  107SAPE   O2110971   0.773   2.712  10.971
  107SAPE   C2110972   0.656   2.719  10.998
  107SAPE   O2210973   0.557   2.708  10.927
  107SAPE   C2210974   0.665   2.718  11.146
  107SAPE   H2R10975   0.714   2.620  11.171
  107SAPE   H2S10976   0.713   2.799  11.198
  107SAPE    C310977   0.949   2.738  10.835
  107SAPE    HX10978   0.991   2.732  10.736
  107SAPE    HY10979   0.957   2.644  10.896
  107SAPE   O3110980   1.015   2.848  10.889
  107SAPE   C3110981   1.033   2.825  11.009
  107SAPE   O3210982   1.011   2.726  11.079
  107SAPE   C3210983   1.101   2.940  11.048
  107SAPE   H2X10984   1.035   3.030  11.046
  107SAPE   H2Y10985   1.185   2.970  10.972
  107SAPE   C2310986   0.531   2.724  11.203
  107SAPE   H3R10987   0.534   2.624  11.174
  107SAPE   H3S10988   0.444   2.767  11.147
  107SAPE   C2410989   0.542   2.716  11.348
  107SAPE   H4R10990   0.566   2.624  11.405
  107SAPE   H4S10991   0.463   2.673  11.398
  107SAPE   C2510992   0.495   2.841  11.396
  107SAPE   H5R10993   0.407   2.884  11.350
  107SAPE   C2610994   0.557   2.883  11.500
  107SAPE   H6R10995   0.560   2.983  11.527
  107SAPE   C2710996   0.650   2.799  11.563
  107SAPE   H7R10997   0.762   2.818  11.536
  107SAPE   H7S10998   0.644   2.690  11.554
  107SAPE   C2810999   0.663   2.771  11.702
  107SAPE   H8R11000   0.677   2.672  11.736
  107SAPE   C2911001   0.627   2.852  11.797
  107SAPE   H9R11002   0.695   2.800  11.864
  107SAPE  C21011003   0.635   3.008  11.819
  107SAPE  H10R11004   0.615   3.041  11.717
  107SAPE  H10S11005   0.675   3.044  11.900
  107SAPE  C21111006   0.475   2.988  11.850
  107SAPE  H11R11007   0.434   3.002  11.763
  107SAPE  C21211008   0.406   3.006  11.982
  107SAPE  H12R11009   0.298   2.993  12.003
  107SAPE  C21311010   0.419   2.954  12.115
  107SAPE  H13R11011   0.468   2.892  12.093
  107SAPE  H13S11012   0.326   2.911  12.158
  107SAPE  C21411013   0.462   3.081  12.189
  107SAPE  H14R11014   0.434   3.178  12.151
  107SAPE  C21511015   0.496   3.058  12.308
  107SAPE  H15R11016   0.545   3.136  12.362
  107SAPE  C21611017   0.507   2.932  12.377
  107SAPE  H16R11018   0.615   2.945  12.394
  107SAPE  H16S11019   0.531   2.839  12.348
  107SAPE  C21711020   0.401   2.841  12.441
  107SAPE  H17R11021   0.446   2.757  12.501
  107SAPE  H17S11022   0.324   2.802  12.374
  107SAPE  C21811023   0.347   2.915  12.543
  107SAPE  H18R11024   0.264   2.866  12.598
  107SAPE  H18S11025   0.309   3.009  12.495
  107SAPE  C21911026   0.470   2.933  12.622
  107SAPE  H19R11027   0.544   3.001  12.579
  107SAPE  H19S11028   0.539   2.866  12.678
  107SAPE  C22011029   0.387   2.987  12.716
  107SAPE  H20R11030   0.470   3.033  12.749
  107SAPE  H20S11031   0.331   2.930  12.785
  107SAPE  H20T11032   0.333   3.078  12.700
  107SAPE   C3311033   1.121   2.863  11.192
  107SAPE   H3X11034   1.171   2.931  11.139
  107SAPE   H3Y11035   1.225   2.818  11.215
  107SAPE   C3411036   1.036   2.925  11.327
  107SAPE   H4X11037   1.075   2.871  11.419
  107SAPE   H4Y11038   0.963   2.855  11.289
  107SAPE   C3511039   0.997   3.092  11.369
  107SAPE   H5X11040   0.998   3.165  11.287
  107SAPE   H5Y11041   1.064   3.164  11.425
  107SAPE   C3611042   0.868   3.140  11.436
  107SAPE   H6X11043   0.791   3.092  11.375
  107SAPE   H6Y11044   0.852   3.251  11.427
  107SAPE   C3711045   0.859   3.091  11.579
  107SAPE   H7X11046   0.925   3.001  11.584
  107SAPE   H7Y11047   0.757   3.054  11.591
  107SAPE   C3811048   0.878   3.197  11.691
  107SAPE   H8X11049   0.824   3.177  11.784
  107SAPE   H8Y11050   0.862   3.299  11.647
  107SAPE   C3911051   1.015   3.203  11.746
  107SAPE   H9X11052   1.068   3.292  11.724
  107SAPE   H9Y11053   1.040   3.126  11.674
  107SAPE  C31011054   1.085   3.124  11.851
  107SAPE  H10X11055   1.004   3.127  11.919
  107SAPE  H10Y11056   1.166   3.183  11.895
  107SAPE  C31111057   1.133   2.984  11.810
  107SAPE  H11X11058   1.230   2.980  11.756
  107SAPE  H11Y11059   1.053   2.940  11.745
  107SAPE  C31211060   1.149   2.893  11.926
  107SAPE  H12X11061   1.245   2.889  11.976
  107SAPE  H12Y11062   1.160   2.796  11.888
  107SAPE  C31311063   1.033   2.894  12.019
  107SAPE  H13X11064   1.041   2.793  12.067
  107SAPE  H13Y11065   0.941   2.901  11.958
  107SAPE  C31411066   1.035   3.008  12.121
  107SAPE  H14X11067   0.995   3.105  12.094
  107SAPE  H14Y11068   1.134   3.044  12.143
  107SAPE  C31511069   0.965   2.968  12.244
  107SAPE  H15X11070   1.012   2.875  12.278
  107SAPE  H15Y11071   0.865   2.944  12.203
  107SAPE  C31611072   0.962   3.078  12.351
  107SAPE  H16X11073   0.865   3.131  12.353
  107SAPE  H16Y11074   1.049   3.144  12.330
  107SAPE  C31711075   0.987   3.035  12.493
  107SAPE  H17X11076   1.036   3.110  12.549
  107SAPE  H17Y11077   1.048   2.944  12.486
  107SAPE  C31811078   0.870   3.018  12.585
  107SAPE  H18X11079   0.814   2.925  12.592
  107SAPE  H18Y11080   0.791   3.092  12.578
  107SAPE  H18Z11081   0.912   2.994  12.679
  108SAPE     N11082   0.537   3.690  10.429
  108SAPE   HN111083   0.570   3.592  10.419
  108SAPE   HN211084   0.440   3.697  10.390
  108SAPE   HN311085   0.600   3.754  10.377
  108SAPE   C1211086   0.544   3.722  10.575
  108SAPE  H12A11087   0.647   3.754  10.601
  108SAPE  H12B11088   0.514   3.631  10.632
  108SAPE   C1111089   0.449   3.834  10.609
  108SAPE  H11A11090   0.351   3.784  10.629
  108SAPE  H11B11091   0.435   3.900  10.525
  108SAPE     P11092   0.523   3.839  10.852
  108SAPE   O1311093   0.398   3.773  10.845
  108SAPE   O1411094   0.629   3.740  10.864
  108SAPE   O1211095   0.504   3.914  10.715
  108SAPE   O1111096   0.527   3.954  10.958
  108SAPE    C111097   0.419   4.042  10.971
  108SAPE    HA11098   0.392   4.111  10.889
  108SAPE    HB11099   0.334   3.977  10.993
  108SAPE    C211100   0.432   4.122  11.092
  108SAPE    HS11101   0.483   4.219  11.085
  108SAPE   O2111102   0.499   4.039  11.197
  108SAPE   C2111103   0.493   4.058  11.332
  108SAPE   O2211104   0.449   4.159  11.379
  108SAPE   C2211105   0.536   3.936  11.427
  108SAPE   H2R11106   0.636   3.908  11.394
  108SAPE   H2S11107   0.532   3.978  11.530
  108SAPE    C311108   0.269   4.149  11.088
  108SAPE    HX11109   0.258   4.244  11.039
  108SAPE    HY11110   0.295   4.163  11.195
  108SAPE   O3111111   0.149   4.052  11.049
  108SAPE   C3111112   0.058   4.049  11.158
  108SAPE   O3211113   0.088   4.111  11.242
  108SAPE   C3211114  -0.066   4.009  11.237
  108SAPE   H2X11115  -0.046   3.908  11.266
  108SAPE   H2Y11116  -0.130   4.048  11.163
  108SAPE   C2311117   0.454   3.803  11.449
  108SAPE   H3R11118   0.497   3.708  11.477
  108SAPE   H3S11119   0.430   3.755  11.350
  108SAPE   C2411120   0.343   3.829  11.547
  108SAPE   H4R11121   0.327   3.938  11.556
  108SAPE   H4S11122   0.327   3.849  11.648
  108SAPE   C2511123   0.239   3.737  11.500
  108SAPE   H5R11124   0.182   3.764  11.415
  108SAPE   C2611125   0.180   3.650  11.569
  108SAPE   H6R11126   0.098   3.586  11.541
  108SAPE   C2711127   0.195   3.621  11.694
  108SAPE   H7R11128   0.097   3.577  11.716
  108SAPE   H7S11129   0.221   3.721  11.725
  108SAPE   C2811130   0.273   3.510  11.720
  108SAPE   H8R11131   0.209   3.424  11.717
  108SAPE   C2911132   0.393   3.510  11.760
  108SAPE   H9R11133   0.435   3.411  11.767
  108SAPE  C21011134   0.470   3.636  11.785
  108SAPE  H10R11135   0.404   3.724  11.811
  108SAPE  H10S11136   0.519   3.665  11.691
  108SAPE  C21111137   0.573   3.601  11.892
  108SAPE  H11R11138   0.676   3.602  11.865
  108SAPE  C21211139   0.553   3.570  12.020
  108SAPE  H12R11140   0.623   3.533  12.094
  108SAPE  C21311141   0.438   3.577  12.076
  108SAPE  H13R11142   0.393   3.468  12.096
  108SAPE  H13S11143   0.366   3.578  11.991
  108SAPE  C21411144   0.440   3.640  12.230
  108SAPE  H14R11145   0.436   3.575  12.296
  108SAPE  C21511146   0.384   3.776  12.269
  108SAPE  H15R11147   0.356   3.734  12.379
  108SAPE  C21611148   0.242   3.860  12.228
  108SAPE  H16R11149   0.255   3.879  12.121
  108SAPE  H16S11150   0.274   3.970  12.246
  108SAPE  C21711151   0.084   3.861  12.260
  108SAPE  H17R11152  -0.006   3.807  12.244
  108SAPE  H17S11153   0.027   3.898  12.178
  108SAPE  C21811154   0.042   3.942  12.364
  108SAPE  H18R11155   0.120   4.017  12.362
  108SAPE  H18S11156   0.068   3.903  12.438
  108SAPE  C21911157  -0.083   3.934  12.442
  108SAPE  H19R11158  -0.147   3.846  12.441
  108SAPE  H19S11159  -0.120   4.021  12.393
  108SAPE  C22011160  -0.083   3.973  12.583
  108SAPE  H20R11161  -0.067   3.905  12.667
  108SAPE  H20S11162  -0.143   4.058  12.591
  108SAPE  H20T11163  -0.034   4.062  12.622
  108SAPE   C3311164  -0.131   4.070  11.372
  108SAPE   H3X11165  -0.226   4.036  11.337
  108SAPE   H3Y11166  -0.162   4.175  11.389
  108SAPE   C3411167  -0.125   4.010  11.515
  108SAPE   H4X11168  -0.112   3.912  11.482
  108SAPE   H4Y11169  -0.221   4.037  11.568
  108SAPE   C3511170  -0.006   3.987  11.609
  108SAPE   H5X11171  -0.065   4.076  11.620
  108SAPE   H5Y11172   0.020   3.881  11.585
  108SAPE   C3611173  -0.009   3.964  11.742
  108SAPE   H6X11174   0.087   3.907  11.751
  108SAPE   H6Y11175  -0.105   3.949  11.797
  108SAPE   C3711176   0.068   4.026  11.833
  108SAPE   H7X11177   0.029   3.987  11.927
  108SAPE   H7Y11178  -0.015   4.095  11.806
  108SAPE   C3811179   0.216   4.085  11.838
  108SAPE   H8X11180   0.246   4.189  11.872
  108SAPE   H8Y11181   0.200   4.071  11.742
  108SAPE   C3911182   0.325   4.008  11.881
  108SAPE   H9X11183   0.319   3.932  11.804
  108SAPE   H9Y11184   0.286   3.979  11.978
  108SAPE  C31011185   0.452   4.087  11.888
  108SAPE  H10X11186   0.446   4.177  11.956
  108SAPE  H10Y11187   0.490   4.122  11.790
  108SAPE  C31111188   0.543   3.992  11.952
  108SAPE  H11X11189   0.573   3.909  11.883
  108SAPE  H11Y11190   0.490   3.943  12.038
  108SAPE  C31211191   0.659   4.069  12.000
  108SAPE  H12X11192   0.643   4.161  12.059
  108SAPE  H12Y11193   0.726   4.095  11.914
  108SAPE  C31311194   0.724   3.966  12.080
  108SAPE  H13X11195   0.815   4.018  12.112
  108SAPE  H13Y11196   0.743   3.883  12.008
  108SAPE  C31411197   0.670   3.905  12.207
  108SAPE  H14X11198   0.744   3.839  12.255
  108SAPE  H14Y11199   0.594   3.833  12.183
  108SAPE  C31511200   0.622   4.016  12.296
  108SAPE  H15X11201   0.557   4.087  12.239
  108SAPE  H15Y11202   0.710   4.074  12.332
  108SAPE  C31611203   0.548   3.965  12.414
  108SAPE  H16X11204   0.598   3.877  12.460
  108SAPE  H16Y11205   0.444   3.943  12.386
  108SAPE  C31711206   0.536   4.068  12.520
  108SAPE  H17X11207   0.480   4.148  12.481
  108SAPE  H17Y11208   0.628   4.121  12.541
  108SAPE  C31811209   0.481   4.012  12.646
  108SAPE  H18X11210   0.392   3.962  12.623
  108SAPE  H18Y11211   0.464   4.086  12.723
  108SAPE  H18Z11212   0.535   3.930  12.690
  109SAPE     N11213   5.582   1.063  10.697
  109SAPE   HN111214   5.584   1.135  10.773
  109SAPE   HN211215   5.481   1.044  10.675
  109SAPE   HN311216   5.624   0.977  10.735
  109SAPE   C1211217   5.663   1.125  10.586
  109SAPE  H12A11218   5.627   1.090  10.488
  109SAPE  H12B11219   5.768   1.091  10.598
  109SAPE   C1111220   5.656   1.278  10.594
  109SAPE  H11A11221   5.569   1.308  10.534
  109SAPE  H11B11222   5.747   1.322  10.545
  109SAPE     P11223   5.765   1.338  10.809
  109SAPE   O1311224   5.811   1.197  10.800
  109SAPE   O1411225   5.846   1.444  10.750
  109SAPE   O1211226   5.633   1.328  10.726
  109SAPE   O1111227   5.708   1.381  10.950
  109SAPE    C111228   5.587   1.457  10.950
  109SAPE    HA11229   5.597   1.554  10.895
  109SAPE    HB11230   5.505   1.397  10.905
  109SAPE    C211231   5.545   1.489  11.094
  109SAPE    HS11232   5.452   1.546  11.089
  109SAPE   O2111233   5.639   1.570  11.161
  109SAPE   C2111234   5.639   1.696  11.149
  109SAPE   O2211235   5.566   1.764  11.078
  109SAPE   C2211236   5.734   1.752  11.247
  109SAPE   H2R11237   5.687   1.844  11.288
  109SAPE   H2S11238   5.756   1.698  11.339
  109SAPE    C311239   5.528   1.359  11.176
  109SAPE    HX11240   5.614   1.290  11.156
  109SAPE    HY11241   5.436   1.308  11.141
  109SAPE   O3111242   5.528   1.385  11.317
  109SAPE   C3111243   5.413   1.381  11.380
  109SAPE   O3211244   5.302   1.368  11.332
  109SAPE   C3211245   5.443   1.394  11.526
  109SAPE   H2X11246   5.526   1.467  11.538
  109SAPE   H2Y11247   5.476   1.299  11.573
  109SAPE   C2311248   5.855   1.796  11.168
  109SAPE   H3R11249   5.873   1.859  11.260
  109SAPE   H3S11250   5.838   1.844  11.071
  109SAPE   C2411251   5.988   1.725  11.127
  109SAPE   H4R11252   6.029   1.787  11.220
  109SAPE   H4S11253   6.083   1.780  11.122
  109SAPE   C2511254   6.038   1.570  11.088
  109SAPE   H5R11255   5.998   1.559  10.981
  109SAPE   C2611256   6.066   1.438  11.171
  109SAPE   H6R11257   5.974   1.415  11.104
  109SAPE   C2711258   6.049   1.372  11.375
  109SAPE   H7R11259   6.003   1.441  11.448
  109SAPE   H7S11260   6.120   1.314  11.431
  109SAPE   C2811261   5.899   1.356  11.483
  109SAPE   H8R11262   5.793   1.370  11.442
  109SAPE   C2911263   5.844   1.349  11.606
  109SAPE   H9R11264   5.747   1.399  11.633
  109SAPE  C21011265   5.931   1.354  11.714
  109SAPE  H10R11266   5.946   1.448  11.771
  109SAPE  H10S11267   6.020   1.335  11.663
  109SAPE  C21111268   5.915   1.227  11.776
  109SAPE  H11R11269   5.954   1.140  11.717
  109SAPE  C21211270   5.873   1.224  11.897
  109SAPE  H12R11271   5.886   1.128  11.945
  109SAPE  C21311272   5.837   1.348  11.976
  109SAPE  H13R11273   5.898   1.441  11.959
  109SAPE  H13S11274   5.860   1.323  12.081
  109SAPE  C21411275   5.691   1.385  11.957
  109SAPE  H14R11276   5.670   1.469  11.887
  109SAPE  C21511277   5.587   1.315  12.002
  109SAPE  H15R11278   5.486   1.349  11.977
  109SAPE  C21611279   5.591   1.187  12.081
  109SAPE  H16R11280   5.685   1.131  12.063
  109SAPE  H16S11281   5.511   1.122  12.040
  109SAPE  C21711282   5.568   1.203  12.232
  109SAPE  H17R11283   5.544   1.103  12.275
  109SAPE  H17S11284   5.478   1.266  12.250
  109SAPE  C21811285   5.682   1.270  12.311
  109SAPE  H18R11286   5.671   1.379  12.290
  109SAPE  H18S11287   5.783   1.241  12.276
  109SAPE  C21911288   5.672   1.246  12.462
  109SAPE  H19R11289   5.690   1.138  12.486
  109SAPE  H19S11290   5.566   1.265  12.489
  109SAPE  C22011291   5.767   1.333  12.546
  109SAPE  H20R11292   5.737   1.332  12.652
  109SAPE  H20S11293   5.762   1.440  12.513
  109SAPE  H20T11294   5.871   1.300  12.552
  109SAPE   C3311295   5.317   1.437  11.596
  109SAPE   H3X11296   5.237   1.360  11.602
  109SAPE   H3Y11297   5.269   1.519  11.539
  109SAPE   C3411298   5.356   1.476  11.736
  109SAPE   H4X11299   5.401   1.396  11.797
  109SAPE   H4Y11300   5.259   1.487  11.781
  109SAPE   C3511301   5.449   1.598  11.736
  109SAPE   H5X11302   5.416   1.685  11.674
  109SAPE   H5Y11303   5.548   1.574  11.702
  109SAPE   C3611304   5.464   1.644  11.876
  109SAPE   H6X11305   5.475   1.565  11.952
  109SAPE   H6Y11306   5.371   1.697  11.857
  109SAPE   C3711307   5.503   1.777  11.928
  109SAPE   H7X11308   5.477   1.872  11.878
  109SAPE   H7Y11309   5.590   1.731  11.882
  109SAPE   C3811310   5.535   1.777  12.074
  109SAPE   H8X11311   5.618   1.831  12.087
  109SAPE   H8Y11312   5.593   1.686  12.098
  109SAPE   C3911313   5.486   1.880  12.176
  109SAPE   H9X11314   5.385   1.916  12.174
  109SAPE   H9Y11315   5.517   1.985  12.166
  109SAPE  C31011316   5.512   1.801  12.302
  109SAPE  H10X11317   5.471   1.869  12.377
  109SAPE  H10Y11318   5.608   1.799  12.354
  109SAPE  C31111319   5.461   1.657  12.283
  109SAPE  H11X11320   5.527   1.581  12.234
  109SAPE  H11Y11321   5.363   1.632  12.238
  109SAPE  C31211322   5.443   1.622  12.419
  109SAPE  H12X11323   5.522   1.661  12.482
  109SAPE  H12Y11324   5.490   1.514  12.411
  109SAPE  C31311325   5.282   1.651  12.477
  109SAPE  H13X11326   5.247   1.593  12.385
  109SAPE  H13Y11327   5.210   1.707  12.439
  109SAPE  C31411328   5.210   1.588  12.654
  109SAPE  H14X11329   5.127   1.588  12.701
  109SAPE  H14Y11330   5.267   1.672  12.702
  109SAPE  C31511331   5.266   1.377  12.745
  109SAPE  H15X11332   5.335   1.372  12.829
  109SAPE  H15Y11333   5.384   1.335  12.708
  109SAPE  C31611334   5.252   1.238  12.667
  109SAPE  H16X11335   5.309   1.219  12.567
  109SAPE  H16Y11336   5.153   1.279  12.653
  109SAPE  C31711337   5.309   1.133  12.741
  109SAPE  H17X11338   5.229   1.065  12.710
  109SAPE  H17Y11339   5.311   1.165  12.846
  109SAPE  C31811340   5.450   1.108  12.689
  109SAPE  H18X11341   5.524   1.188  12.717
  109SAPE  H18Y11342   5.463   1.097  12.581
  109SAPE  H18Z11343   5.474   1.015  12.740
  110SAPE     N11344   3.533   7.071  10.916
  110SAPE   HN111345   3.549   7.163  10.871
  110SAPE   HN211346   3.495   7.093  11.011
  110SAPE   HN311347   3.625   7.025  10.928
  110SAPE   C1211348   3.442   6.984  10.833
  110SAPE  H12A11349   3.448   6.880  10.871
  110SAPE  H12B11350   3.480   6.987  10.729
  110SAPE   C1111351   3.302   7.044  10.833
  110SAPE  H11A11352   3.314   7.142  10.781
  110SAPE  H11B11353   3.266   7.065  10.937
  110SAPE     P11354   3.109   7.023  10.661
  110SAPE   O1311355   3.182   7.111  10.567
  110SAPE   O1411356   3.018   6.921  10.604
  110SAPE   O1211357   3.212   6.958  10.763
  110SAPE   O1111358   3.032   7.107  10.772
  110SAPE    C111359   3.015   7.037  10.910
  110SAPE    HA11360   2.904   7.018  10.873
  110SAPE    HB11361   3.050   6.947  10.922
  110SAPE    C211362   2.995   7.159  11.038
  110SAPE    HS11363   2.951   7.194  10.951
  110SAPE   O2111364   3.096   7.241  11.170
  110SAPE   C2111365   3.213   7.357  11.208
  110SAPE   O2211366   3.241   7.477  11.225
  110SAPE   C2211367   3.287   7.279  11.161
  110SAPE   H2R11368   3.262   7.211  11.072
  110SAPE   H2S11369   3.334   7.373  11.116
  110SAPE    C311370   2.956   7.108  11.128
  110SAPE    HX11371   2.892   7.217  11.135
  110SAPE    HY11372   2.856   7.173  11.080
  110SAPE   O3111373   2.956   6.977  11.159
  110SAPE   C3111374   3.047   6.942  11.231
  110SAPE   O3211375   3.134   7.000  11.286
  110SAPE   C3211376   3.020   6.803  11.251
  110SAPE   H2X11377   3.026   6.741  11.160
  110SAPE   H2Y11378   2.922   6.823  11.277
  110SAPE   C2311379   3.271   7.255  11.314
  110SAPE   H3R11380   3.252   7.153  11.296
  110SAPE   H3S11381   3.204   7.289  11.407
  110SAPE   C2411382   3.401   7.304  11.341
  110SAPE   H4R11383   3.392   7.410  11.375
  110SAPE   H4S11384   3.447   7.325  11.245
  110SAPE   C2511385   3.438   7.194  11.422
  110SAPE   H5R11386   3.527   7.136  11.400
  110SAPE   C2611387   3.400   7.216  11.545
  110SAPE   H6R11388   3.482   7.165  11.598
  110SAPE   C2711389   3.325   7.350  11.599
  110SAPE   H7R11390   3.305   7.441  11.538
  110SAPE   H7S11391   3.375   7.433  11.655
  110SAPE   C2811392   3.223   7.295  11.683
  110SAPE   H8R11393   3.186   7.201  11.647
  110SAPE   C2911394   3.206   7.336  11.806
  110SAPE   H9R11395   3.124   7.301  11.866
  110SAPE  C21011396   3.284   7.426  11.871
  110SAPE  H10R11397   3.210   7.490  11.877
  110SAPE  H10S11398   3.344   7.517  11.819
  110SAPE  C21111399   3.361   7.393  11.999
  110SAPE  H11R11400   3.410   7.472  12.001
  110SAPE  C21211401   3.324   7.327  12.118
  110SAPE  H12R11402   3.413   7.352  12.192
  110SAPE  C21311403   3.189   7.347  12.193
  110SAPE  H13R11404   3.102   7.391  12.144
  110SAPE  H13S11405   3.188   7.395  12.288
  110SAPE  C21411406   3.130   7.217  12.192
  110SAPE  H14R11407   3.119   7.178  12.091
  110SAPE  C21511408   3.078   7.181  12.305
  110SAPE  H15R11409   3.029   7.085  12.299
  110SAPE  C21611410   3.069   7.256  12.437
  110SAPE  H16R11411   3.083   7.366  12.432
  110SAPE  H16S11412   3.129   7.202  12.507
  110SAPE  C21711413   2.948   7.247  12.521
  110SAPE  H17R11414   2.936   7.142  12.519
  110SAPE  H17S11415   2.906   7.315  12.452
  110SAPE  C21811416   2.917   7.298  12.658
  110SAPE  H18R11417   2.928   7.404  12.678
  110SAPE  H18S11418   2.998   7.247  12.711
  110SAPE  C21911419   2.772   7.270  12.705
  110SAPE  H19R11420   2.738   7.171  12.673
  110SAPE  H19S11421   2.691   7.338  12.681
  110SAPE  C22011422   2.775   7.258  12.849
  110SAPE  H20R11423   2.696   7.194  12.895
  110SAPE  H20S11424   2.796   7.349  12.907
  110SAPE  H20T11425   2.867   7.201  12.840
  110SAPE   C3311426   3.056   6.753  11.388
  110SAPE   H3X11427   3.008   6.654  11.406
  110SAPE   H3Y11428   3.020   6.823  11.469
  110SAPE   C3411429   3.201   6.739  11.376
  110SAPE   H4X11430   3.246   6.832  11.337
  110SAPE   H4Y11431   3.218   6.663  11.297
  110SAPE   C3511432   3.265   6.706  11.507
  110SAPE   H5X11433   3.367   6.679  11.473
  110SAPE   H5Y11434   3.214   6.617  11.549
  110SAPE   C3611435   3.264   6.821  11.609
  110SAPE   H6X11436   3.173   6.819  11.672
  110SAPE   H6Y11437   3.263   6.918  11.552
  110SAPE   C3711438   3.386   6.820  11.702
  110SAPE   H7X11439   3.475   6.841  11.638
  110SAPE   H7Y11440   3.398   6.720  11.750
  110SAPE   C3811441   3.379   6.929  11.810
  110SAPE   H8X11442   3.305   6.904  11.890
  110SAPE   H8Y11443   3.346   7.022  11.760
  110SAPE   C3911444   3.515   6.953  11.878
  110SAPE   H9X11445   3.556   7.052  11.847
  110SAPE   H9Y11446   3.587   6.877  11.842
  110SAPE  C31011447   3.506   6.945  12.031
  110SAPE  H10X11448   3.608   6.952  12.074
  110SAPE  H10Y11449   3.462   6.847  12.060
  110SAPE  C31111450   3.425   7.057  12.095
  110SAPE  H11X11451   3.318   7.053  12.066
  110SAPE  H11Y11452   3.469   7.153  12.061
  110SAPE  C31211453   3.432   7.056  12.245
  110SAPE  H12X11454   3.410   7.157  12.287
  110SAPE  H12Y11455   3.534   7.029  12.282
  110SAPE  C31311456   3.325   6.965  12.301
  110SAPE  H13X11457   3.345   6.860  12.266
  110SAPE  H13Y11458   3.220   6.988  12.282
  110SAPE  C31411459   3.340   6.974  12.447
  110SAPE  H14X11460   3.307   7.047  12.519
  110SAPE  H14Y11461   3.446   6.987  12.449
  110SAPE  C31511462   3.298   6.848  12.501
  110SAPE  H15X11463   3.334   6.863  12.606
  110SAPE  H15Y11464   3.365   6.778  12.450
  110SAPE  C31611465   3.154   6.813  12.489
  110SAPE  H16X11466   3.114   6.728  12.543
  110SAPE  H16Y11467   3.127   6.785  12.385
  110SAPE  C31711468   3.068   6.922  12.532
  110SAPE  H17X11469   2.973   6.863  12.513
  110SAPE  H17Y11470   3.094   7.009  12.476
  110SAPE  C31811471   3.068   6.978  12.667
  110SAPE  H18X11472   3.012   7.063  12.707
  110SAPE  H18Y11473   3.150   6.946  12.732
  110SAPE  H18Z11474   2.976   6.921  12.684
  111SAPE     N11475   1.971   0.648  10.661
  111SAPE   HN111476   2.024   0.725  10.615
  111SAPE   HN211477   1.893   0.616  10.601
  111SAPE   HN311478   1.936   0.684  10.751
  111SAPE   C1211479   2.063   0.532  10.690
  111SAPE  H12A11480   2.130   0.516  10.602
  111SAPE  H12B11481   2.001   0.442  10.707
  111SAPE   C1111482   2.150   0.559  10.812
  111SAPE  H11A11483   2.224   0.475  10.817
  111SAPE  H11B11484   2.094   0.553  10.904
  111SAPE     P11485   2.349   0.704  10.746
  111SAPE   O1311486   2.360   0.606  10.636
  111SAPE   O1411487   2.386   0.844  10.725
  111SAPE   O1211488   2.203   0.692  10.804
  111SAPE   O1111489   2.422   0.652  10.871
  111SAPE    C111490   2.542   0.590  10.843
  111SAPE    HA11491   2.536   0.483  10.810
  111SAPE    HB11492   2.614   0.640  10.771
  111SAPE    C211493   2.605   0.589  10.974
  111SAPE    HS11494   2.660   0.514  10.952
  111SAPE   O2111495   2.540   0.562  11.102
  111SAPE   C2111496   2.527   0.426  11.116
  111SAPE   O2211497   2.539   0.346  11.026
  111SAPE   C2211498   2.493   0.383  11.256
  111SAPE   H2R11499   2.544   0.287  11.280
  111SAPE   H2S11500   2.523   0.461  11.329
  111SAPE    C311501   2.681   0.729  10.976
  111SAPE    HX11502   2.777   0.759  10.927
  111SAPE    HY11503   2.712   0.672  11.053
  111SAPE   O3111504   2.619   0.840  11.012
  111SAPE   C3111505   2.618   0.887  11.128
  111SAPE   O3211506   2.702   0.889  11.217
  111SAPE   C3211507   2.477   0.932  11.127
  111SAPE   H2X11508   2.439   0.940  11.021
  111SAPE   H2Y11509   2.481   1.031  11.173
  111SAPE   C2311510   2.342   0.358  11.258
  111SAPE   H3R11511   2.324   0.288  11.343
  111SAPE   H3S11512   2.311   0.302  11.167
  111SAPE   C2411513   2.262   0.489  11.269
  111SAPE   H4R11514   2.264   0.547  11.174
  111SAPE   H4S11515   2.302   0.557  11.347
  111SAPE   C2511516   2.131   0.429  11.309
  111SAPE   H5R11517   2.076   0.386  11.224
  111SAPE   C2611518   2.061   0.457  11.419
  111SAPE   H6R11519   1.957   0.420  11.423
  111SAPE   C2711520   2.094   0.558  11.525
  111SAPE   H7R11521   2.011   0.618  11.558
  111SAPE   H7S11522   2.162   0.642  11.495
  111SAPE   C2811523   2.103   0.507  11.658
  111SAPE   H8R11524   2.010   0.495  11.716
  111SAPE   C2911525   2.222   0.495  11.708
  111SAPE   H9R11526   2.232   0.465  11.812
  111SAPE  C21011527   2.348   0.530  11.639
  111SAPE  H10R11528   2.384   0.612  11.704
  111SAPE  H10S11529   2.347   0.570  11.538
  111SAPE  C21111530   2.436   0.415  11.641
  111SAPE  H11R11531   2.435   0.330  11.567
  111SAPE  C21211532   2.527   0.426  11.734
  111SAPE  H12R11533   2.585   0.330  11.719
  111SAPE  C21311534   2.564   0.547  11.848
  111SAPE  H13R11535   2.479   0.591  11.891
  111SAPE  H13S11536   2.570   0.619  11.763
  111SAPE  C21411537   2.698   0.595  11.951
  111SAPE  H14R11538   2.820   0.526  11.935
  111SAPE  C21511539   2.690   0.614  12.068
  111SAPE  H15R11540   2.780   0.565  12.069
  111SAPE  C21611541   2.557   0.588  12.138
  111SAPE  H16R11542   2.490   0.651  12.079
  111SAPE  H16S11543   2.587   0.628  12.233
  111SAPE  C21711544   2.448   0.464  12.177
  111SAPE  H17R11545   2.430   0.397  12.092
  111SAPE  H17S11546   2.348   0.507  12.194
  111SAPE  C21811547   2.463   0.355  12.294
  111SAPE  H18R11548   2.531   0.270  12.272
  111SAPE  H18S11549   2.376   0.288  12.312
  111SAPE  C21911550   2.517   0.427  12.416
  111SAPE  H19R11551   2.463   0.513  12.450
  111SAPE  H19S11552   2.597   0.475  12.365
  111SAPE  C22011553   2.571   0.352  12.534
  111SAPE  H20R11554   2.492   0.296  12.582
  111SAPE  H20S11555   2.638   0.396  12.609
  111SAPE  H20T11556   2.641   0.280  12.489
  111SAPE   C3311557   2.401   0.826  11.206
  111SAPE   H3X11558   2.460   0.804  11.298
  111SAPE   H3Y11559   2.399   0.731  11.147
  111SAPE   C3411560   2.260   0.869  11.247
  111SAPE   H4X11561   2.219   0.793  11.317
  111SAPE   H4Y11562   2.196   0.869  11.156
  111SAPE   C3511563   2.246   1.007  11.315
  111SAPE   H5X11564   2.138   1.025  11.336
  111SAPE   H5Y11565   2.276   1.086  11.242
  111SAPE   C3611566   2.323   1.027  11.446
  111SAPE   H6X11567   2.358   1.133  11.450
  111SAPE   H6Y11568   2.414   0.963  11.453
  111SAPE   C3711569   2.235   0.996  11.568
  111SAPE   H7X11570   2.212   0.888  11.564
  111SAPE   H7Y11571   2.136   1.048  11.558
  111SAPE   C3811572   2.302   1.032  11.702
  111SAPE   H8X11573   2.313   1.143  11.705
  111SAPE   H8Y11574   2.405   0.990  11.703
  111SAPE   C3911575   2.223   0.983  11.825
  111SAPE   H9X11576   2.118   1.017  11.812
  111SAPE   H9Y11577   2.264   1.028  11.918
  111SAPE  C31011578   2.223   0.830  11.841
  111SAPE  H10X11579   2.323   0.794  11.872
  111SAPE  H10Y11580   2.199   0.788  11.740
  111SAPE  C31111581   2.118   0.769  11.937
  111SAPE  H11X11582   2.126   0.658  11.932
  111SAPE  H11Y11583   2.018   0.797  11.898
  111SAPE  C31211584   2.134   0.811  12.084
  111SAPE  H12X11585   2.112   0.920  12.095
  111SAPE  H12Y11586   2.240   0.796  12.114
  111SAPE  C31311587   2.042   0.735  12.180
  111SAPE  H13X11588   2.065   0.627  12.182
  111SAPE  H13Y11589   1.935   0.749  12.150
  111SAPE  C31411590   2.053   0.786  12.324
  111SAPE  H14X11591   1.969   0.743  12.383
  111SAPE  H14Y11592   2.043   0.897  12.321
  111SAPE  C31511593   2.184   0.742  12.390
  111SAPE  H15X11594   2.268   0.787  12.333
  111SAPE  H15Y11595   2.193   0.631  12.382
  111SAPE  C31611596   2.199   0.787  12.536
  111SAPE  H16X11597   2.174   0.894  12.550
  111SAPE  H16Y11598   2.307   0.777  12.562
  111SAPE  C31711599   2.122   0.704  12.638
  111SAPE  H17X11600   2.150   0.597  12.629
  111SAPE  H17Y11601   2.012   0.712  12.619
  111SAPE  C31811602   2.153   0.746  12.782
  111SAPE  H18X11603   2.092   0.680  12.846
  111SAPE  H18Y11604   2.127   0.854  12.798
  111SAPE  H18Z11605   2.255   0.730  12.817
  112SAPE     N11606   6.519   5.457  10.501
  112SAPE   HN111607   6.507   5.434  10.401
  112SAPE   HN211608   6.467   5.388  10.560
  112SAPE   HN311609   6.481   5.552  10.520
  112SAPE   C1211610   6.666   5.452  10.536
  112SAPE  H12A11611   6.712   5.545  10.497
  112SAPE  H12B11612   6.711   5.363  10.488
  112SAPE   C1111613   6.688   5.444  10.688
  112SAPE  H11A11614   6.793   5.419  10.713
  112SAPE  H11B11615   6.625   5.361  10.728
  112SAPE     P11616   6.545   5.582  10.846
  112SAPE   O1311617   6.538   5.717  10.905
  112SAPE   O1411618   6.429   5.534  10.766
  112SAPE   O1211619   6.663   5.574  10.743
  112SAPE   O1111620   6.586   5.472  10.951
  112SAPE    C111621   6.482   5.416  11.030
  112SAPE    HA11622   6.381   5.422  10.982
  112SAPE    HB11623   6.502   5.308  11.047
  112SAPE    C211624   6.476   5.489  11.165
  112SAPE    HS11625   6.465   5.599  11.145
  112SAPE   O2111626   6.593   5.458  11.242
  112SAPE   C2111627   6.627   5.549  11.330
  112SAPE   O2211628   6.576   5.658  11.346
  112SAPE   C2211629   6.730   5.492  11.423
  112SAPE   H2R11630   6.789   5.415  11.370
  112SAPE   H2S11631   6.797   5.571  11.462
  112SAPE    C311632   6.351   5.446  11.240
  112SAPE    HX11633   6.367   5.347  11.289
  112SAPE    HY11634   6.268   5.431  11.165
  112SAPE   O3111635   6.326   5.552  11.334
  112SAPE   C3111636   6.210   5.536  11.385
  112SAPE   O3211637   6.138   5.442  11.355
  112SAPE   C3211638   6.185   5.648  11.486
  112SAPE   H2X11639   6.141   5.743  11.453
  112SAPE   H2Y11640   6.274   5.687  11.533
  112SAPE   C2311641   6.652   5.434  11.541
  112SAPE   H3R11642   6.566   5.372  11.506
  112SAPE   H3S11643   6.612   5.520  11.600
  112SAPE   C2411644   6.737   5.340  11.624
  112SAPE   H4R11645   6.768   5.256  11.558
  112SAPE   H4S11646   6.669   5.301  11.702
  112SAPE   C2511647   6.863   5.395  11.682
  112SAPE   H5R11648   6.951   5.392  11.619
  112SAPE   C2611649   6.869   5.455  11.800
  112SAPE   H6R11650   6.967   5.489  11.839
  112SAPE   C2711651   6.747   5.472  11.885
  112SAPE   H7R11652   6.698   5.382  11.922
  112SAPE   H7S11653   6.674   5.541  11.834
  112SAPE   C2811654   6.792   5.537  12.005
  112SAPE   H8R11655   6.779   5.636  11.984
  112SAPE   C2911656   6.835   5.505  12.125
  112SAPE   H9R11657   6.880   5.573  12.193
  112SAPE  C21011658   6.853   5.377  12.184
  112SAPE  H10R11659   6.952   5.389  12.234
  112SAPE  H10S11660   6.853   5.315  12.097
  112SAPE  C21111661   6.738   5.346  12.274
  112SAPE  H11R11662   6.642   5.324  12.228
  112SAPE  C21211663   6.747   5.336  12.405
  112SAPE  H12R11664   6.658   5.311  12.464
  112SAPE  C21311665   6.872   5.353  12.484
  112SAPE  H13R11666   6.963   5.389  12.433
  112SAPE  H13S11667   6.896   5.269  12.550
  112SAPE  C21411668   6.833   5.469  12.560
  112SAPE  H14R11669   6.822   5.561  12.501
  112SAPE  C21511670   6.809   5.471  12.686
  112SAPE  H15R11671   6.785   5.560  12.747
  112SAPE  C21611672   6.811   5.362  12.771
  112SAPE  H16R11673   6.722   5.302  12.744
  112SAPE  H16S11674   6.806   5.422  12.862
  112SAPE  C21711675   6.918   5.286  12.812
  112SAPE  H17R11676   7.012   5.292  12.760
  112SAPE  H17S11677   6.879   5.189  12.792
  112SAPE  C21811678   6.927   5.302  12.959
  112SAPE  H18R11679   6.998   5.230  12.947
  112SAPE  H18S11680   6.851   5.252  13.017
  112SAPE  C21911681   6.991   5.415  13.034
  112SAPE  H19R11682   7.006   5.441  13.136
  112SAPE  H19S11683   6.916   5.491  13.056
  112SAPE  C22011684   7.151   5.413  13.028
  112SAPE  H20R11685   7.213   5.497  13.042
  112SAPE  H20S11686   7.088   5.433  12.947
  112SAPE  H20T11687   7.213   5.344  12.973
  112SAPE   C3311688   6.110   5.590  11.599
  112SAPE   H3X11689   6.058   5.498  11.585
  112SAPE   H3Y11690   6.018   5.642  11.570
  112SAPE   C3411691   6.165   5.622  11.743
  112SAPE   H4X11692   6.102   5.583  11.832
  112SAPE   H4Y11693   6.172   5.729  11.762
  112SAPE   C3511694   6.283   5.553  11.788
  112SAPE   H5X11695   6.278   5.560  11.901
  112SAPE   H5Y11696   6.367   5.586  11.730
  112SAPE   C3611697   6.274   5.414  11.758
  112SAPE   H6X11698   6.256   5.375  11.658
  112SAPE   H6Y11699   6.172   5.424  11.782
  112SAPE   C3711700   6.375   5.339  11.838
  112SAPE   H7X11701   6.473   5.367  11.804
  112SAPE   H7Y11702   6.362   5.233  11.822
  112SAPE   C3811703   6.371   5.309  11.983
  112SAPE   H8X11704   6.447   5.230  12.006
  112SAPE   H8Y11705   6.272   5.271  12.002
  112SAPE   C3911706   6.339   5.408  12.078
  112SAPE   H9X11707   6.233   5.445  12.062
  112SAPE   H9Y11708   6.427   5.471  12.067
  112SAPE  C31011709   6.342   5.350  12.211
  112SAPE  H10X11710   6.428   5.280  12.221
  112SAPE  H10Y11711   6.248   5.296  12.206
  112SAPE  C31111712   6.322   5.468  12.303
  112SAPE  H11X11713   6.230   5.518  12.266
  112SAPE  H11Y11714   6.418   5.520  12.302
  112SAPE  C31211715   6.307   5.435  12.444
  112SAPE  H12X11716   6.407   5.399  12.474
  112SAPE  H12Y11717   6.230   5.361  12.428
  112SAPE  C31311718   6.261   5.503  12.570
  112SAPE  H13X11719   6.211   5.445  12.651
  112SAPE  H13Y11720   6.197   5.584  12.562
  112SAPE  C31411721   6.376   5.556  12.626
  112SAPE  H14X11722   6.425   5.592  12.533
  112SAPE  H14Y11723   6.438   5.480  12.672
  112SAPE  C31511724   6.317   5.654  12.722
  112SAPE  H15X11725   6.254   5.728  12.681
  112SAPE  H15Y11726   6.407   5.709  12.754
  112SAPE  C31611727   6.225   5.604  12.824
  112SAPE  H16X11728   6.271   5.516  12.870
  112SAPE  H16Y11729   6.128   5.571  12.786
  112SAPE  C31711730   6.194   5.725  12.907
  112SAPE  H17X11731   6.166   5.664  12.996
  112SAPE  H17Y11732   6.110   5.782  12.878
  112SAPE  C31811733   6.307   5.824  12.938
  112SAPE  H18X11734   6.384   5.883  12.892
  112SAPE  H18Y11735   6.386   5.753  12.929
  112SAPE  H18Z11736   6.304   5.846  13.042
  113SAPE     N11737   0.405   4.371  10.834
  113SAPE   HN111738   0.480   4.301  10.816
  113SAPE   HN211739   0.334   4.333  10.900
  113SAPE   HN311740   0.353   4.395  10.746
  113SAPE   C1211741   0.459   4.495  10.897
  113SAPE  H12A11742   0.553   4.524  10.846
  113SAPE  H12B11743   0.482   4.471  11.003
  113SAPE   C1111744   0.351   4.604  10.898
  113SAPE  H11A11745   0.357   4.656  10.996
  113SAPE  H11B11746   0.250   4.560  10.894
  113SAPE     P11747   0.286   4.697  10.659
  113SAPE   O1311748   0.270   4.834  10.609
  113SAPE   O1411749   0.342   4.593  10.571
  113SAPE   O1211750   0.370   4.699  10.795
  113SAPE   O1111751   0.145   4.642  10.701
  113SAPE    C111752   0.033   4.729  10.699
  113SAPE    HA11753   0.040   4.806  10.621
  113SAPE    HB11754  -0.057   4.673  10.666
  113SAPE    C211755   0.014   4.795  10.837
  113SAPE    HS11756  -0.055   4.883  10.829
  113SAPE   O2111757   0.135   4.819  10.909
  113SAPE   C2111758   0.172   4.944  10.923
  113SAPE   O2211759   0.108   5.042  10.893
  113SAPE   C2211760   0.285   4.960  11.013
  113SAPE   H2R11761   0.232   4.995  11.105
  113SAPE   H2S11762   0.339   4.866  11.029
  113SAPE    C311763  -0.062   4.697  10.913
  113SAPE    HX11764  -0.135   4.650  10.845
  113SAPE    HY11765  -0.113   4.747  10.994
  113SAPE   O3111766   0.013   4.602  10.972
  113SAPE   C3111767  -0.002   4.483  10.927
  113SAPE   O3211768  -0.086   4.431  10.857
  113SAPE   C3211769   0.072   4.419  11.014
  113SAPE   H2X11770   0.155   4.481  11.050
  113SAPE   H2Y11771   0.112   4.332  10.955
  113SAPE   C2311772   0.370   5.076  10.959
  113SAPE   H3R11773   0.318   5.175  10.970
  113SAPE   H3S11774   0.391   5.066  10.850
  113SAPE   C2411775   0.501   5.077  11.036
  113SAPE   H4R11776   0.556   5.163  10.993
  113SAPE   H4S11777   0.557   4.984  11.014
  113SAPE   C2511778   0.471   5.099  11.182
  113SAPE   H5R11779   0.438   5.202  11.200
  113SAPE   C2611780   0.481   5.023  11.293
  113SAPE   H6R11781   0.461   5.067  11.392
  113SAPE   C2711782   0.529   4.883  11.301
  113SAPE   H7R11783   0.606   4.874  11.381
  113SAPE   H7S11784   0.574   4.855  11.205
  113SAPE   C2811785   0.418   4.789  11.332
  113SAPE   H8R11786   0.372   4.733  11.250
  113SAPE   C2911787   0.380   4.756  11.453
  113SAPE   H9R11788   0.303   4.679  11.459
  113SAPE  C21011789   0.435   4.803  11.583
  113SAPE  H10R11790   0.500   4.892  11.576
  113SAPE  H10S11791   0.485   4.719  11.632
  113SAPE  C21111792   0.333   4.822  11.681
  113SAPE  H11R11793   0.275   4.734  11.704
  113SAPE  C21211794   0.301   4.936  11.734
  113SAPE  H12R11795   0.240   4.933  11.827
  113SAPE  C21311796   0.365   5.067  11.705
  113SAPE  H13R11797   0.301   5.153  11.711
  113SAPE  H13S11798   0.380   5.107  11.604
  113SAPE  C21411799   0.469   5.055  11.811
  113SAPE  H14R11800   0.550   5.124  11.789
  113SAPE  C21511801   0.453   5.021  11.944
  113SAPE  H15R11802   0.558   5.047  11.973
  113SAPE  C21611803   0.332   4.981  12.066
  113SAPE  H16R11804   0.359   4.881  12.097
  113SAPE  H16S11805   0.227   4.979  12.030
  113SAPE  C21711806   0.281   5.048  12.225
  113SAPE  H17R11807   0.257   5.153  12.256
  113SAPE  H17S11808   0.357   5.080  12.296
  113SAPE  C21811809   0.251   4.983  12.344
  113SAPE  H18R11810   0.270   5.048  12.440
  113SAPE  H18S11811   0.306   4.889  12.345
  113SAPE  C21911812   0.111   4.995  12.319
  113SAPE  H19R11813   0.090   4.942  12.221
  113SAPE  H19S11814   0.074   5.102  12.308
  113SAPE  C22011815   0.091   4.928  12.450
  113SAPE  H20R11816   0.004   4.968  12.501
  113SAPE  H20S11817   0.152   4.960  12.536
  113SAPE  H20T11818   0.096   4.819  12.431
  113SAPE   C3311819  -0.026   4.383  11.126
  113SAPE   H3X11820  -0.098   4.294  11.108
  113SAPE   H3Y11821  -0.064   4.441  11.213
  113SAPE   C3411822   0.085   4.339  11.206
  113SAPE   H4X11823   0.085   4.264  11.124
  113SAPE   H4Y11824   0.020   4.294  11.284
  113SAPE   C3511825   0.241   4.384  11.226
  113SAPE   H5X11826   0.297   4.413  11.139
  113SAPE   H5Y11827   0.326   4.324  11.265
  113SAPE   C3611828   0.252   4.481  11.335
  113SAPE   H6X11829   0.154   4.518  11.303
  113SAPE   H6Y11830   0.346   4.529  11.352
  113SAPE   C3711831   0.266   4.411  11.462
  113SAPE   H7X11832   0.335   4.327  11.452
  113SAPE   H7Y11833   0.185   4.369  11.415
  113SAPE   C3811834   0.277   4.460  11.611
  113SAPE   H8X11835   0.329   4.360  11.631
  113SAPE   H8Y11836   0.337   4.545  11.628
  113SAPE   C3911837   0.172   4.488  11.731
  113SAPE   H9X11838   0.222   4.396  11.769
  113SAPE   H9Y11839   0.068   4.495  11.706
  113SAPE  C31011840   0.161   4.551  11.879
  113SAPE  H10X11841   0.074   4.612  11.881
  113SAPE  H10Y11842   0.250   4.605  11.898
  113SAPE  C31111843   0.061   4.531  11.998
  113SAPE  H11X11844  -0.055   4.522  11.974
  113SAPE  H11Y11845   0.072   4.601  12.083
  113SAPE  C31211846   0.115   4.441  12.097
  113SAPE  H12X11847   0.008   4.415  12.093
  113SAPE  H12Y11848   0.066   4.423  12.192
  113SAPE  C31311849   0.250   4.357  12.073
  113SAPE  H13X11850   0.309   4.376  11.983
  113SAPE  H13Y11851   0.259   4.244  12.068
  113SAPE  C31411852   0.311   4.366  12.207
  113SAPE  H14X11853   0.313   4.476  12.209
  113SAPE  H14Y11854   0.408   4.312  12.209
  113SAPE  C31511855   0.222   4.318  12.322
  113SAPE  H15X11856   0.189   4.210  12.313
  113SAPE  H15Y11857   0.134   4.380  12.349
  113SAPE  C31611858   0.298   4.302  12.440
  113SAPE  H16X11859   0.365   4.385  12.449
  113SAPE  H16Y11860   0.342   4.207  12.404
  113SAPE  C31711861   0.200   4.288  12.547
  113SAPE  H17X11862   0.161   4.194  12.529
  113SAPE  H17Y11863   0.110   4.350  12.557
  113SAPE  C31811864   0.252   4.268  12.674
  113SAPE  H18X11865   0.334   4.201  12.684
  113SAPE  H18Y11866   0.170   4.243  12.743
  113SAPE  H18Z11867   0.299   4.351  12.709
  114SAPE     N11868   2.584   6.976  10.609
  114SAPE   HN111869   2.598   6.912  10.528
  114SAPE   HN211870   2.575   6.915  10.693
  114SAPE   HN311871   2.495   7.028  10.598
  114SAPE   C1211872   2.693   7.080  10.625
  114SAPE  H12A11873   2.715   7.123  10.526
  114SAPE  H12B11874   2.784   7.032  10.665
  114SAPE   C1111875   2.648   7.189  10.724
  114SAPE  H11A11876   2.718   7.276  10.721
  114SAPE  H11B11877   2.652   7.145  10.826
  114SAPE     P11878   2.439   7.322  10.798
  114SAPE   O1311879   2.525   7.431  10.842
  114SAPE   O1411880   2.306   7.346  10.740
  114SAPE   O1211881   2.515   7.230  10.693
  114SAPE   O1111882   2.435   7.221  10.919
  114SAPE    C111883   2.354   7.107  10.904
  114SAPE    HA11884   2.246   7.139  10.900
  114SAPE    HB11885   2.371   7.048  10.811
  114SAPE    C211886   2.370   7.009  11.024
  114SAPE    HS11887   2.272   6.970  11.016
  114SAPE   O2111888   2.407   7.064  11.154
  114SAPE   C2111889   2.319   7.146  11.189
  114SAPE   O2211890   2.216   7.157  11.129
  114SAPE   C2211891   2.369   7.231  11.307
  114SAPE   H2R11892   2.416   7.163  11.381
  114SAPE   H2S11893   2.443   7.298  11.259
  114SAPE    C311894   2.468   6.894  11.004
  114SAPE    HX11895   2.467   6.850  10.904
  114SAPE    HY11896   2.466   6.813  11.081
  114SAPE   O3111897   2.587   6.948  11.008
  114SAPE   C3111898   2.629   6.956  11.128
  114SAPE   O3211899   2.597   6.915  11.235
  114SAPE   C3211900   2.716   7.024  11.110
  114SAPE   H2X11901   2.740   7.073  11.007
  114SAPE   H2Y11902   2.791   6.943  11.062
  114SAPE   C2311903   2.278   7.334  11.374
  114SAPE   H3R11904   2.217   7.393  11.303
  114SAPE   H3S11905   2.341   7.410  11.425
  114SAPE   C2411906   2.202   7.273  11.484
  114SAPE   H4R11907   2.261   7.209  11.553
  114SAPE   H4S11908   2.131   7.200  11.439
  114SAPE   C2511909   2.140   7.394  11.549
  114SAPE   H5R11910   2.041   7.393  11.571
  114SAPE   C2611911   2.157   7.483  11.637
  114SAPE   H6R11912   2.068   7.545  11.667
  114SAPE   C2711913   2.276   7.479  11.712
  114SAPE   H7R11914   2.336   7.526  11.635
  114SAPE   H7S11915   2.303   7.374  11.732
  114SAPE   C2811916   2.243   7.565  11.828
  114SAPE   H8R11917   2.158   7.634  11.816
  114SAPE   C2911918   2.297   7.563  11.948
  114SAPE   H9R11919   2.271   7.650  12.009
  114SAPE  C21011920   2.406   7.473  11.996
  114SAPE  H10R11921   2.410   7.484  12.107
  114SAPE  H10S11922   2.505   7.501  11.960
  114SAPE  C21111923   2.396   7.329  11.957
  114SAPE  H11R11924   2.445   7.299  11.864
  114SAPE  C21211925   2.326   7.242  12.022
  114SAPE  H12R11926   2.333   7.135  11.997
  114SAPE  C21311927   2.250   7.283  12.143
  114SAPE  H13R11928   2.193   7.378  12.132
  114SAPE  H13S11929   2.314   7.285  12.234
  114SAPE  C21411930   2.150   7.180  12.154
  114SAPE  H14R11931   2.053   7.230  12.171
  114SAPE  C21511932   2.161   7.045  12.148
  114SAPE  H15R11933   2.080   6.972  12.159
  114SAPE  C21611934   2.260   6.951  12.133
  114SAPE  H16R11935   2.286   6.937  12.030
  114SAPE  H16S11936   2.207   6.862  12.152
  114SAPE  C21711937   2.353   6.985  12.238
  114SAPE  H17R11938   2.416   7.071  12.217
  114SAPE  H17S11939   2.400   6.890  12.242
  114SAPE  C21811940   2.317   7.011  12.377
  114SAPE  H18R11941   2.283   6.902  12.385
  114SAPE  H18S11942   2.269   7.106  12.407
  114SAPE  C21911943   2.348   6.934  12.497
  114SAPE  H19R11944   2.302   6.974  12.591
  114SAPE  H19S11945   2.393   7.029  12.547
  114SAPE  C22011946   2.439   6.779  12.466
  114SAPE  H20R11947   2.499   6.737  12.393
  114SAPE  H20S11948   2.393   6.696  12.502
  114SAPE  H20T11949   2.535   6.748  12.516
  114SAPE   C3311950   2.735   7.113  11.265
  114SAPE   H3X11951   2.678   7.203  11.254
  114SAPE   H3Y11952   2.801   7.202  11.272
  114SAPE   C3411953   2.859   7.107  11.374
  114SAPE   H4X11954   2.966   7.135  11.345
  114SAPE   H4Y11955   2.856   7.005  11.407
  114SAPE   C3511956   2.877   7.204  11.488
  114SAPE   H5X11957   2.796   7.279  11.485
  114SAPE   H5Y11958   2.977   7.254  11.492
  114SAPE   C3611959   2.911   7.120  11.606
  114SAPE   H6X11960   3.017   7.083  11.604
  114SAPE   H6Y11961   2.852   7.030  11.596
  114SAPE   C3711962   2.883   7.193  11.732
  114SAPE   H7X11963   2.799   7.265  11.718
  114SAPE   H7Y11964   2.972   7.248  11.764
  114SAPE   C3811965   2.847   7.094  11.836
  114SAPE   H8X11966   2.911   7.002  11.826
  114SAPE   H8Y11967   2.740   7.072  11.814
  114SAPE   C3911968   2.849   7.159  11.969
  114SAPE   H9X11969   2.778   7.245  11.959
  114SAPE   H9Y11970   2.950   7.198  11.992
  114SAPE  C31011971   2.789   7.079  12.079
  114SAPE  H10X11972   2.858   7.004  12.123
  114SAPE  H10Y11973   2.703   7.024  12.033
  114SAPE  C31111974   2.715   7.171  12.175
  114SAPE  H11X11975   2.670   7.117  12.255
  114SAPE  H11Y11976   2.629   7.225  12.138
  114SAPE  C31211977   2.789   7.244  12.278
  114SAPE  H12X11978   2.860   7.319  12.241
  114SAPE  H12Y11979   2.850   7.161  12.317
  114SAPE  C31311980   2.694   7.296  12.389
  114SAPE  H13X11981   2.737   7.338  12.479
  114SAPE  H13Y11982   2.632   7.231  12.450
  114SAPE  C31411983   2.602   7.391  12.346
  114SAPE  H14X11984   2.532   7.346  12.274
  114SAPE  H14Y11985   2.670   7.468  12.301
  114SAPE  C31511986   2.533   7.429  12.474
  114SAPE  H15X11987   2.463   7.503  12.439
  114SAPE  H15Y11988   2.608   7.459  12.553
  114SAPE  C31611989   2.453   7.349  12.567
  114SAPE  H16X11990   2.519   7.274  12.614
  114SAPE  H16Y11991   2.374   7.301  12.507
  114SAPE  C31711992   2.402   7.441  12.678
  114SAPE  H17X11993   2.325   7.514  12.641
  114SAPE  H17Y11994   2.475   7.490  12.746
  114SAPE  C31811995   2.334   7.347  12.761
  114SAPE  H18X11996   2.282   7.394  12.848
  114SAPE  H18Y11997   2.392   7.259  12.797
  114SAPE  H18Z11998   2.258   7.308  12.688
  115SAPE     N11999   7.414   5.820  10.810
  115SAPE   HN112000   7.483   5.858  10.742
  115SAPE   HN212001   7.411   5.881  10.893
  115SAPE   HN312002   7.443   5.722  10.838
  115SAPE   C1212003   7.275   5.814  10.751
  115SAPE  H12A12004   7.207   5.788  10.834
  115SAPE  H12B12005   7.270   5.731  10.679
  115SAPE   C1112006   7.231   5.943  10.681
  115SAPE  H11A12007   7.137   5.915  10.629
  115SAPE  H11B12008   7.305   5.973  10.604
  115SAPE     P12009   7.094   6.156  10.745
  115SAPE   O1312010   7.105   6.265  10.843
  115SAPE   O1412011   7.094   6.185  10.600
  115SAPE   O1212012   7.211   6.050  10.773
  115SAPE   O1112013   6.965   6.069  10.772
  115SAPE    C112014   6.948   5.986  10.888
  115SAPE    HA12015   6.929   5.881  10.857
  115SAPE    HB12016   7.035   5.994  10.957
  115SAPE    C212017   6.827   6.024  10.973
  115SAPE    HS12018   6.736   6.011  10.908
  115SAPE   O2112019   6.850   6.159  11.005
  115SAPE   C2112020   6.738   6.205  11.038
  115SAPE   O2212021   6.631   6.147  11.040
  115SAPE   C2212022   6.762   6.336  11.081
  115SAPE   H2R12023   6.859   6.385  11.057
  115SAPE   H2S12024   6.679   6.389  11.030
  115SAPE    C312025   6.803   5.939  11.102
  115SAPE    HX12026   6.780   5.837  11.066
  115SAPE    HY12027   6.715   5.972  11.161
  115SAPE   O3112028   6.916   5.950  11.188
  115SAPE   C3112029   6.989   5.845  11.199
  115SAPE   O3212030   6.969   5.733  11.155
  115SAPE   C3212031   7.113   5.895  11.273
  115SAPE   H2X12032   7.086   5.907  11.381
  115SAPE   H2Y12033   7.149   5.988  11.226
  115SAPE   C2312034   6.767   6.312  11.230
  115SAPE   H3R12035   6.670   6.299  11.282
  115SAPE   H3S12036   6.798   6.413  11.242
  115SAPE   C2412037   6.903   6.298  11.301
  115SAPE   H4R12038   6.975   6.367  11.252
  115SAPE   H4S12039   6.916   6.191  11.283
  115SAPE   C2512040   6.944   6.329  11.440
  115SAPE   H5R12041   7.001   6.413  11.477
  115SAPE   C2612042   6.884   6.280  11.537
  115SAPE   H6R12043   6.894   6.344  11.626
  115SAPE   C2712044   6.774   6.194  11.514
  115SAPE   H7R12045   6.685   6.223  11.457
  115SAPE   H7S12046   6.744   6.257  11.603
  115SAPE   C2812047   6.789   6.044  11.478
  115SAPE   H8R12048   6.759   6.054  11.373
  115SAPE   C2912049   6.770   5.915  11.527
  115SAPE   H9R12050   6.760   5.836  11.452
  115SAPE  C21012051   6.716   5.851  11.659
  115SAPE  H10R12052   6.611   5.812  11.668
  115SAPE  H10S12053   6.686   5.907  11.742
  115SAPE  C21112054   6.823   5.778  11.719
  115SAPE  H11R12055   6.855   5.703  11.647
  115SAPE  C21212056   6.865   5.784  11.846
  115SAPE  H12R12057   6.934   5.703  11.867
  115SAPE  C21312058   6.814   5.863  11.968
  115SAPE  H13R12059   6.724   5.919  11.948
  115SAPE  H13S12060   6.901   5.928  11.987
  115SAPE  C21412061   6.755   5.818  12.101
  115SAPE  H14R12062   6.666   5.755  12.100
  115SAPE  C21512063   6.827   5.793  12.205
  115SAPE  H15R12064   6.796   5.717  12.280
  115SAPE  C21612065   6.969   5.809  12.196
  115SAPE  H16R12066   7.013   5.903  12.163
  115SAPE  H16S12067   7.007   5.724  12.132
  115SAPE  C21712068   7.006   5.790  12.339
  115SAPE  H17R12069   7.103   5.826  12.371
  115SAPE  H17S12070   7.024   5.685  12.312
  115SAPE  C21812071   6.936   5.864  12.455
  115SAPE  H18R12072   6.829   5.848  12.438
  115SAPE  H18S12073   6.977   5.966  12.436
  115SAPE  C21912074   6.956   5.851  12.609
  115SAPE  H19R12075   6.910   5.930  12.669
  115SAPE  H19S12076   7.059   5.835  12.648
  115SAPE  C22012077   6.877   5.743  12.660
  115SAPE  H20R12078   6.776   5.721  12.616
  115SAPE  H20S12079   6.897   5.709  12.763
  115SAPE  H20T12080   6.936   5.662  12.626
  115SAPE   C3312081   7.222   5.795  11.263
  115SAPE   H3X12082   7.234   5.767  11.155
  115SAPE   H3Y12083   7.177   5.718  11.329
  115SAPE   C3412084   7.356   5.818  11.321
  115SAPE   H4X12085   7.425   5.730  11.326
  115SAPE   H4Y12086   7.341   5.847  11.426
  115SAPE   C3512087   7.414   5.922  11.230
  115SAPE   H5X12088   7.345   5.987  11.176
  115SAPE   H5Y12089   7.474   5.870  11.151
  115SAPE   C3612090   7.489   6.015  11.315
  115SAPE   H6X12091   7.559   6.077  11.253
  115SAPE   H6Y12092   7.547   5.953  11.390
  115SAPE   C3712093   7.419   6.125  11.381
  115SAPE   H7X12094   7.311   6.112  11.377
  115SAPE   H7Y12095   7.472   6.222  11.358
  115SAPE   C3812096   7.438   6.094  11.520
  115SAPE   H8X12097   7.540   6.099  11.529
  115SAPE   H8Y12098   7.417   5.990  11.545
  115SAPE   C3912099   7.400   6.186  11.622
  115SAPE   H9X12100   7.445   6.282  11.614
  115SAPE   H9Y12101   7.425   6.143  11.719
  115SAPE  C31012102   7.261   6.172  11.643
  115SAPE  H10X12103   7.247   6.062  11.629
  115SAPE  H10Y12104   7.219   6.231  11.561
  115SAPE  C31112105   7.234   6.203  11.786
  115SAPE  H11X12106   7.275   6.300  11.823
  115SAPE  H11Y12107   7.273   6.124  11.856
  115SAPE  C31212108   7.090   6.208  11.792
  115SAPE  H12X12109   7.045   6.115  11.744
  115SAPE  H12Y12110   7.054   6.293  11.730
  115SAPE  C31312111   7.065   6.231  11.941
  115SAPE  H13X12112   7.050   6.125  11.977
  115SAPE  H13Y12113   6.968   6.271  11.928
  115SAPE  C31412114   7.059   6.370  12.023
  115SAPE  H14X12115   7.042   6.448  11.942
  115SAPE  H14Y12116   7.146   6.387  12.079
  115SAPE  C31512117   6.980   6.416  12.158
  115SAPE  H15X12118   6.895   6.413  12.102
  115SAPE  H15Y12119   6.996   6.521  12.189
  115SAPE  C31612120   6.942   6.340  12.286
  115SAPE  H16X12121   7.026   6.282  12.309
  115SAPE  H16Y12122   6.920   6.236  12.296
  115SAPE  C31712123   6.851   6.383  12.395
  115SAPE  H17X12124   6.751   6.393  12.341
  115SAPE  H17Y12125   6.896   6.480  12.414
  115SAPE  C31812126   6.877   6.263  12.496
  115SAPE  H18X12127   6.978   6.219  12.500
  115SAPE  H18Y12128   6.857   6.163  12.452
  115SAPE  H18Z12129   6.820   6.269  12.588
  116SAPE     N12130  -0.348   1.325  10.509
  116SAPE   HN112131  -0.409   1.365  10.584
  116SAPE   HN212132  -0.355   1.384  10.424
  116SAPE   HN312133  -0.391   1.234  10.482
  116SAPE   C1212134  -0.206   1.305  10.555
  116SAPE  H12A12135  -0.148   1.397  10.534
  116SAPE  H12B12136  -0.161   1.225  10.494
  116SAPE   C1112137  -0.200   1.266  10.703
  116SAPE  H11A12138  -0.211   1.156  10.713
  116SAPE  H11B12139  -0.284   1.312  10.761
  116SAPE     P12140  -0.054   1.438  10.839
  116SAPE   O1312141   0.036   1.527  10.763
  116SAPE   O1412142  -0.187   1.491  10.877
  116SAPE   O1212143  -0.074   1.305  10.755
  116SAPE   O1112144   0.018   1.376  10.962
  116SAPE    C112145   0.141   1.304  10.952
  116SAPE    HA12146   0.127   1.196  10.932
  116SAPE    HB12147   0.213   1.348  10.878
  116SAPE    C212148   0.207   1.319  11.088
  116SAPE    HS12149   0.295   1.246  11.090
  116SAPE   O2112150   0.135   1.324  11.210
  116SAPE   C2112151   0.089   1.225  11.228
  116SAPE   O2212152   0.132   1.126  11.172
  116SAPE   C2212153  -0.024   1.248  11.331
  116SAPE   H2R12154  -0.076   1.338  11.306
  116SAPE   H2S12155  -0.105   1.174  11.319
  116SAPE    C312156   0.265   1.437  11.106
  116SAPE    HX12157   0.364   1.437  11.086
  116SAPE    HY12158   0.312   1.426  11.207
  116SAPE   O3112159   0.183   1.555  11.067
  116SAPE   C3112160   0.104   1.596  11.165
  116SAPE   O3212161   0.095   1.542  11.272
  116SAPE   C3212162   0.055   1.734  11.144
  116SAPE   H2X12163  -0.039   1.704  11.094
  116SAPE   H2Y12164   0.123   1.797  11.085
  116SAPE   C2312165   0.017   1.224  11.475
  116SAPE   H3R12166   0.088   1.150  11.446
  116SAPE   H3S12167  -0.069   1.182  11.534
  116SAPE   C2412168   0.120   1.295  11.560
  116SAPE   H4R12169   0.091   1.266  11.665
  116SAPE   H4S12170   0.090   1.397  11.536
  116SAPE   C2512171   0.269   1.267  11.536
  116SAPE   H5R12172   0.301   1.286  11.432
  116SAPE   C2612173   0.357   1.204  11.618
  116SAPE   H6R12174   0.461   1.200  11.591
  116SAPE   C2712175   0.338   1.144  11.753
  116SAPE   H7R12176   0.246   1.196  11.790
  116SAPE   H7S12177   0.416   1.178  11.824
  116SAPE   C2812178   0.346   0.990  11.755
  116SAPE   H8R12179   0.398   0.935  11.678
  116SAPE   C2912180   0.294   0.912  11.856
  116SAPE   H9R12181   0.241   0.816  11.823
  116SAPE  C21012182   0.229   0.990  11.968
  116SAPE  H10R12183   0.161   0.973  11.878
  116SAPE  H10S12184   0.202   1.093  11.940
  116SAPE  C21112185   0.172   0.972  12.125
  116SAPE  H11R12186   0.156   0.858  12.132
  116SAPE  C21212187   0.055   1.029  12.198
  116SAPE  H12R12188   0.036   0.993  12.302
  116SAPE  C21312189  -0.078   1.130  12.171
  116SAPE  H13R12190  -0.075   1.188  12.077
  116SAPE  H13S12191  -0.070   1.215  12.236
  116SAPE  C21412192  -0.233   1.100  12.140
  116SAPE  H14R12193  -0.275   1.091  12.037
  116SAPE  C21512194  -0.327   1.068  12.227
  116SAPE  H15R12195  -0.423   1.022  12.200
  116SAPE  C21612196  -0.296   1.057  12.369
  116SAPE  H16R12197  -0.188   1.059  12.386
  116SAPE  H16S12198  -0.353   0.973  12.412
  116SAPE  C21712199  -0.318   1.169  12.454
  116SAPE  H17R12200  -0.293   1.146  12.560
  116SAPE  H17S12201  -0.422   1.177  12.434
  116SAPE  C21812202  -0.272   1.295  12.404
  116SAPE  H18R12203  -0.337   1.313  12.316
  116SAPE  H18S12204  -0.165   1.290  12.381
  116SAPE  C21912205  -0.301   1.396  12.508
  116SAPE  H19R12206  -0.407   1.403  12.528
  116SAPE  H19S12207  -0.281   1.486  12.461
  116SAPE  C22012208  -0.207   1.402  12.624
  116SAPE  H20R12209  -0.229   1.315  12.687
  116SAPE  H20S12210  -0.221   1.497  12.679
  116SAPE  H20T12211  -0.102   1.398  12.586
  116SAPE   C3312212   0.025   1.815  11.270
  116SAPE   H3X12213   0.018   1.923  11.251
  116SAPE   H3Y12214   0.076   1.803  11.366
  116SAPE   C3412215  -0.103   1.772  11.312
  116SAPE   H4X12216  -0.167   1.797  11.224
  116SAPE   H4Y12217  -0.124   1.854  11.386
  116SAPE   C3512218  -0.118   1.626  11.373
  116SAPE   H5X12219  -0.119   1.547  11.296
  116SAPE   H5Y12220  -0.215   1.587  11.400
  116SAPE   C3612221  -0.098   1.613  11.523
  116SAPE   H6X12222  -0.135   1.699  11.581
  116SAPE   H6Y12223   0.006   1.617  11.531
  116SAPE   C3712224  -0.163   1.494  11.592
  116SAPE   H7X12225  -0.130   1.405  11.536
  116SAPE   H7Y12226  -0.274   1.500  11.580
  116SAPE   C3812227  -0.118   1.484  11.740
  116SAPE   H8X12228  -0.014   1.455  11.748
  116SAPE   H8Y12229  -0.184   1.400  11.773
  116SAPE   C3912230  -0.130   1.615  11.822
  116SAPE   H9X12231  -0.233   1.598  11.792
  116SAPE   H9Y12232  -0.112   1.713  11.777
  116SAPE  C31012233  -0.100   1.632  11.976
  116SAPE  H10X12234  -0.098   1.532  12.030
  116SAPE  H10Y12235  -0.168   1.704  12.034
  116SAPE  C31112236   0.025   1.639  12.030
  116SAPE  H11X12237   0.026   1.748  12.007
  116SAPE  H11Y12238   0.069   1.560  11.966
  116SAPE  C31212239   0.039   1.608  12.181
  116SAPE  H12X12240   0.015   1.502  12.200
  116SAPE  H12Y12241  -0.022   1.699  12.204
  116SAPE  C31312242   0.151   1.635  12.274
  116SAPE  H13X12243   0.142   1.739  12.282
  116SAPE  H13Y12244   0.241   1.599  12.229
  116SAPE  C31412245   0.183   1.598  12.411
  116SAPE  H14X12246   0.108   1.647  12.475
  116SAPE  H14Y12247   0.286   1.643  12.422
  116SAPE  C31512248   0.194   1.451  12.417
  116SAPE  H15X12249   0.094   1.413  12.387
  116SAPE  H15Y12250   0.215   1.433  12.524
  116SAPE  C31612251   0.303   1.384  12.330
  116SAPE  H16X12252   0.403   1.393  12.378
  116SAPE  H16Y12253   0.314   1.420  12.226
  116SAPE  C31712254   0.268   1.241  12.313
  116SAPE  H17X12255   0.349   1.184  12.260
  116SAPE  H17Y12256   0.176   1.229  12.252
  116SAPE  C31812257   0.241   1.185  12.448
  116SAPE  H18X12258   0.181   1.096  12.423
  116SAPE  H18Y12259   0.175   1.229  12.523
  116SAPE  H18Z12260   0.340   1.170  12.497
  117SOPE     N12261   2.470   3.182  14.733
  117SOPE   HN112262   2.406   3.262  14.752
  117SOPE   HN212263   2.437   3.133  14.648
  117SOPE   HN312264   2.475   3.118  14.815
  117SOPE   C1212265   2.610   3.233  14.707
  117SOPE  H12A12266   2.603   3.320  14.639
  117SOPE  H12B12267   2.662   3.150  14.656
  117SOPE   C1112268   2.682   3.273  14.837
  117SOPE  H11A12269   2.781   3.319  14.816
  117SOPE  H11B12270   2.703   3.182  14.898
  117SOPE     P12271   2.628   3.520  14.899
  117SOPE   O1312272   2.772   3.551  14.897
  117SOPE   O1412273   2.544   3.579  15.005
  117SOPE   O1212274   2.603   3.362  14.913
  117SOPE   O1112275   2.564   3.554  14.757
  117SOPE    C112276   2.581   3.684  14.697
  117SOPE    HA12277   2.660   3.747  14.747
  117SOPE    HB12278   2.485   3.740  14.705
  117SOPE    C212279   2.622   3.678  14.546
  117SOPE    HS12280   2.604   3.780  14.503
  117SOPE   O2112281   2.546   3.576  14.480
  117SOPE   C2112282   2.478   3.607  14.371
  117SOPE   O2212283   2.473   3.716  14.317
  117SOPE   C2212284   2.409   3.481  14.324
  117SOPE   H2R12285   2.328   3.456  14.396
  117SOPE   H2S12286   2.482   3.398  14.319
  117SOPE    C312287   2.776   3.651  14.532
  117SOPE    HX12288   2.807   3.555  14.577
  117SOPE    HY12289   2.829   3.730  14.589
  117SOPE   O3112290   2.817   3.661  14.396
  117SOPE   C3112291   2.806   3.554  14.320
  117SOPE   O3212292   2.766   3.444  14.352
  117SOPE   C3212293   2.850   3.595  14.181
  117SOPE   H2X12294   2.955   3.563  14.159
  117SOPE   H2Y12295   2.845   3.704  14.173
  117SOPE   C2312296   2.344   3.509  14.188
  117SOPE   H3R12297   2.413   3.565  14.121
  117SOPE   H3S12298   2.253   3.571  14.203
  117SOPE   C2412299   2.298   3.384  14.119
  117SOPE   H4R12300   2.383   3.332  14.082
  117SOPE   H4S12301   2.255   3.310  14.190
  117SOPE   C2512302   2.204   3.415  14.004
  117SOPE   H5R12303   2.166   3.324  13.958
  117SOPE   H5S12304   2.113   3.460  14.048
  117SOPE   C2612305   2.262   3.515  13.902
  117SOPE   H6R12306   2.197   3.533  13.817
  117SOPE   H6S12307   2.268   3.613  13.953
  117SOPE   C2712308   2.392   3.489  13.831
  117SOPE   H7R12309   2.473   3.490  13.906
  117SOPE   H7S12310   2.394   3.397  13.773
  117SOPE   C2812311   2.419   3.584  13.715
  117SOPE   H8R12312   2.408   3.687  13.752
  117SOPE   H8S12313   2.527   3.568  13.694
  117SOPE   C2912314   2.330   3.567  13.594
  117SOPE   H9112315   2.236   3.613  13.585
  117SOPE  C21012316   2.360   3.508  13.485
  117SOPE  H10112317   2.297   3.503  13.394
  117SOPE  C21112318   2.487   3.452  13.474
  117SOPE  H11R12319   2.558   3.438  13.561
  117SOPE  H11S12320   2.534   3.513  13.412
  117SOPE  C21212321   2.414   3.333  13.420
  117SOPE  H12R12322   2.396   3.251  13.471
  117SOPE  H12S12323   2.515   3.320  13.420
  117SOPE  C21312324   2.339   3.275  13.297
  117SOPE  H13R12325   2.247   3.252  13.345
  117SOPE  H13S12326   2.358   3.171  13.256
  117SOPE  C21412327   2.347   3.354  13.176
  117SOPE  H14R12328   2.447   3.364  13.209
  117SOPE  H14S12329   2.335   3.462  13.180
  117SOPE  C21512330   2.317   3.273  13.044
  117SOPE  H15R12331   2.217   3.243  13.057
  117SOPE  H15S12332   2.342   3.165  13.031
  117SOPE  C21612333   2.369   3.347  12.912
  117SOPE  H16R12334   2.474   3.371  12.886
  117SOPE  H16S12335   2.358   3.456  12.912
  117SOPE  C21712336   2.343   3.268  12.799
  117SOPE  H17R12337   2.244   3.301  12.775
  117SOPE  H17S12338   2.356   3.157  12.806
  117SOPE  C21812339   2.421   3.336  12.697
  117SOPE  H18R12340   2.521   3.301  12.684
  117SOPE  H18S12341   2.430   3.444  12.697
  117SOPE  H18T12342   2.352   3.304  12.619
  117SOPE   C3312343   2.759   3.546  14.072
  117SOPE   H3X12344   2.746   3.624  13.992
  117SOPE   H3Y12345   2.656   3.524  14.109
  117SOPE   C3412346   2.828   3.434  14.000
  117SOPE   H4X12347   2.843   3.341  14.064
  117SOPE   H4Y12348   2.920   3.464  13.949
  117SOPE   C3512349   2.738   3.405  13.888
  117SOPE   H5X12350   2.673   3.477  13.837
  117SOPE   H5Y12351   2.668   3.374  13.963
  117SOPE   C3612352   2.802   3.311  13.792
  117SOPE   H6X12353   2.730   3.297  13.710
  117SOPE   H6Y12354   2.831   3.212  13.834
  117SOPE   C3712355   2.873   3.373  13.680
  117SOPE   H7X12356   2.963   3.401  13.734
  117SOPE   H7Y12357   2.814   3.463  13.651
  117SOPE   C3812358   2.885   3.280  13.558
  117SOPE   H8X12359   2.790   3.280  13.506
  117SOPE   H8Y12360   2.920   3.176  13.580
  117SOPE   C3912361   2.971   3.342  13.455
  117SOPE   H9X12362   3.065   3.303  13.465
  117SOPE   H9Y12363   2.987   3.447  13.455
  117SOPE  C31012364   2.992   3.276  13.332
  117SOPE  H10X12365   2.983   3.168  13.339
  117SOPE  H10Y12366   3.084   3.292  13.274
  117SOPE  C31112367   2.924   3.359  13.240
  117SOPE  H11X12368   2.987   3.438  13.213
  117SOPE  H11Y12369   2.837   3.402  13.299
  117SOPE  C31212370   2.946   3.254  13.137
  117SOPE  H12X12371   2.880   3.247  13.079
  117SOPE  H12Y12372   2.873   3.198  13.191
  117SOPE  C31312373   2.970   3.244  12.967
  117SOPE  H13X12374   3.052   3.187  13.022
  117SOPE  H13Y12375   3.009   3.337  12.937
  117SOPE  C31412376   2.847   3.163  12.842
  117SOPE  H14X12377   2.926   3.118  12.777
  117SOPE  H14Y12378   2.786   3.228  12.792
  117SOPE  C31512379   2.701   3.030  12.868
  117SOPE  H15X12380   2.626   3.056  12.938
  117SOPE  H15Y12381   2.699   2.947  12.936
  117SOPE  C31612382   2.695   2.864  12.849
  117SOPE  H16X12383   2.631   2.782  12.904
  117SOPE  H16Y12384   2.787   2.809  12.821
  117SOPE  C31712385   2.624   2.902  12.738
  117SOPE  H17X12386   2.713   2.937  12.683
  117SOPE  H17Y12387   2.534   2.970  12.758
  117SOPE  C31812388   2.591   2.787  12.673
  117SOPE  H18X12389   2.529   2.760  12.755
  117SOPE  H18Y12390   2.670   2.715  12.658
  117SOPE  H18Z12391   2.540   2.827  12.590
  118SOPE     N12392   4.846   5.795  15.015
  118SOPE   HN112393   4.797   5.758  14.931
  118SOPE   HN212394   4.894   5.717  15.066
  118SOPE   HN312395   4.775   5.844  15.075
  118SOPE   C1212396   4.949   5.894  14.967
  118SOPE  H12A12397   5.007   5.847  14.885
  118SOPE  H12B12398   5.016   5.919  15.051
  118SOPE   C1112399   4.889   6.026  14.924
  118SOPE  H11A12400   4.871   6.091  15.014
  118SOPE  H11B12401   4.792   6.014  14.871
  118SOPE     P12402   4.957   6.222  14.776
  118SOPE   O1312403   5.069   6.249  14.683
  118SOPE   O1412404   4.933   6.321  14.882
  118SOPE   O1212405   4.988   6.082  14.841
  118SOPE   O1112406   4.822   6.194  14.698
  118SOPE    C112407   4.805   6.260  14.572
  118SOPE    HA12408   4.869   6.352  14.567
  118SOPE    HB12409   4.700   6.295  14.562
  118SOPE    C212410   4.841   6.164  14.456
  118SOPE    HS12411   4.762   6.088  14.447
  118SOPE   O2112412   4.970   6.112  14.476
  118SOPE   C2112413   5.012   6.018  14.402
  118SOPE   O2212414   4.948   5.948  14.325
  118SOPE   C2212415   5.163   6.009  14.430
  118SOPE   H2R12416   5.205   5.920  14.377
  118SOPE   H2S12417   5.180   6.006  14.537
  118SOPE    C312418   4.846   6.232  14.328
  118SOPE    HX12419   4.748   6.282  14.341
  118SOPE    HY12420   4.829   6.168  14.236
  118SOPE   O3112421   4.973   6.315  14.331
  118SOPE   C3112422   4.958   6.387  14.224
  118SOPE   O3212423   4.860   6.359  14.157
  118SOPE   C3212424   5.068   6.511  14.203
  118SOPE   H2X12425   5.143   6.467  14.271
  118SOPE   H2Y12426   5.031   6.598  14.244
  118SOPE   C2312427   5.233   6.128  14.374
  118SOPE   H3R12428   5.339   6.146  14.406
  118SOPE   H3S12429   5.179   6.226  14.389
  118SOPE   C2412430   5.222   6.077  14.234
  118SOPE   H4R12431   5.122   6.096  14.184
  118SOPE   H4S12432   5.308   6.148  14.223
  118SOPE   C2512433   5.308   6.027  14.127
  118SOPE   H5R12434   5.402   6.003  14.178
  118SOPE   H5S12435   5.234   5.945  14.110
  118SOPE   C2612436   5.332   6.095  13.992
  118SOPE   H6R12437   5.361   6.199  13.975
  118SOPE   H6S12438   5.435   6.080  13.965
  118SOPE   C2712439   5.217   6.061  13.902
  118SOPE   H7R12440   5.161   5.971  13.920
  118SOPE   H7S12441   5.142   6.123  13.868
  118SOPE   C2812442   5.229   6.099  13.759
  118SOPE   H8R12443   5.317   6.039  13.791
  118SOPE   H8S12444   5.145   6.038  13.713
  118SOPE   C2912445   5.310   6.178  13.664
  118SOPE   H9112446   5.384   6.240  13.712
  118SOPE  C21012447   5.316   6.177  13.529
  118SOPE  H10112448   5.405   6.215  13.477
  118SOPE  C21112449   5.248   6.099  13.430
  118SOPE  H11R12450   5.144   6.057  13.433
  118SOPE  H11S12451   5.320   6.025  13.465
  118SOPE  C21212452   5.309   6.072  13.301
  118SOPE  H12R12453   5.241   5.985  13.286
  118SOPE  H12S12454   5.421   6.053  13.307
  118SOPE  C21312455   5.291   6.167  13.198
  118SOPE  H13R12456   5.371   6.234  13.233
  118SOPE  H13S12457   5.182   6.184  13.221
  118SOPE  C21412458   5.312   6.121  13.056
  118SOPE  H14R12459   5.264   6.192  12.988
  118SOPE  H14S12460   5.233   6.048  13.046
  118SOPE  C21512461   5.457   6.088  13.004
  118SOPE  H15R12462   5.449   6.071  12.895
  118SOPE  H15S12463   5.512   5.998  13.038
  118SOPE  C21612464   5.564   6.191  13.029
  118SOPE  H16R12465   5.656   6.163  12.975
  118SOPE  H16S12466   5.584   6.189  13.139
  118SOPE  C21712467   5.518   6.324  12.983
  118SOPE  H17R12468   5.581   6.400  13.032
  118SOPE  H17S12469   5.418   6.326  13.025
  118SOPE  C21812470   5.505   6.347  12.834
  118SOPE  H18R12471   5.457   6.259  12.786
  118SOPE  H18S12472   5.605   6.368  12.795
  118SOPE  H18T12473   5.440   6.432  12.806
  118SOPE   C3312474   5.128   6.571  14.057
  118SOPE   H3X12475   5.051   6.621  14.030
  118SOPE   H3Y12476   5.149   6.513  13.974
  118SOPE   C3412477   5.253   6.633  13.993
  118SOPE   H4X12478   5.264   6.575  14.077
  118SOPE   H4Y12479   5.301   6.720  14.018
  118SOPE   C3512480   5.351   6.621  13.880
  118SOPE   H5X12481   5.449   6.654  13.907
  118SOPE   H5Y12482   5.320   6.724  13.840
  118SOPE   C3612483   5.322   6.488  13.810
  118SOPE   H6X12484   5.223   6.462  13.824
  118SOPE   H6Y12485   5.363   6.391  13.842
  118SOPE   C3712486   5.305   6.485  13.670
  118SOPE   H7X12487   5.289   6.398  13.613
  118SOPE   H7Y12488   5.412   6.493  13.697
  118SOPE   C3812489   5.247   6.593  13.583
  118SOPE   H8X12490   5.295   6.677  13.534
  118SOPE   H8Y12491   5.282   6.680  13.634
  118SOPE   C3912492   5.120   6.569  13.515
  118SOPE   H9X12493   5.027   6.589  13.560
  118SOPE   H9Y12494   5.083   6.470  13.497
  118SOPE  C31012495   5.100   6.687  13.439
  118SOPE  H10X12496   5.153   6.775  13.484
  118SOPE  H10Y12497   4.985   6.700  13.422
  118SOPE  C31112498   5.177   6.699  13.332
  118SOPE  H11X12499   5.257   6.780  13.328
  118SOPE  H11Y12500   5.111   6.763  13.310
  118SOPE  C31212501   5.088   6.606  13.263
  118SOPE  H12X12502   4.988   6.573  13.295
  118SOPE  H12Y12503   5.149   6.524  13.303
  118SOPE  C31312504   5.075   6.640  13.124
  118SOPE  H13X12505   5.169   6.698  13.103
  118SOPE  H13Y12506   4.999   6.696  13.083
  118SOPE  C31412507   5.029   6.535  13.040
  118SOPE  H14X12508   5.090   6.449  13.071
  118SOPE  H14Y12509   5.034   6.580  12.937
  118SOPE  C31512510   4.922   6.447  13.047
  118SOPE  H15X12511   4.847   6.505  12.996
  118SOPE  H15Y12512   4.905   6.426  13.154
  118SOPE  C31612513   4.967   6.330  12.957
  118SOPE  H16X12514   5.040   6.265  13.010
  118SOPE  H16Y12515   5.019   6.361  12.861
  118SOPE  C31712516   4.835   6.271  12.933
  118SOPE  H17X12517   4.780   6.342  12.867
  118SOPE  H17Y12518   4.787   6.271  13.034
  118SOPE  C31812519   4.837   6.131  12.879
  118SOPE  H18X12520   4.732   6.103  12.860
  118SOPE  H18Y12521   4.881   6.064  12.956
  118SOPE  H18Z12522   4.896   6.125  12.786
  119SOPE     N12523   5.593   6.302  14.997
  119SOPE   HN112524   5.575   6.347  15.088
  119SOPE   HN212525   5.695   6.313  14.974
  119SOPE   HN312526   5.538   6.352  14.925
  119SOPE   C1212527   5.553   6.157  15.005
  119SOPE  H12A12528   5.442   6.153  15.013
  119SOPE  H12B12529   5.595   6.120  15.098
  119SOPE   C1112530   5.598   6.067  14.888
  119SOPE  H11A12531   5.546   6.099  14.797
  119SOPE  H11B12532   5.569   5.963  14.919
  119SOPE     P12533   5.814   5.960  14.778
  119SOPE   O1312534   5.864   5.872  14.885
  119SOPE   O1412535   5.913   6.022  14.688
  119SOPE   O1212536   5.735   6.078  14.855
  119SOPE   O1112537   5.703   5.882  14.695
  119SOPE    C112538   5.639   5.924  14.575
  119SOPE    HA12539   5.657   6.032  14.553
  119SOPE    HB12540   5.530   5.911  14.589
  119SOPE    C212541   5.687   5.844  14.450
  119SOPE    HS12542   5.680   5.735  14.472
  119SOPE   O2112543   5.822   5.884  14.424
  119SOPE   C2112544   5.893   5.801  14.354
  119SOPE   O2212545   5.852   5.704  14.294
  119SOPE   C2212546   6.037   5.851  14.349
  119SOPE   H2R12547   6.088   5.814  14.440
  119SOPE   H2S12548   6.040   5.962  14.349
  119SOPE    C312549   5.600   5.877  14.328
  119SOPE    HX12550   5.493   5.861  14.356
  119SOPE    HY12551   5.627   5.808  14.245
  119SOPE   O3112552   5.621   6.016  14.297
  119SOPE   C3112553   5.637   6.047  14.174
  119SOPE   O3212554   5.610   5.983  14.075
  119SOPE   C3212555   5.693   6.183  14.159
  119SOPE   H2X12556   5.777   6.197  14.229
  119SOPE   H2Y12557   5.612   6.256  14.179
  119SOPE   C2312558   6.111   5.796  14.227
  119SOPE   H3R12559   6.092   5.689  14.214
  119SOPE   H3S12560   6.220   5.806  14.246
  119SOPE   C2412561   6.073   5.860  14.094
  119SOPE   H4R12562   5.963   5.849  14.076
  119SOPE   H4S12563   6.096   5.969  14.093
  119SOPE   C2512564   6.151   5.789  13.985
  119SOPE   H5R12565   6.257   5.822  13.991
  119SOPE   H5S12566   6.149   5.678  14.001
  119SOPE   C2612567   6.093   5.817  13.849
  119SOPE   H6R12568   5.985   5.789  13.843
  119SOPE   H6S12569   6.101   5.925  13.825
  119SOPE   C2712570   6.163   5.739  13.742
  119SOPE   H7R12571   6.273   5.757  13.738
  119SOPE   H7S12572   6.159   5.630  13.768
  119SOPE   C2812573   6.103   5.781  13.605
  119SOPE   H8R12574   6.127   5.882  13.579
  119SOPE   H8S12575   6.181   5.723  13.556
  119SOPE   C2912576   5.957   5.770  13.556
  119SOPE   H9112577   5.892   5.761  13.644
  119SOPE  C21012578   5.895   5.742  13.436
  119SOPE  H10112579   5.793   5.704  13.446
  119SOPE  C21112580   5.946   5.709  13.296
  119SOPE  H11R12581   5.958   5.598  13.280
  119SOPE  H11S12582   6.044   5.757  13.283
  119SOPE  C21212583   5.869   5.756  13.175
  119SOPE  H12R12584   5.900   5.863  13.167
  119SOPE  H12S12585   5.762   5.739  13.191
  119SOPE  C21312586   5.903   5.682  13.047
  119SOPE  H13R12587   5.890   5.572  13.051
  119SOPE  H13S12588   6.006   5.703  13.041
  119SOPE  C21412589   5.844   5.744  12.922
  119SOPE  H14R12590   5.735   5.734  12.938
  119SOPE  H14S12591   5.877   5.685  12.833
  119SOPE  C21512592   5.877   5.891  12.900
  119SOPE  H15R12593   5.980   5.903  12.867
  119SOPE  H15S12594   5.859   5.956  12.987
  119SOPE  C21612595   5.813   5.941  12.775
  119SOPE  H16R12596   5.703   5.942  12.780
  119SOPE  H16S12597   5.848   5.877  12.690
  119SOPE  C21712598   5.847   6.079  12.741
  119SOPE  H17R12599   5.952   6.106  12.758
  119SOPE  H17S12600   5.784   6.155  12.795
  119SOPE  C21812601   5.830   6.080  12.594
  119SOPE  H18R12602   5.725   6.098  12.565
  119SOPE  H18S12603   5.879   6.012  12.524
  119SOPE  H18T12604   5.897   6.164  12.582
  119SOPE   C3312605   5.730   6.188  14.011
  119SOPE   H3X12606   5.639   6.186  13.947
  119SOPE   H3Y12607   5.796   6.103  13.982
  119SOPE   C3412608   5.802   6.314  13.980
  119SOPE   H4X12609   5.884   6.308  14.053
  119SOPE   H4Y12610   5.739   6.405  13.995
  119SOPE   C3512611   5.854   6.303  13.840
  119SOPE   H5X12612   5.867   6.406  13.803
  119SOPE   H5Y12613   5.777   6.284  13.767
  119SOPE   C3612614   5.970   6.200  13.830
  119SOPE   H6X12615   5.941   6.096  13.845
  119SOPE   H6Y12616   6.054   6.219  13.901
  119SOPE   C3712617   6.027   6.197  13.692
  119SOPE   H7X12618   6.135   6.164  13.688
  119SOPE   H7Y12619   6.008   6.304  13.672
  119SOPE   C3812620   5.950   6.173  13.567
  119SOPE   H8X12621   5.877   6.255  13.545
  119SOPE   H8Y12622   5.908   6.073  13.587
  119SOPE   C3912623   6.045   6.163  13.452
  119SOPE   H9X12624   5.996   6.095  13.382
  119SOPE   H9Y12625   6.133   6.117  13.500
  119SOPE  C31012626   6.071   6.291  13.381
  119SOPE  H10X12627   6.155   6.333  13.425
  119SOPE  H10Y12628   5.990   6.363  13.364
  119SOPE  C31112629   6.174   6.311  13.286
  119SOPE  H11X12630   6.275   6.257  13.303
  119SOPE  H11Y12631   6.189   6.423  13.260
  119SOPE  C31212632   6.115   6.279  13.184
  119SOPE  H12X12633   6.024   6.228  13.163
  119SOPE  H12Y12634   6.201   6.228  13.153
  119SOPE  C31312635   6.172   6.306  13.089
  119SOPE  H13X12636   6.280   6.264  13.021
  119SOPE  H13Y12637   6.263   6.382  13.099
  119SOPE  C31412638   5.981   6.338  12.996
  119SOPE  H14X12639   5.940   6.424  13.044
  119SOPE  H14Y12640   5.905   6.268  13.026
  119SOPE  C31512641   5.958   6.370  12.807
  119SOPE  H15X12642   5.973   6.292  12.730
  119SOPE  H15Y12643   6.047   6.395  12.736
  119SOPE  C31612644   5.896   6.507  12.760
  119SOPE  H16X12645   5.936   6.608  12.788
  119SOPE  H16Y12646   5.803   6.481  12.803
  119SOPE  C31712647   5.895   6.561  12.624
  119SOPE  H17X12648   5.805   6.618  12.591
  119SOPE  H17Y12649   5.919   6.471  12.573
  119SOPE  C31812650   6.003   6.628  12.573
  119SOPE  H18X12651   5.985   6.614  12.465
  119SOPE  H18Y12652   6.085   6.566  12.599
  119SOPE  H18Z12653   6.013   6.726  12.620
  120SOPE     N12654   5.885   0.500  14.784
  120SOPE   HN112655   5.922   0.532  14.692
  120SOPE   HN212656   5.966   0.487  14.848
  120SOPE   HN312657   5.830   0.412  14.774
  120SOPE   C1212658   5.796   0.602  14.849
  120SOPE  H12A12659   5.777   0.565  14.952
  120SOPE  H12B12660   5.702   0.607  14.792
  120SOPE   C1112661   5.861   0.741  14.854
  120SOPE  H11A12662   5.797   0.810  14.914
  120SOPE  H11B12663   5.867   0.781  14.751
  120SOPE     P12664   6.111   0.814  14.863
  120SOPE   O1312665   6.226   0.766  14.942
  120SOPE   O1412666   6.076   0.958  14.869
  120SOPE   O1212667   5.988   0.730  14.916
  120SOPE   O1112668   6.118   0.763  14.712
  120SOPE    C112669   6.104   0.857  14.604
  120SOPE    HA12670   6.204   0.892  14.568
  120SOPE    HB12671   6.042   0.946  14.631
  120SOPE    C212672   6.037   0.791  14.483
  120SOPE    HS12673   5.943   0.743  14.521
  120SOPE   O2112674   6.135   0.702  14.428
  120SOPE   C2112675   6.075   0.594  14.381
  120SOPE   O2212676   5.960   0.568  14.400
  120SOPE   C2212677   6.170   0.500  14.321
  120SOPE   H2R12678   6.136   0.415  14.271
  120SOPE   H2S12679   6.226   0.457  14.407
  120SOPE    C312680   5.997   0.891  14.373
  120SOPE    HX12681   6.086   0.950  14.343
  120SOPE    HY12682   5.921   0.960  14.417
  120SOPE   O3112683   5.941   0.821  14.260
  120SOPE   C3112684   5.919   0.907  14.163
  120SOPE   O3212685   5.954   1.024  14.166
  120SOPE   C3212686   5.830   0.839  14.064
  120SOPE   H2X12687   5.739   0.874  14.015
  120SOPE   H2Y12688   5.779   0.761  14.119
  120SOPE   C2312689   6.244   0.566  14.214
  120SOPE   H3R12690   6.322   0.495  14.178
  120SOPE   H3S12691   6.279   0.652  14.277
  120SOPE   C2412692   6.193   0.602  14.081
  120SOPE   H4R12693   6.161   0.518  14.017
  120SOPE   H4S12694   6.132   0.694  14.089
  120SOPE   C2512695   6.308   0.650  14.005
  120SOPE   H5R12696   6.339   0.742  14.060
  120SOPE   H5S12697   6.385   0.575  13.971
  120SOPE   C2612698   6.271   0.741  13.903
  120SOPE   H6R12699   6.229   0.839  13.926
  120SOPE   H6S12700   6.379   0.749  13.885
  120SOPE   C2712701   6.207   0.680  13.791
  120SOPE   H7R12702   6.278   0.595  13.767
  120SOPE   H7S12703   6.119   0.628  13.831
  120SOPE   C2812704   6.159   0.785  13.683
  120SOPE   H8R12705   6.066   0.749  13.635
  120SOPE   H8S12706   6.143   0.882  13.729
  120SOPE   C2912707   6.185   0.829  13.545
  120SOPE   H9112708   6.272   0.903  13.550
  120SOPE  C21012709   6.226   0.748  13.455
  120SOPE  H10112710   6.310   0.716  13.469
  120SOPE  C21112711   6.252   0.602  13.431
  120SOPE  H11R12712   6.299   0.549  13.521
  120SOPE  H11S12713   6.302   0.525  13.362
  120SOPE  C21212714   6.137   0.643  13.339
  120SOPE  H12R12715   6.037   0.662  13.379
  120SOPE  H12S12716   6.129   0.546  13.303
  120SOPE  C21312717   6.130   0.684  13.196
  120SOPE  H13R12718   6.170   0.607  13.128
  120SOPE  H13S12719   6.160   0.790  13.187
  120SOPE  C21412720   5.996   0.675  13.135
  120SOPE  H14R12721   5.924   0.696  13.215
  120SOPE  H14S12722   5.980   0.580  13.077
  120SOPE  C21512723   5.980   0.791  13.048
  120SOPE  H15R12724   5.982   0.886  13.108
  120SOPE  H15S12725   5.883   0.774  13.002
  120SOPE  C21612726   6.084   0.802  12.943
  120SOPE  H16R12727   6.174   0.853  12.984
  120SOPE  H16S12728   6.030   0.855  12.866
  120SOPE  C21712729   6.116   0.694  12.849
  120SOPE  H17R12730   6.027   0.652  12.798
  120SOPE  H17S12731   6.152   0.616  12.920
  120SOPE  C21812732   6.218   0.747  12.742
  120SOPE  H18R12733   6.307   0.785  12.796
  120SOPE  H18S12734   6.194   0.819  12.665
  120SOPE  H18T12735   6.267   0.673  12.680
  120SOPE   C3312736   5.920   0.832  13.945
  120SOPE   H3X12737   5.997   0.756  13.969
  120SOPE   H3Y12738   5.956   0.931  13.916
  120SOPE   C3412739   5.859   0.803  13.810
  120SOPE   H4X12740   5.799   0.754  13.879
  120SOPE   H4Y12741   5.927   0.741  13.754
  120SOPE   C3512742   5.715   0.812  13.753
  120SOPE   H5X12743   5.627   0.784  13.818
  120SOPE   H5Y12744   5.703   0.747  13.663
  120SOPE   C3612745   5.753   0.953  13.743
  120SOPE   H6X12746   5.845   0.962  13.678
  120SOPE   H6Y12747   5.753   0.996  13.845
  120SOPE   C3712748   5.661   1.030  13.677
  120SOPE   H7X12749   5.573   0.999  13.736
  120SOPE   H7Y12750   5.668   0.972  13.580
  120SOPE   C3812751   5.678   1.180  13.669
  120SOPE   H8X12752   5.685   1.222  13.770
  120SOPE   H8Y12753   5.587   1.234  13.634
  120SOPE   C3912754   5.798   1.211  13.582
  120SOPE   H9X12755   5.880   1.178  13.649
  120SOPE   H9Y12756   5.797   1.321  13.564
  120SOPE  C31012757   5.815   1.138  13.448
  120SOPE  H10X12758   5.742   1.181  13.380
  120SOPE  H10Y12759   5.807   1.027  13.452
  120SOPE  C31112760   5.928   1.176  13.361
  120SOPE  H11X12761   5.908   1.274  13.311
  120SOPE  H11Y12762   5.929   1.102  13.277
  120SOPE  C31212763   6.054   1.183  13.443
  120SOPE  H12X12764   6.089   1.081  13.472
  120SOPE  H12Y12765   6.036   1.240  13.535
  120SOPE  C31312766   6.157   1.270  13.379
  120SOPE  H13X12767   6.231   1.308  13.452
  120SOPE  H13Y12768   6.116   1.350  13.313
  120SOPE  C31412769   6.234   1.186  13.293
  120SOPE  H14X12770   6.293   1.109  13.348
  120SOPE  H14Y12771   6.308   1.256  13.253
  120SOPE  C31512772   6.143   1.134  13.188
  120SOPE  H15X12773   6.095   1.035  13.213
  120SOPE  H15Y12774   6.206   1.050  13.158
  120SOPE  C31612775   6.083   1.255  13.079
  120SOPE  H16X12776   5.996   1.309  13.113
  120SOPE  H16Y12777   6.015   1.167  13.054
  120SOPE  C31712778   6.166   1.341  12.919
  120SOPE  H17X12779   6.201   1.411  12.995
  120SOPE  H17Y12780   6.086   1.369  12.856
  120SOPE  C31812781   6.291   1.278  12.779
  120SOPE  H18X12782   6.352   1.332  12.716
  120SOPE  H18Y12783   6.314   1.178  12.732
  120SOPE  H18Z12784   6.370   1.198  12.811
  121SOPE     N12785   6.143   6.532  15.062
  121SOPE   HN112786   6.240   6.517  15.095
  121SOPE   HN212787   6.073   6.487  15.125
  121SOPE   HN312788   6.129   6.496  14.963
  121SOPE   C1212789   6.123   6.681  15.064
  121SOPE  H12A12790   6.215   6.729  15.022
  121SOPE  H12B12791   6.109   6.712  15.169
  121SOPE   C1112792   6.000   6.720  14.985
  121SOPE  H11A12793   5.981   6.830  14.997
  121SOPE  H11B12794   5.911   6.667  15.028
  121SOPE     P12795   6.065   6.779  14.736
  121SOPE   O1312796   6.213   6.774  14.728
  121SOPE   O1412797   5.997   6.907  14.760
  121SOPE   O1212798   6.018   6.678  14.850
  121SOPE   O1112799   5.999   6.705  14.613
  121SOPE    C112800   5.861   6.661  14.618
  121SOPE    HA12801   5.806   6.700  14.707
  121SOPE    HB12802   5.857   6.550  14.621
  121SOPE    C212803   5.784   6.713  14.494
  121SOPE    HS12804   5.680   6.672  14.491
  121SOPE   O2112805   5.854   6.680  14.375
  121SOPE   C2112806   5.830   6.562  14.334
  121SOPE   O2212807   5.760   6.475  14.384
  121SOPE   C2212808   5.893   6.549  14.201
  121SOPE   H2R12809   5.863   6.451  14.168
  121SOPE   H2S12810   6.000   6.544  14.219
  121SOPE    C312811   5.769   6.866  14.497
  121SOPE    HX12812   5.870   6.914  14.494
  121SOPE    HY12813   5.722   6.893  14.594
  121SOPE   O3112814   5.681   6.907  14.392
  121SOPE   C3112815   5.734   6.947  14.280
  121SOPE   O3212816   5.851   6.970  14.257
  121SOPE   C3212817   5.620   6.982  14.190
  121SOPE   H2X12818   5.555   7.060  14.235
  121SOPE   H2Y12819   5.558   6.890  14.180
  121SOPE   C2312820   5.857   6.664  14.105
  121SOPE   H3R12821   5.888   6.761  14.150
  121SOPE   H3S12822   5.749   6.660  14.082
  121SOPE   C2412823   5.933   6.656  13.978
  121SOPE   H4R12824   5.937   6.547  13.970
  121SOPE   H4S12825   5.888   6.692  13.884
  121SOPE   C2512826   6.070   6.714  13.999
  121SOPE   H5R12827   6.120   6.677  14.090
  121SOPE   H5S12828   6.131   6.692  13.910
  121SOPE   C2612829   6.096   6.853  13.984
  121SOPE   H6R12830   6.022   6.886  13.910
  121SOPE   H6S12831   6.090   6.905  14.081
  121SOPE   C2712832   6.234   6.862  13.923
  121SOPE   H7R12833   6.308   6.853  14.005
  121SOPE   H7S12834   6.272   6.800  13.839
  121SOPE   C2812835   6.218   6.991  13.859
  121SOPE   H8R12836   6.191   7.044  13.951
  121SOPE   H8S12837   6.308   7.028  13.827
  121SOPE   C2912838   6.124   7.040  13.761
  121SOPE   H9112839   6.063   7.115  13.814
  121SOPE  C21012840   6.140   7.037  13.629
  121SOPE  H10112841   6.082   7.115  13.579
  121SOPE  C21112842   6.255   6.983  13.546
  121SOPE  H11R12843   6.236   6.886  13.500
  121SOPE  H11S12844   6.344   6.950  13.592
  121SOPE  C21212845   6.306   7.084  13.445
  121SOPE  H12R12846   6.381   7.030  13.402
  121SOPE  H12S12847   6.392   7.153  13.445
  121SOPE  C21312848   6.190   7.117  13.362
  121SOPE  H13R12849   6.132   7.203  13.402
  121SOPE  H13S12850   6.138   7.020  13.340
  121SOPE  C21412851   6.237   7.160  13.237
  121SOPE  H14R12852   6.291   7.070  13.209
  121SOPE  H14S12853   6.296   7.254  13.258
  121SOPE  C21512854   6.140   7.177  13.129
  121SOPE  H15R12855   6.088   7.270  13.161
  121SOPE  H15S12856   6.075   7.088  13.119
  121SOPE  C21612857   6.185   7.189  12.984
  121SOPE  H16R12858   6.257   7.121  12.939
  121SOPE  H16S12859   6.228   7.294  12.968
  121SOPE  C21712860   6.081   7.156  12.886
  121SOPE  H17R12861   6.054   7.225  12.951
  121SOPE  H17S12862   5.975   7.124  12.885
  121SOPE  C21812863   6.140   7.220  12.779
  121SOPE  H18R12864   6.205   7.152  12.729
  121SOPE  H18S12865   6.199   7.313  12.786
  121SOPE  H18T12866   6.076   7.273  12.716
  121SOPE   C3312867   5.665   7.030  14.053
  121SOPE   H3X12868   5.724   7.119  14.038
  121SOPE   H3Y12869   5.568   7.068  14.022
  121SOPE   C3412870   5.730   6.927  13.963
  121SOPE   H4X12871   5.661   6.839  13.955
  121SOPE   H4Y12872   5.829   6.896  14.000
  121SOPE   C3512873   5.770   6.988  13.828
  121SOPE   H5X12874   5.836   7.074  13.827
  121SOPE   H5Y12875   5.689   7.057  13.812
  121SOPE   C3612876   5.802   6.883  13.719
  121SOPE   H6X12877   5.746   6.791  13.750
  121SOPE   H6Y12878   5.905   6.850  13.733
  121SOPE   C3712879   5.785   6.916  13.564
  121SOPE   H7X12880   5.683   6.926  13.522
  121SOPE   H7Y12881   5.824   6.833  13.502
  121SOPE   C3812882   5.821   7.045  13.511
  121SOPE   H8X12883   5.919   7.045  13.552
  121SOPE   H8Y12884   5.754   7.123  13.555
  121SOPE   C3912885   5.831   7.032  13.359
  121SOPE   H9X12886   5.841   6.930  13.324
  121SOPE   H9Y12887   5.914   7.100  13.334
  121SOPE  C31012888   5.706   7.069  13.288
  121SOPE  H10X12889   5.724   7.168  13.333
  121SOPE  H10Y12890   5.618   7.021  13.334
  121SOPE  C31112891   5.674   7.092  13.132
  121SOPE  H11X12892   5.685   7.191  13.106
  121SOPE  H11Y12893   5.576   7.120  13.089
  121SOPE  C31212894   5.763   7.030  13.041
  121SOPE  H12X12895   5.862   7.057  13.078
  121SOPE  H12Y12896   5.752   7.070  12.938
  121SOPE  C31312897   5.730   6.894  13.066
  121SOPE  H13X12898   5.627   6.874  13.051
  121SOPE  H13Y12899   5.718   6.869  13.172
  121SOPE  C31412900   5.837   6.821  12.999
  121SOPE  H14X12901   5.885   6.870  12.911
  121SOPE  H14Y12902   5.804   6.720  12.969
  121SOPE  C31512903   5.923   6.832  13.124
  121SOPE  H15X12904   5.881   6.766  13.207
  121SOPE  H15Y12905   5.960   6.929  13.154
  121SOPE  C31612906   6.061   6.803  13.120
  121SOPE  H16X12907   6.002   6.727  13.060
  121SOPE  H16Y12908   6.098   6.746  13.208
  121SOPE  C31712909   6.183   6.856  13.031
  121SOPE  H17X12910   6.275   6.790  13.018
  121SOPE  H17Y12911   6.237   6.906  13.108
  121SOPE  C31812912   6.169   6.867  12.877
  121SOPE  H18X12913   6.101   6.794  12.826
  121SOPE  H18Y12914   6.265   6.861  12.821
  121SOPE  H18Z12915   6.114   6.952  12.869
  122SOPE     N12916   6.461  -0.075  14.769
  122SOPE   HN112917   6.435  -0.065  14.870
  122SOPE   HN212918   6.464  -0.176  14.747
  122SOPE   HN312919   6.553  -0.032  14.747
  122SOPE   C1212920   6.373  -0.009  14.675
  122SOPE  H12A12921   6.285  -0.075  14.662
  122SOPE  H12B12922   6.429   0.004  14.579
  122SOPE   C1112923   6.343   0.122  14.743
  122SOPE  H11A12924   6.265   0.175  14.684
  122SOPE  H11B12925   6.436   0.184  14.743
  122SOPE     P12926   6.171   0.037  14.923
  122SOPE   O1312927   6.119   0.111  15.039
  122SOPE   O1412928   6.187  -0.108  14.931
  122SOPE   O1212929   6.308   0.101  14.881
  122SOPE   O1112930   6.091   0.071  14.800
  122SOPE    C112931   5.963   0.015  14.793
  122SOPE    HA12932   5.902   0.066  14.865
  122SOPE    HB12933   5.955  -0.094  14.818
  122SOPE    C212934   5.921   0.053  14.655
  122SOPE    HS12935   5.819   0.010  14.635
  122SOPE   O2112936   6.026   0.014  14.562
  122SOPE   C2112937   6.055  -0.116  14.563
  122SOPE   O2212938   5.990  -0.199  14.621
  122SOPE   C2212939   6.147  -0.155  14.444
  122SOPE   H2R12940   6.123  -0.264  14.428
  122SOPE   H2S12941   6.250  -0.136  14.469
  122SOPE    C312942   5.907   0.207  14.650
  122SOPE    HX12943   6.004   0.254  14.676
  122SOPE    HY12944   5.832   0.237  14.728
  122SOPE   O3112945   5.863   0.250  14.523
  122SOPE   C3112946   5.947   0.292  14.428
  122SOPE   O3212947   6.066   0.294  14.450
  122SOPE   C3212948   5.878   0.289  14.285
  122SOPE   H2X12949   5.826   0.367  14.246
  122SOPE   H2Y12950   5.782   0.235  14.285
  122SOPE   C2312951   6.120  -0.087  14.309
  122SOPE   H3R12952   6.131   0.023  14.305
  122SOPE   H3S12953   6.020  -0.119  14.318
  122SOPE   C2412954   6.164  -0.148  14.179
  122SOPE   H4R12955   6.120  -0.247  14.153
  122SOPE   H4S12956   6.130  -0.080  14.097
  122SOPE   C2512957   6.314  -0.149  14.189
  122SOPE   H5R12958   6.356  -0.049  14.210
  122SOPE   H5S12959   6.336  -0.220  14.270
  122SOPE   C2612960   6.377  -0.183  14.062
  122SOPE   H6R12961   6.487  -0.192  14.064
  122SOPE   H6S12962   6.342  -0.285  14.052
  122SOPE   C2712963   6.321  -0.091  13.951
  122SOPE   H7R12964   6.217  -0.117  13.926
  122SOPE   H7S12965   6.316   0.014  13.972
  122SOPE   C2812966   6.408  -0.095  13.833
  122SOPE   H8R12967   6.512  -0.073  13.839
  122SOPE   H8S12968   6.440  -0.195  13.862
  122SOPE   C2912969   6.342  -0.083  13.699
  122SOPE   H9112970   6.319  -0.180  13.668
  122SOPE  C21012971   6.363  -0.013  13.590
  122SOPE  H10112972   6.306  -0.031  13.497
  122SOPE  C21112973   6.472   0.082  13.576
  122SOPE  H11R12974   6.544   0.051  13.496
  122SOPE  H11S12975   6.524   0.091  13.674
  122SOPE  C21212976   6.398   0.202  13.557
  122SOPE  H12R12977   6.317   0.205  13.635
  122SOPE  H12S12978   6.356   0.199  13.454
  122SOPE  C21312979   6.492   0.315  13.586
  122SOPE  H13R12980   6.545   0.298  13.683
  122SOPE  H13S12981   6.423   0.399  13.598
  122SOPE  C21412982   6.596   0.341  13.478
  122SOPE  H14R12983   6.670   0.258  13.474
  122SOPE  H14S12984   6.648   0.435  13.507
  122SOPE  C21512985   6.543   0.354  13.336
  122SOPE  H15R12986   6.455   0.418  13.333
  122SOPE  H15S12987   6.507   0.257  13.298
  122SOPE  C21612988   6.657   0.413  13.253
  122SOPE  H16R12989   6.751   0.367  13.279
  122SOPE  H16S12990   6.664   0.523  13.275
  122SOPE  C21712991   6.660   0.379  13.107
  122SOPE  H17R12992   6.616   0.289  13.060
  122SOPE  H17S12993   6.739   0.431  13.047
  122SOPE  C21812994   6.565   0.461  13.063
  122SOPE  H18R12995   6.581   0.456  12.956
  122SOPE  H18S12996   6.606   0.560  13.084
  122SOPE  H18T12997   6.460   0.440  13.086
  122SOPE   C3312998   5.971   0.236  14.177
  122SOPE   H3X12999   6.017   0.140  14.200
  122SOPE   H3Y13000   6.050   0.309  14.168
  122SOPE   C3413001   5.926   0.229  14.034
  122SOPE   H4X13002   5.915   0.331  13.996
  122SOPE   H4Y13003   5.829   0.179  14.027
  122SOPE   C3513004   6.045   0.170  13.955
  122SOPE   H5X13005   6.069   0.074  13.996
  122SOPE   H5Y13006   6.131   0.243  13.954
  122SOPE   C3613007   6.019   0.134  13.814
  122SOPE   H6X13008   5.914   0.086  13.803
  122SOPE   H6Y13009   6.089   0.099  13.738
  122SOPE   C3713010   6.012   0.267  13.764
  122SOPE   H7X13011   5.922   0.288  13.804
  122SOPE   H7Y13012   5.933   0.240  13.708
  122SOPE   C3813013   6.114   0.379  13.730
  122SOPE   H8X13014   6.213   0.339  13.705
  122SOPE   H8Y13015   6.114   0.441  13.818
  122SOPE   C3913016   6.095   0.475  13.613
  122SOPE   H9X13017   6.166   0.548  13.630
  122SOPE   H9Y13018   6.026   0.567  13.605
  122SOPE  C31013019   6.133   0.390  13.494
  122SOPE  H10X13020   6.238   0.374  13.486
  122SOPE  H10Y13021   6.075   0.478  13.460
  122SOPE  C31113022   6.076   0.321  13.377
  122SOPE  H11X13023   5.985   0.356  13.343
  122SOPE  H11Y13024   6.058   0.219  13.410
  122SOPE  C31213025   6.140   0.331  13.250
  122SOPE  H12X13026   6.233   0.276  13.268
  122SOPE  H12Y13027   6.157   0.421  13.189
  122SOPE  C31313028   6.038   0.281  13.164
  122SOPE  H13X13029   5.966   0.349  13.114
  122SOPE  H13Y13030   5.972   0.207  13.216
  122SOPE  C31413031   6.142   0.241  13.072
  122SOPE  H14X13032   6.100   0.150  13.065
  122SOPE  H14Y13033   6.224   0.177  13.102
  122SOPE  C31513034   6.170   0.346  12.968
  122SOPE  H15X13035   6.228   0.430  13.002
  122SOPE  H15Y13036   6.075   0.398  12.929
  122SOPE  C31613037   6.247   0.286  12.856
  122SOPE  H16X13038   6.240   0.177  12.838
  122SOPE  H16Y13039   6.351   0.260  12.875
  122SOPE  C31713040   6.181   0.343  12.727
  122SOPE  H17X13041   6.078   0.378  12.699
  122SOPE  H17Y13042   6.182   0.261  12.662
  122SOPE  C31813043   6.241   0.452  12.706
  122SOPE  H18X13044   6.342   0.418  12.724
  122SOPE  H18Y13045   6.206   0.503  12.792
  122SOPE  H18Z13046   6.221   0.505  12.612
  123SOPE     N13047   4.417   1.695  10.496
  123SOPE   HN113048   4.496   1.636  10.459
  123SOPE   HN213049   4.331   1.683  10.440
  123SOPE   HN313050   4.443   1.795  10.509
  123SOPE   C1213051   4.381   1.648  10.632
  123SOPE  H12A13052   4.348   1.734  10.693
  123SOPE  H12B13053   4.477   1.612  10.675
  123SOPE   C1113054   4.272   1.541  10.622
  123SOPE  H11A13055   4.263   1.493  10.719
  123SOPE  H11B13056   4.303   1.456  10.556
  123SOPE     P13057   4.050   1.690  10.670
  123SOPE   O1313058   3.921   1.693  10.600
  123SOPE   O1413059   4.132   1.812  10.683
  123SOPE   O1213060   4.143   1.590  10.584
  123SOPE   O1113061   4.029   1.621  10.805
  123SOPE    C113062   3.969   1.494  10.824
  123SOPE    HA13063   4.029   1.415  10.770
  123SOPE    HB13064   3.866   1.490  10.790
  123SOPE    C213065   3.971   1.465  10.977
  123SOPE    HS13066   3.905   1.376  10.996
  123SOPE   O2113067   3.950   1.558  11.073
  123SOPE   C2113068   3.848   1.620  11.060
  123SOPE   O2213069   3.745   1.593  11.002
  123SOPE   C2213070   3.867   1.709  11.175
  123SOPE   H2R13071   3.825   1.806  11.140
  123SOPE   H2S13072   3.965   1.729  11.211
  123SOPE    C313073   4.100   1.433  11.007
  123SOPE    HX13074   4.090   1.358  10.932
  123SOPE    HY13075   4.111   1.388  11.113
  123SOPE   O3113076   4.194   1.529  10.942
  123SOPE   C3113077   4.319   1.453  10.935
  123SOPE   O3213078   4.291   1.357  10.992
  123SOPE   C3213079   4.505   1.495  10.933
  123SOPE   H2X13080   4.461   1.571  10.860
  123SOPE   H2Y13081   4.562   1.482  10.845
  123SOPE   C2313082   3.789   1.638  11.283
  123SOPE   H3R13083   3.695   1.606  11.228
  123SOPE   H3S13084   3.788   1.716  11.364
  123SOPE   C2413085   3.792   1.518  11.368
  123SOPE   H4R13086   3.689   1.498  11.410
  123SOPE   H4S13087   3.815   1.439  11.297
  123SOPE   C2513088   3.887   1.549  11.480
  123SOPE   H5R13089   3.972   1.603  11.432
  123SOPE   H5S13090   3.847   1.620  11.556
  123SOPE   C2613091   3.925   1.416  11.536
  123SOPE   H6R13092   3.835   1.365  11.576
  123SOPE   H6S13093   3.963   1.354  11.451
  123SOPE   C2713094   4.033   1.437  11.640
  123SOPE   H7R13095   4.119   1.484  11.586
  123SOPE   H7S13096   3.995   1.510  11.715
  123SOPE   C2813097   4.076   1.312  11.717
  123SOPE   H8R13098   4.124   1.241  11.646
  123SOPE   H8S13099   4.153   1.346  11.789
  123SOPE   C2913100   3.959   1.248  11.787
  123SOPE   H9113101   3.882   1.205  11.721
  123SOPE  C21013102   3.932   1.249  11.919
  123SOPE  H10113103   3.842   1.194  11.952
  123SOPE  C21113104   4.010   1.313  12.030
  123SOPE  H11R13105   4.104   1.362  11.997
  123SOPE  H11S13106   4.040   1.234  12.103
  123SOPE  C21213107   3.925   1.413  12.109
  123SOPE  H12R13108   3.837   1.359  12.151
  123SOPE  H12S13109   3.883   1.497  12.049
  123SOPE  C21313110   4.005   1.470  12.227
  123SOPE  H13R13111   4.051   1.394  12.292
  123SOPE  H13S13112   3.922   1.502  12.288
  123SOPE  C21413113   4.108   1.580  12.189
  123SOPE  H14R13114   4.056   1.656  12.126
  123SOPE  H14S13115   4.192   1.534  12.136
  123SOPE  C21513116   4.187   1.649  12.303
  123SOPE  H15R13117   4.203   1.590  12.396
  123SOPE  H15S13118   4.110   1.719  12.318
  123SOPE  C21613119   4.251   1.788  12.289
  123SOPE  H16R13120   4.190   1.859  12.226
  123SOPE  H16S13121   4.340   1.757  12.233
  123SOPE  C21713122   4.285   1.862  12.423
  123SOPE  H17R13123   4.332   1.957  12.391
  123SOPE  H17S13124   4.358   1.795  12.474
  123SOPE  C21813125   4.189   1.910  12.534
  123SOPE  H18R13126   4.162   1.826  12.602
  123SOPE  H18S13127   4.097   1.956  12.493
  123SOPE  H18T13128   4.234   1.988  12.598
  123SOPE   C3313129   4.597   1.566  11.123
  123SOPE   H3X13130   4.654   1.549  11.044
  123SOPE   H3Y13131   4.697   1.595  11.155
  123SOPE   C3413132   4.465   1.688  11.257
  123SOPE   H4X13133   4.548   1.719  11.214
  123SOPE   H4Y13134   4.363   1.655  11.267
  123SOPE   C3513135   4.293   1.810  11.197
  123SOPE   H5X13136   4.235   1.827  11.100
  123SOPE   H5Y13137   4.361   1.863  11.136
  123SOPE   C3613138   4.234   1.958  11.223
  123SOPE   H6X13139   4.223   2.021  11.135
  123SOPE   H6Y13140   4.274   2.062  11.257
  123SOPE   C3713141   4.165   1.876  11.325
  123SOPE   H7X13142   4.218   1.790  11.380
  123SOPE   H7Y13143   4.105   1.809  11.268
  123SOPE   C3813144   4.134   1.967  11.430
  123SOPE   H8X13145   4.095   2.054  11.376
  123SOPE   H8Y13146   4.218   2.014  11.485
  123SOPE   C3913147   4.044   1.895  11.522
  123SOPE   H9X13148   4.090   1.805  11.572
  123SOPE   H9Y13149   3.962   1.856  11.457
  123SOPE  C31013150   4.014   2.005  11.621
  123SOPE  H10X13151   3.957   2.082  11.565
  123SOPE  H10Y13152   4.110   2.050  11.656
  123SOPE  C31113153   3.936   1.953  11.737
  123SOPE  H11X13154   3.889   1.866  11.691
  123SOPE  H11Y13155   3.861   2.031  11.764
  123SOPE  C31213156   4.018   1.907  11.859
  123SOPE  H12X13157   4.081   1.994  11.885
  123SOPE  H12Y13158   4.077   1.817  11.833
  123SOPE  C31313159   3.943   1.876  11.986
  123SOPE  H13X13160   3.999   1.905  12.078
  123SOPE  H13Y13161   3.918   1.767  11.993
  123SOPE  C31413162   3.821   1.961  11.997
  123SOPE  H14X13163   3.757   1.911  11.931
  123SOPE  H14Y13164   3.809   2.062  11.956
  123SOPE  C31513165   3.771   1.986  12.134
  123SOPE  H15X13166   3.683   2.049  12.136
  123SOPE  H15Y13167   3.841   2.000  12.216
  123SOPE  C31613168   3.735   1.878  12.201
  123SOPE  H16X13169   3.778   1.787  12.136
  123SOPE  H16Y13170   3.715   1.782  12.134
  123SOPE  C31713171   3.645   1.894  12.379
  123SOPE  H17X13172   3.543   1.834  12.425
  123SOPE  H17Y13173   3.581   1.975  12.379
  123SOPE  C31813174   3.604   1.772  12.493
  123SOPE  H18X13175   3.644   1.750  12.593
  123SOPE  H18Y13176   3.697   1.838  12.443
  123SOPE  H18Z13177   3.615   1.656  12.468
  124SOPE     N13178   5.110   5.371  10.392
  124SOPE   HN113179   5.192   5.435  10.395
  124SOPE   HN213180   5.114   5.310  10.307
  124SOPE   HN313181   5.024   5.429  10.393
  124SOPE   C1213182   5.118   5.287  10.516
  124SOPE  H12A13183   5.208   5.223  10.504
  124SOPE  H12B13184   5.032   5.218  10.520
  124SOPE   C1113185   5.135   5.375  10.641
  124SOPE  H11A13186   5.118   5.311  10.731
  124SOPE  H11B13187   5.058   5.455  10.648
  124SOPE     P13188   5.385   5.362  10.717
  124SOPE   O1313189   5.507   5.430  10.677
  124SOPE   O1413190   5.371   5.219  10.680
  124SOPE   O1213191   5.265   5.436  10.642
  124SOPE   O1113192   5.355   5.389  10.871
  124SOPE    C113193   5.349   5.526  10.913
  124SOPE    HA13194   5.260   5.573  10.866
  124SOPE    HB13195   5.439   5.584  10.880
  124SOPE    C213196   5.341   5.542  11.069
  124SOPE    HS13197   5.388   5.640  11.097
  124SOPE   O2113198   5.407   5.432  11.137
  124SOPE   C2113199   5.421   5.430  11.269
  124SOPE   O2213200   5.393   5.521  11.345
  124SOPE   C2213201   5.484   5.296  11.311
  124SOPE   H2R13202   5.575   5.280  11.250
  124SOPE   H2S13203   5.412   5.214  11.291
  124SOPE    C313204   5.193   5.552  11.109
  124SOPE    HX13205   5.148   5.643  11.063
  124SOPE    HY13206   5.197   5.557  11.219
  124SOPE   O3113207   5.123   5.433  11.077
  124SOPE   C3113208   5.001   5.431  11.035
  124SOPE   O3213209   4.922   5.521  11.017
  124SOPE   C3213210   4.960   5.291  11.007
  124SOPE   H2X13211   4.992   5.266  10.905
  124SOPE   H2Y13212   4.852   5.303  11.004
  124SOPE   C2313213   5.521   5.295  11.460
  124SOPE   H3R13214   5.432   5.285  11.526
  124SOPE   H3S13215   5.571   5.391  11.483
  124SOPE   C2413216   5.624   5.188  11.495
  124SOPE   H4R13217   5.598   5.084  11.467
  124SOPE   H4S13218   5.703   5.218  11.426
  124SOPE   C2513219   5.650   5.185  11.647
  124SOPE   H5R13220   5.680   5.279  11.693
  124SOPE   H5S13221   5.550   5.162  11.688
  124SOPE   C2613222   5.743   5.074  11.693
  124SOPE   H6R13223   5.707   4.977  11.655
  124SOPE   H6S13224   5.827   5.084  11.628
  124SOPE   C2713225   5.782   5.064  11.842
  124SOPE   H7R13226   5.839   4.968  11.849
  124SOPE   H7S13227   5.848   5.141  11.885
  124SOPE   C2813228   5.666   5.075  11.937
  124SOPE   H8R13229   5.686   5.085  12.045
  124SOPE   H8S13230   5.592   5.150  11.902
  124SOPE   C2913231   5.614   4.944  11.918
  124SOPE   H9113232   5.672   4.850  11.930
  124SOPE  C21013233   5.490   4.938  11.942
  124SOPE  H10113234   5.452   4.844  11.941
  124SOPE  C21113235   5.384   5.022  11.983
  124SOPE  H11R13236   5.335   4.985  11.893
  124SOPE  H11S13237   5.399   5.124  11.953
  124SOPE  C21213238   5.337   5.016  12.139
  124SOPE  H12R13239   5.275   5.104  12.140
  124SOPE  H12S13240   5.423   5.045  12.198
  124SOPE  C21313241   5.253   4.916  12.237
  124SOPE  H13R13242   5.294   4.819  12.239
  124SOPE  H13S13243   5.217   4.817  12.203
  124SOPE  C21413244   5.113   4.964  12.308
  124SOPE  H14R13245   5.141   5.026  12.388
  124SOPE  H14S13246   5.123   4.864  12.363
  124SOPE  C21513247   4.949   5.008  12.228
  124SOPE  H15R13248   4.901   4.964  12.139
  124SOPE  H15S13249   4.987   5.088  12.172
  124SOPE  C21613250   4.785   4.977  12.237
  124SOPE  H16R13251   4.762   4.877  12.195
  124SOPE  H16S13252   4.714   4.975  12.157
  124SOPE  C21713253   4.750   5.022  12.374
  124SOPE  H17R13254   4.700   5.120  12.368
  124SOPE  H17S13255   4.855   5.020  12.408
  124SOPE  C21813256   4.680   5.015  12.496
  124SOPE  H18R13257   4.700   4.924  12.543
  124SOPE  H18S13258   4.581   5.056  12.491
  124SOPE  H18T13259   4.707   5.076  12.584
  124SOPE   C3313260   5.011   5.192  11.114
  124SOPE   H3X13261   5.122   5.189  11.113
  124SOPE   H3Y13262   4.971   5.090  11.095
  124SOPE   C3413263   4.971   5.232  11.253
  124SOPE   H4X13264   4.888   5.162  11.282
  124SOPE   H4Y13265   4.936   5.337  11.267
  124SOPE   C3513266   5.051   5.179  11.363
  124SOPE   H5X13267   5.087   5.081  11.328
  124SOPE   H5Y13268   4.986   5.173  11.452
  124SOPE   C3613269   5.143   5.272  11.426
  124SOPE   H6X13270   5.194   5.320  11.342
  124SOPE   H6Y13271   5.207   5.208  11.492
  124SOPE   C3713272   5.078   5.382  11.507
  124SOPE   H7X13273   4.988   5.359  11.560
  124SOPE   H7Y13274   5.040   5.463  11.443
  124SOPE   C3813275   5.179   5.413  11.615
  124SOPE   H8X13276   5.274   5.434  11.561
  124SOPE   H8Y13277   5.191   5.331  11.687
  124SOPE   C3913278   5.137   5.531  11.692
  124SOPE   H9X13279   5.030   5.523  11.723
  124SOPE   H9Y13280   5.137   5.603  11.607
  124SOPE  C31013281   5.233   5.575  11.808
  124SOPE  H10X13282   5.196   5.653  11.879
  124SOPE  H10Y13283   5.326   5.616  11.768
  124SOPE  C31113284   5.263   5.479  11.919
  124SOPE  H11X13285   5.338   5.525  11.986
  124SOPE  H11Y13286   5.298   5.383  11.873
  124SOPE  C31213287   5.146   5.455  12.008
  124SOPE  H12X13288   5.116   5.377  11.937
  124SOPE  H12Y13289   5.062   5.528  12.018
  124SOPE  C31313290   5.181   5.380  12.134
  124SOPE  H13X13291   5.237   5.288  12.116
  124SOPE  H13Y13292   5.092   5.351  12.182
  124SOPE  C31413293   5.238   5.458  12.247
  124SOPE  H14X13294   5.159   5.531  12.270
  124SOPE  H14Y13295   5.324   5.513  12.206
  124SOPE  C31513296   5.282   5.375  12.371
  124SOPE  H15X13297   5.342   5.436  12.440
  124SOPE  H15Y13298   5.342   5.290  12.334
  124SOPE  C31613299   5.177   5.316  12.465
  124SOPE  H16X13300   5.209   5.231  12.526
  124SOPE  H16Y13301   5.123   5.269  12.385
  124SOPE  C31713302   5.099   5.417  12.560
  124SOPE  H17X13303   5.025   5.466  12.488
  124SOPE  H17Y13304   5.175   5.477  12.607
  124SOPE  C31813305   5.013   5.391  12.685
  124SOPE  H18X13306   4.920   5.398  12.634
  124SOPE  H18Y13307   4.946   5.459  12.738
  124SOPE  H18Z13308   5.025   5.293  12.728
  125SOPE     N13309   1.462   4.921  10.490
  125SOPE   HN113310   1.549   4.874  10.523
  125SOPE   HN213311   1.399   4.850  10.448
  125SOPE   HN313312   1.495   4.988  10.419
  125SOPE   C1213313   1.402   5.000  10.605
  125SOPE  H12A13314   1.334   4.935  10.662
  125SOPE  H12B13315   1.341   5.082  10.559
  125SOPE   C1113316   1.511   5.063  10.694
  125SOPE  H11A13317   1.521   5.006  10.790
  125SOPE  H11B13318   1.475   5.166  10.719
  125SOPE     P13319   1.759   5.155  10.670
  125SOPE   O1313320   1.705   5.289  10.704
  125SOPE   O1413321   1.860   5.142  10.565
  125SOPE   O1213322   1.635   5.068  10.624
  125SOPE   O1113323   1.802   5.081  10.803
  125SOPE    C113324   1.865   5.136  10.919
  125SOPE    HA13325   1.899   5.241  10.908
  125SOPE    HB13326   1.956   5.075  10.940
  125SOPE    C213327   1.775   5.138  11.046
  125SOPE    HS13328   1.838   5.151  11.135
  125SOPE   O2113329   1.708   5.019  11.060
  125SOPE   C2113330   1.789   4.922  11.076
  125SOPE   O2213331   1.908   4.918  11.101
  125SOPE   C2213332   1.707   4.811  11.054
  125SOPE   H2R13333   1.765   4.718  11.069
  125SOPE   H2S13334   1.698   4.828  10.944
  125SOPE    C313335   1.662   5.243  11.048
  125SOPE    HX13336   1.584   5.212  10.975
  125SOPE    HY13337   1.702   5.340  11.013
  125SOPE   O3113338   1.600   5.245  11.179
  125SOPE   C3113339   1.664   5.304  11.279
  125SOPE   O3213340   1.761   5.376  11.268
  125SOPE   C3213341   1.601   5.261  11.414
  125SOPE   H2X13342   1.598   5.349  11.483
  125SOPE   H2Y13343   1.669   5.187  11.461
  125SOPE   C2313344   1.582   4.822  11.142
  125SOPE   H3R13345   1.491   4.777  11.093
  125SOPE   H3S13346   1.527   4.913  11.172
  125SOPE   C2413347   1.632   4.786  11.283
  125SOPE   H4R13348   1.548   4.786  11.346
  125SOPE   H4S13349   1.659   4.688  11.309
  125SOPE   C2513350   1.776   4.794  11.328
  125SOPE   H5R13351   1.845   4.761  11.250
  125SOPE   H5S13352   1.762   4.891  11.378
  125SOPE   C2613353   1.844   4.703  11.422
  125SOPE   H6R13354   1.866   4.594  11.389
  125SOPE   H6S13355   1.925   4.741  11.485
  125SOPE   C2713356   1.756   4.696  11.522
  125SOPE   H7R13357   1.744   4.581  11.524
  125SOPE   H7S13358   1.800   4.596  11.557
  125SOPE   C2813359   1.662   4.822  11.612
  125SOPE   H8R13360   1.585   4.875  11.557
  125SOPE   H8S13361   1.573   4.791  11.678
  125SOPE   C2913362   1.725   4.908  11.714
  125SOPE   H9113363   1.819   4.927  11.668
  125SOPE  C21013364   1.699   4.941  11.841
  125SOPE  H10113365   1.792   4.960  11.896
  125SOPE  C21113366   1.582   4.899  11.927
  125SOPE  H11R13367   1.494   4.867  11.867
  125SOPE  H11S13368   1.554   4.993  11.977
  125SOPE  C21213369   1.593   4.792  12.035
  125SOPE  H12R13370   1.608   4.691  11.993
  125SOPE  H12S13371   1.498   4.785  12.092
  125SOPE  C21313372   1.694   4.830  12.140
  125SOPE  H13R13373   1.799   4.838  12.101
  125SOPE  H13S13374   1.686   4.746  12.213
  125SOPE  C21413375   1.659   4.958  12.209
  125SOPE  H14R13376   1.554   4.954  12.244
  125SOPE  H14S13377   1.687   5.044  12.146
  125SOPE  C21513378   1.734   4.969  12.335
  125SOPE  H15R13379   1.777   5.071  12.347
  125SOPE  H15S13380   1.821   4.906  12.311
  125SOPE  C21613381   1.644   4.926  12.455
  125SOPE  H16R13382   1.559   4.990  12.471
  125SOPE  H16S13383   1.682   4.951  12.552
  125SOPE  C21713384   1.624   4.778  12.473
  125SOPE  H17R13385   1.573   4.729  12.389
  125SOPE  H17S13386   1.602   4.738  12.576
  125SOPE  C21813387   1.748   4.716  12.466
  125SOPE  H18R13388   1.728   4.610  12.473
  125SOPE  H18S13389   1.809   4.733  12.558
  125SOPE  H18T13390   1.815   4.737  12.380
  125SOPE   C3313391   1.456   5.207  11.400
  125SOPE   H3X13392   1.459   5.110  11.345
  125SOPE   H3Y13393   1.400   5.280  11.338
  125SOPE   C3413394   1.372   5.200  11.530
  125SOPE   H4X13395   1.267   5.177  11.501
  125SOPE   H4Y13396   1.371   5.302  11.574
  125SOPE   C3513397   1.417   5.103  11.640
  125SOPE   H5X13398   1.523   5.127  11.666
  125SOPE   H5Y13399   1.414   4.998  11.605
  125SOPE   C3613400   1.335   5.112  11.771
  125SOPE   H6X13401   1.293   5.214  11.785
  125SOPE   H6Y13402   1.402   5.093  11.857
  125SOPE   C3713403   1.224   5.005  11.777
  125SOPE   H7X13404   1.270   4.904  11.770
  125SOPE   H7Y13405   1.160   5.018  11.687
  125SOPE   C3813406   1.135   5.017  11.901
  125SOPE   H8X13407   1.046   4.951  11.888
  125SOPE   H8Y13408   1.101   5.122  11.914
  125SOPE   C3913409   1.202   4.979  12.032
  125SOPE   H9X13410   1.288   5.046  12.056
  125SOPE   H9Y13411   1.238   4.874  12.027
  125SOPE  C31013412   1.111   5.005  12.150
  125SOPE  H10X13413   1.008   4.967  12.146
  125SOPE  H10Y13414   1.085   5.110  12.164
  125SOPE  C31113415   1.181   4.956  12.272
  125SOPE  H11X13416   1.286   4.984  12.291
  125SOPE  H11Y13417   1.208   4.849  12.247
  125SOPE  C31213418   1.088   4.991  12.394
  125SOPE  H12X13419   0.992   4.939  12.382
  125SOPE  H12Y13420   1.042   5.089  12.396
  125SOPE  C31313421   1.159   4.952  12.524
  125SOPE  H13X13422   1.258   4.993  12.544
  125SOPE  H13Y13423   1.192   4.873  12.462
  125SOPE  C31413424   1.091   4.898  12.657
  125SOPE  H14X13425   1.151   4.858  12.738
  125SOPE  H14Y13426   0.992   4.839  12.668
  125SOPE  C31513427   1.056   5.008  12.715
  125SOPE  H15X13428   1.000   4.976  12.807
  125SOPE  H15Y13429   0.988   5.020  12.623
  125SOPE  C31613430   1.158   5.115  12.737
  125SOPE  H16X13431   1.106   5.212  12.741
  125SOPE  H16Y13432   1.224   5.142  12.656
  125SOPE  C31713433   1.231   5.083  12.867
  125SOPE  H17X13434   1.172   5.020  12.940
  125SOPE  H17Y13435   1.255   5.178  12.915
  125SOPE  C31813436   1.359   5.021  12.835
  125SOPE  H18X13437   1.414   5.003  12.931
  125SOPE  H18Y13438   1.421   5.062  12.757
  125SOPE  H18Z13439   1.321   4.931  12.785
  126SOPE     N13440   3.000   1.006  10.601
  126SOPE   HN113441   3.047   0.954  10.679
  126SOPE   HN213442   3.030   0.961  10.516
  126SOPE   HN313443   3.043   1.098  10.628
  126SOPE   C1213444   2.860   1.010  10.656
  126SOPE  H12A13445   2.862   1.033  10.766
  126SOPE  H12B13446   2.818   0.909  10.647
  126SOPE   C1113447   2.796   1.121  10.580
  126SOPE  H11A13448   2.687   1.120  10.605
  126SOPE  H11B13449   2.805   1.098  10.472
  126SOPE     P13450   2.770   1.369  10.654
  126SOPE   O1313451   2.684   1.406  10.540
  126SOPE   O1413452   2.861   1.473  10.706
  126SOPE   O1213453   2.862   1.246  10.607
  126SOPE   O1113454   2.681   1.301  10.765
  126SOPE    C113455   2.729   1.252  10.889
  126SOPE    HA13456   2.839   1.267  10.899
  126SOPE    HB13457   2.709   1.143  10.894
  126SOPE    C213458   2.653   1.318  11.006
  126SOPE    HS13459   2.544   1.312  10.994
  126SOPE   O2113460   2.696   1.454  11.011
  126SOPE   C2113461   2.639   1.533  11.094
  126SOPE   O2213462   2.548   1.504  11.172
  126SOPE   C2213463   2.713   1.662  11.080
  126SOPE   H2R13464   2.706   1.705  10.979
  126SOPE   H2S13465   2.821   1.644  11.105
  126SOPE    C313466   2.686   1.245  11.133
  126SOPE    HX13467   2.686   1.135  11.117
  126SOPE    HY13468   2.617   1.271  11.218
  126SOPE   O3113469   2.817   1.287  11.153
  126SOPE   C3113470   2.845   1.251  11.257
  126SOPE   O3213471   2.780   1.183  11.342
  126SOPE   C3213472   3.002   1.293  11.255
  126SOPE   H2X13473   3.031   1.396  11.269
  126SOPE   H2Y13474   3.078   1.220  11.230
  126SOPE   C2313475   2.648   1.750  11.182
  126SOPE   H3R13476   2.540   1.766  11.175
  126SOPE   H3S13477   2.691   1.851  11.163
  126SOPE   C2413478   2.694   1.682  11.311
  126SOPE   H4R13479   2.769   1.604  11.319
  126SOPE   H4S13480   2.780   1.741  11.278
  126SOPE   C2513481   2.617   1.699  11.449
  126SOPE   H5R13482   2.590   1.803  11.463
  126SOPE   H5S13483   2.521   1.654  11.422
  126SOPE   C2613484   2.678   1.643  11.589
  126SOPE   H6R13485   2.643   1.540  11.586
  126SOPE   H6S13486   2.786   1.653  11.598
  126SOPE   C2713487   2.668   1.701  11.737
  126SOPE   H7R13488   2.694   1.803  11.746
  126SOPE   H7S13489   2.568   1.734  11.725
  126SOPE   C2813490   2.734   1.645  11.876
  126SOPE   H8R13491   2.824   1.706  11.878
  126SOPE   H8S13492   2.715   1.631  11.990
  126SOPE   C2913493   2.683   1.518  11.828
  126SOPE   H9113494   2.588   1.509  11.788
  126SOPE  C21013495   2.734   1.409  11.824
  126SOPE  H10113496   2.658   1.336  11.852
  126SOPE  C21113497   2.864   1.428  11.881
  126SOPE  H11R13498   2.923   1.508  11.828
  126SOPE  H11S13499   2.890   1.336  11.841
  126SOPE  C21213500   2.883   1.436  12.032
  126SOPE  H12R13501   2.866   1.537  12.072
  126SOPE  H12S13502   2.991   1.422  12.046
  126SOPE  C21313503   2.803   1.332  12.112
  126SOPE  H13R13504   2.830   1.231  12.075
  126SOPE  H13S13505   2.693   1.342  12.100
  126SOPE  C21413506   2.839   1.340  12.260
  126SOPE  H14R13507   2.813   1.437  12.308
  126SOPE  H14S13508   2.949   1.324  12.268
  126SOPE  C21513509   2.770   1.231  12.336
  126SOPE  H15R13510   2.763   1.141  12.269
  126SOPE  H15S13511   2.667   1.256  12.370
  126SOPE  C21613512   2.857   1.186  12.451
  126SOPE  H16R13513   2.944   1.144  12.394
  126SOPE  H16S13514   2.793   1.113  12.508
  126SOPE  C21713515   2.929   1.267  12.554
  126SOPE  H17R13516   2.863   1.350  12.586
  126SOPE  H17S13517   3.027   1.301  12.514
  126SOPE  C21813518   2.973   1.177  12.670
  126SOPE  H18R13519   3.051   1.105  12.643
  126SOPE  H18S13520   2.887   1.116  12.706
  126SOPE  H18T13521   3.018   1.239  12.749
  126SOPE   C3313522   3.061   1.276  11.382
  126SOPE   H3X13523   2.984   1.201  11.403
  126SOPE   H3Y13524   2.990   1.323  11.450
  126SOPE   C3413525   3.230   1.253  11.427
  126SOPE   H4X13526   3.274   1.350  11.419
  126SOPE   H4Y13527   3.289   1.159  11.414
  126SOPE   C3513528   3.300   1.267  11.586
  126SOPE   H5X13529   3.352   1.215  11.670
  126SOPE   H5Y13530   3.291   1.173  11.645
  126SOPE   C3613531   3.262   1.403  11.653
  126SOPE   H6X13532   3.165   1.436  11.685
  126SOPE   H6Y13533   3.284   1.473  11.575
  126SOPE   C3713534   3.302   1.431  11.797
  126SOPE   H7X13535   3.400   1.445  11.770
  126SOPE   H7Y13536   3.287   1.350  11.865
  126SOPE   C3813537   3.250   1.543  11.887
  126SOPE   H8X13538   3.142   1.541  11.907
  126SOPE   H8Y13539   3.285   1.628  11.835
  126SOPE   C3913540   3.304   1.540  12.027
  126SOPE   H9X13541   3.410   1.531  12.052
  126SOPE   H9Y13542   3.234   1.486  12.084
  126SOPE  C31013543   3.320   1.635  12.132
  126SOPE  H10X13544   3.380   1.698  12.091
  126SOPE  H10Y13545   3.375   1.589  12.219
  126SOPE  C31113546   3.230   1.742  12.131
  126SOPE  H11X13547   3.199   1.748  12.025
  126SOPE  H11Y13548   3.247   1.846  12.158
  126SOPE  C31213549   3.175   1.686  12.250
  126SOPE  H12X13550   3.252   1.673  12.332
  126SOPE  H12Y13551   3.133   1.588  12.217
  126SOPE  C31313552   3.073   1.780  12.283
  126SOPE  H13X13553   3.019   1.806  12.189
  126SOPE  H13Y13554   3.118   1.876  12.321
  126SOPE  C31413555   2.995   1.700  12.382
  126SOPE  H14X13556   3.057   1.672  12.468
  126SOPE  H14Y13557   2.947   1.609  12.338
  126SOPE  C31513558   2.893   1.792  12.425
  126SOPE  H15X13559   2.853   1.797  12.320
  126SOPE  H15Y13560   2.945   1.887  12.447
  126SOPE  C31613561   2.799   1.743  12.537
  126SOPE  H16X13562   2.798   1.633  12.528
  126SOPE  H16Y13563   2.691   1.771  12.533
  126SOPE  C31713564   2.847   1.799  12.671
  126SOPE  H17X13565   2.781   1.750  12.747
  126SOPE  H17Y13566   2.827   1.906  12.685
  126SOPE  C31813567   2.998   1.779  12.685
  126SOPE  H18X13568   3.005   1.671  12.655
  126SOPE  H18Y13569   3.036   1.797  12.788
  126SOPE  H18Z13570   3.074   1.820  12.620
  127SOPE     N13571   6.381   2.415  10.448
  127SOPE   HN113572   6.483   2.408  10.430
  127SOPE   HN213573   6.337   2.478  10.378
  127SOPE   HN313574   6.367   2.456  10.543
  127SOPE   C1213575   6.316   2.279  10.436
  127SOPE  H12A13576   6.362   2.227  10.349
  127SOPE  H12B13577   6.208   2.297  10.414
  127SOPE   C1113578   6.328   2.192  10.564
  127SOPE  H11A13579   6.427   2.143  10.567
  127SOPE  H11B13580   6.254   2.109  10.556
  127SOPE     P13581   6.160   2.294  10.736
  127SOPE   O1313582   6.070   2.245  10.629
  127SOPE   O1413583   6.145   2.431  10.787
  127SOPE   O1213584   6.311   2.268  10.685
  127SOPE   O1113585   6.150   2.202  10.859
  127SOPE    C113586   6.176   2.067  10.884
  127SOPE    HA13587   6.285   2.051  10.882
  127SOPE    HB13588   6.124   2.000  10.811
  127SOPE    C213589   6.120   2.030  11.023
  127SOPE    HS13590   6.081   1.928  11.020
  127SOPE   O2113591   6.014   2.124  11.053
  127SOPE   C2113592   5.944   2.100  11.158
  127SOPE   O2213593   5.979   2.034  11.254
  127SOPE   C2213594   5.816   2.177  11.157
  127SOPE   H2R13595   5.736   2.135  11.223
  127SOPE   H2S13596   5.780   2.187  11.054
  127SOPE    C313597   6.239   2.030  11.126
  127SOPE    HX13598   6.317   1.972  11.071
  127SOPE    HY13599   6.215   1.971  11.217
  127SOPE   O3113600   6.280   2.161  11.169
  127SOPE   C3113601   6.409   2.189  11.158
  127SOPE   O3213602   6.490   2.131  11.089
  127SOPE   C3213603   6.433   2.319  11.231
  127SOPE   H2X13604   6.341   2.348  11.286
  127SOPE   H2Y13605   6.450   2.390  11.148
  127SOPE   C2313606   5.859   2.310  11.200
  127SOPE   H3R13607   5.782   2.390  11.188
  127SOPE   H3S13608   5.955   2.343  11.151
  127SOPE   C2413609   5.899   2.311  11.337
  127SOPE   H4R13610   5.800   2.286  11.396
  127SOPE   H4S13611   5.972   2.238  11.383
  127SOPE   C2513612   5.973   2.459  11.319
  127SOPE   H5R13613   5.918   2.555  11.326
  127SOPE   H5S13614   5.929   2.413  11.385
  127SOPE   C2613615   6.098   2.497  11.399
  127SOPE   H6R13616   6.146   2.425  11.466
  127SOPE   H6S13617   6.145   2.509  11.301
  127SOPE   C2713618   6.106   2.631  11.470
  127SOPE   H7R13619   6.213   2.657  11.479
  127SOPE   H7S13620   6.060   2.699  11.396
  127SOPE   C2813621   6.054   2.652  11.614
  127SOPE   H8R13622   6.080   2.754  11.628
  127SOPE   H8S13623   5.946   2.663  11.624
  127SOPE   C2913624   6.110   2.601  11.742
  127SOPE   H9113625   6.217   2.592  11.735
  127SOPE  C21013626   6.041   2.565  11.855
  127SOPE  H10113627   6.093   2.526  11.940
  127SOPE  C21113628   5.892   2.565  11.884
  127SOPE  H11R13629   5.858   2.461  11.904
  127SOPE  H11S13630   5.836   2.577  11.791
  127SOPE  C21213631   5.827   2.612  12.006
  127SOPE  H12R13632   5.720   2.602  12.012
  127SOPE  H12S13633   5.830   2.715  12.005
  127SOPE  C21313634   5.889   2.546  12.121
  127SOPE  H13R13635   5.995   2.577  12.118
  127SOPE  H13S13636   5.880   2.436  12.104
  127SOPE  C21413637   5.831   2.592  12.250
  127SOPE  H14R13638   5.722   2.568  12.254
  127SOPE  H14S13639   5.835   2.703  12.254
  127SOPE  C21513640   5.931   2.542  12.358
  127SOPE  H15R13641   5.913   2.593  12.456
  127SOPE  H15S13642   6.033   2.544  12.319
  127SOPE  C21613643   5.936   2.392  12.375
  127SOPE  H16R13644   5.899   2.345  12.281
  127SOPE  H16S13645   5.844   2.426  12.406
  127SOPE  C21713646   5.976   2.307  12.508
  127SOPE  H17R13647   5.976   2.370  12.600
  127SOPE  H17S13648   6.073   2.279  12.468
  127SOPE  C21813649   5.934   2.163  12.558
  127SOPE  H18R13650   5.923   2.084  12.484
  127SOPE  H18S13651   5.832   2.169  12.603
  127SOPE  H18T13652   5.998   2.112  12.630
  127SOPE   C3313653   6.553   2.326  11.325
  127SOPE   H3X13654   6.646   2.349  11.266
  127SOPE   H3Y13655   6.577   2.235  11.383
  127SOPE   C3413656   6.520   2.440  11.420
  127SOPE   H4X13657   6.436   2.415  11.487
  127SOPE   H4Y13658   6.493   2.531  11.360
  127SOPE   C3513659   6.637   2.473  11.504
  127SOPE   H5X13660   6.715   2.479  11.425
  127SOPE   H5Y13661   6.671   2.396  11.575
  127SOPE   C3613662   6.605   2.602  11.576
  127SOPE   H6X13663   6.569   2.682  11.509
  127SOPE   H6Y13664   6.693   2.640  11.615
  127SOPE   C3713665   6.519   2.591  11.701
  127SOPE   H7X13666   6.418   2.561  11.665
  127SOPE   H7Y13667   6.515   2.694  11.744
  127SOPE   C3813668   6.570   2.493  11.807
  127SOPE   H8X13669   6.675   2.460  11.790
  127SOPE   H8Y13670   6.503   2.404  11.800
  127SOPE   C3913671   6.553   2.546  11.950
  127SOPE   H9X13672   6.453   2.593  11.951
  127SOPE   H9Y13673   6.630   2.621  11.980
  127SOPE  C31013674   6.564   2.432  12.051
  127SOPE  H10X13675   6.665   2.388  12.035
  127SOPE  H10Y13676   6.485   2.356  12.030
  127SOPE  C31113677   6.555   2.472  12.198
  127SOPE  H11X13678   6.640   2.539  12.224
  127SOPE  H11Y13679   6.569   2.379  12.258
  127SOPE  C31213680   6.421   2.538  12.233
  127SOPE  H12X13681   6.336   2.475  12.200
  127SOPE  H12Y13682   6.415   2.635  12.179
  127SOPE  C31313683   6.406   2.564  12.382
  127SOPE  H13X13684   6.385   2.470  12.438
  127SOPE  H13Y13685   6.323   2.637  12.399
  127SOPE  C31413686   6.535   2.618  12.442
  127SOPE  H14X13687   6.563   2.686  12.368
  127SOPE  H14Y13688   6.610   2.538  12.462
  127SOPE  C31513689   6.528   2.704  12.561
  127SOPE  H15X13690   6.463   2.795  12.545
  127SOPE  H15Y13691   6.623   2.735  12.606
  127SOPE  C31613692   6.472   2.612  12.659
  127SOPE  H16X13693   6.376   2.576  12.617
  127SOPE  H16Y13694   6.483   2.692  12.734
  127SOPE  C31713695   6.527   2.516  12.758
  127SOPE  H17X13696   6.623   2.557  12.795
  127SOPE  H17Y13697   6.530   2.424  12.697
  127SOPE  C31813698   6.435   2.500  12.879
  127SOPE  H18X13699   6.481   2.456  12.965
  127SOPE  H18Y13700   6.339   2.450  12.851
  127SOPE  H18Z13701   6.409   2.589  12.939
  128SOPE     N13702   0.252   1.764  10.554
  128SOPE   HN113703   0.217   1.722  10.643
  128SOPE   HN213704   0.181   1.750  10.480
  128SOPE   HN313705   0.342   1.718  10.528
  128SOPE   C1213706   0.275   1.911  10.570
  128SOPE  H12A13707   0.176   1.959  10.578
  128SOPE  H12B13708   0.322   1.947  10.477
  128SOPE   C1113709   0.370   1.943  10.685
  128SOPE  H11A13710   0.349   1.882  10.776
  128SOPE  H11B13711   0.361   2.050  10.715
  128SOPE     P13712   0.605   1.817  10.670
  128SOPE   O1313713   0.684   1.859  10.787
  128SOPE   O1413714   0.668   1.771  10.545
  128SOPE   O1213715   0.501   1.928  10.634
  128SOPE   O1113716   0.510   1.696  10.709
  128SOPE    C113717   0.576   1.568  10.715
  128SOPE    HA13718   0.636   1.537  10.627
  128SOPE    HB13719   0.496   1.491  10.716
  128SOPE    C213720   0.655   1.540  10.850
  128SOPE    HS13721   0.643   1.430  10.873
  128SOPE   O2113722   0.612   1.622  10.961
  128SOPE   C2113723   0.490   1.592  10.981
  128SOPE   O2213724   0.431   1.506  10.917
  128SOPE   C2213725   0.430   1.687  11.094
  128SOPE   H2R13726   0.347   1.740  11.043
  128SOPE   H2S13727   0.512   1.755  11.120
  128SOPE    C313728   0.805   1.560  10.840
  128SOPE    HX13729   0.827   1.664  10.805
  128SOPE    HY13730   0.843   1.489  10.765
  128SOPE   O3113731   0.862   1.528  10.966
  128SOPE   C3113732   0.916   1.626  11.038
  128SOPE   O3213733   0.955   1.734  11.000
  128SOPE   C3213734   0.929   1.571  11.179
  128SOPE   H2X13735   1.024   1.514  11.181
  128SOPE   H2Y13736   0.844   1.500  11.181
  128SOPE   C2313737   0.401   1.645  11.245
  128SOPE   H3R13738   0.451   1.557  11.286
  128SOPE   H3S13739   0.309   1.601  11.238
  128SOPE   C2413740   0.319   1.729  11.347
  128SOPE   H4R13741   0.393   1.798  11.385
  128SOPE   H4S13742   0.249   1.792  11.292
  128SOPE   C2513743   0.255   1.647  11.465
  128SOPE   H5R13744   0.176   1.571  11.459
  128SOPE   H5S13745   0.335   1.578  11.494
  128SOPE   C2613746   0.197   1.735  11.576
  128SOPE   H6R13747   0.263   1.820  11.591
  128SOPE   H6S13748   0.099   1.783  11.553
  128SOPE   C2713749   0.173   1.651  11.701
  128SOPE   H7R13750   0.099   1.703  11.764
  128SOPE   H7S13751   0.133   1.551  11.673
  128SOPE   C2813752   0.306   1.632  11.770
  128SOPE   H8R13753   0.379   1.594  11.699
  128SOPE   H8S13754   0.336   1.735  11.799
  128SOPE   C2913755   0.307   1.535  11.883
  128SOPE   H9113756   0.306   1.427  11.866
  128SOPE  C21013757   0.295   1.576  12.004
  128SOPE  H10113758   0.246   1.503  12.072
  128SOPE  C21113759   0.277   1.725  12.027
  128SOPE  H11R13760   0.204   1.746  12.098
  128SOPE  H11S13761   0.205   1.784  11.965
  128SOPE  C21213762   0.384   1.789  12.102
  128SOPE  H12R13763   0.463   1.787  12.027
  128SOPE  H12S13764   0.408   1.741  12.200
  128SOPE  C21313765   0.335   1.924  12.127
  128SOPE  H13R13766   0.298   1.959  12.029
  128SOPE  H13S13767   0.409   1.997  12.149
  128SOPE  C21413768   0.229   1.934  12.232
  128SOPE  H14R13769   0.123   1.905  12.206
  128SOPE  H14S13770   0.249   2.039  12.223
  128SOPE  C21513771   0.246   1.921  12.380
  128SOPE  H15R13772   0.315   1.996  12.411
  128SOPE  H15S13773   0.286   1.823  12.392
  128SOPE  C21613774   0.120   1.942  12.460
  128SOPE  H16R13775   0.024   1.915  12.410
  128SOPE  H16S13776   0.136   2.052  12.472
  128SOPE  C21713777   0.118   1.900  12.605
  128SOPE  H17R13778   0.182   1.810  12.607
  128SOPE  H17S13779   0.013   1.872  12.632
  128SOPE  C21813780   0.165   2.016  12.695
  128SOPE  H18R13781   0.122   2.114  12.665
  128SOPE  H18S13782   0.274   2.027  12.689
  128SOPE  H18T13783   0.135   2.001  12.800
  128SOPE   C3313784   0.932   1.667  11.303
  128SOPE   H3X13785   0.993   1.755  11.278
  128SOPE   H3Y13786   0.985   1.617  11.387
  128SOPE   C3413787   0.796   1.709  11.363
  128SOPE   H4X13788   0.745   1.624  11.407
  128SOPE   H4Y13789   0.731   1.745  11.281
  128SOPE   C3513790   0.796   1.809  11.481
  128SOPE   H5X13791   0.854   1.900  11.453
  128SOPE   H5Y13792   0.845   1.765  11.571
  128SOPE   C3613793   0.652   1.846  11.521
  128SOPE   H6X13794   0.595   1.752  11.543
  128SOPE   H6Y13795   0.602   1.893  11.433
  128SOPE   C3713796   0.637   1.939  11.642
  128SOPE   H7X13797   0.683   2.039  11.623
  128SOPE   H7Y13798   0.688   1.893  11.731
  128SOPE   C3813799   0.492   1.960  11.683
  128SOPE   H8X13800   0.442   1.862  11.690
  128SOPE   H8Y13801   0.437   2.020  11.606
  128SOPE   C3913802   0.480   2.025  11.819
  128SOPE   H9X13803   0.541   1.967  11.893
  128SOPE   H9Y13804   0.375   2.016  11.853
  128SOPE  C31013805   0.514   2.174  11.824
  128SOPE  H10X13806   0.437   2.235  11.776
  128SOPE  H10Y13807   0.613   2.201  11.780
  128SOPE  C31113808   0.509   2.211  11.968
  128SOPE  H11X13809   0.438   2.152  12.028
  128SOPE  H11Y13810   0.484   2.316  11.994
  128SOPE  C31213811   0.628   2.180  12.026
  128SOPE  H12X13812   0.709   2.229  11.968
  128SOPE  H12Y13813   0.652   2.075  12.010
  128SOPE  C31313814   0.595   2.189  12.175
  128SOPE  H13X13815   0.516   2.253  12.210
  128SOPE  H13Y13816   0.670   2.266  12.206
  128SOPE  C31413817   0.590   2.042  12.254
  128SOPE  H14X13818   0.694   2.047  12.231
  128SOPE  H14Y13819   0.591   1.945  12.205
  128SOPE  C31513820   0.544   2.017  12.417
  128SOPE  H15X13821   0.463   2.087  12.412
  128SOPE  H15Y13822   0.543   2.109  12.479
  128SOPE  C31613823   0.621   1.980  12.558
  128SOPE  H16X13824   0.713   2.028  12.605
  128SOPE  H16Y13825   0.659   1.877  12.557
  128SOPE  C31713826   0.520   2.015  12.661
  128SOPE  H17X13827   0.439   1.959  12.613
  128SOPE  H17Y13828   0.502   2.124  12.680
  128SOPE  C31813829   0.550   1.956  12.785
  128SOPE  H18X13830   0.462   1.923  12.844
  128SOPE  H18Y13831   0.628   1.999  12.837
  128SOPE  H18Z13832   0.615   1.876  12.756
  129OSM      N13833   2.449   4.868  14.968
  129OSM    C1513834   2.485   4.739  14.902
  129OSM   H15A13835   2.586   4.747  14.859
  129OSM   H15B13836   2.420   4.717  14.818
  129OSM   H15C13837   2.482   4.660  14.975
  129OSM    C1413838   2.330   4.847  15.054
  129OSM   H14A13839   2.345   4.774  15.131
  129OSM   H14B13840   2.247   4.819  14.991
  129OSM   H14C13841   2.296   4.940  15.100
  129OSM    C1313842   2.560   4.908  15.060
  129OSM   H13A13843   2.652   4.925  15.005
  129OSM   H13B13844   2.576   4.829  15.132
  129OSM   H13C13845   2.535   4.999  15.114
  129OSM    C1213846   2.421   4.975  14.862
  129OSM   H12A13847   2.361   5.055  14.904
  129OSM   H12B13848   2.356   4.929  14.788
  129OSM    C1113849   2.542   5.035  14.786
  129OSM   H11A13850   2.601   5.099  14.856
  129OSM   H11B13851   2.506   5.105  14.706
  129OSM      P13852   2.773   4.909  14.745
  129OSM    O1313853   2.812   4.960  14.878
  129OSM    O1413854   2.803   4.768  14.715
  129OSM    O1113855   2.827   4.996  14.623
  129OSM    O1213856   2.617   4.929  14.728
  129OSM    C1S13857   2.761   4.982  14.496
  129OSM    H1S13858   2.652   4.964  14.508
  129OSM    H1T13859   2.814   4.905  14.439
  129OSM     NF13860   2.711   5.062  14.270
  129OSM    HNF13861   2.776   5.076  14.197
  129OSM    C2S13862   2.759   5.099  14.394
  129OSM    H2S13863   2.694   5.172  14.446
  129OSM    C3S13864   2.886   5.156  14.358
  129OSM    H3S13865   2.967   5.081  14.353
  129OSM     O313866   2.895   5.255  14.440
  129OSM    HO313867   2.905   5.209  14.523
  129OSM    C4S13868   2.904   5.273  14.270
  129OSM    H4S13869   2.910   5.382  14.293
  129OSM    C5S13870   2.955   5.265  14.158
  129OSM    H5S13871   2.939   5.165  14.134
  129OSM    C6S13872   2.986   5.367  14.056
  129OSM    H6S13873   3.049   5.458  14.052
  129OSM    H6T13874   2.948   5.441  14.116
  129OSM    C7S13875   2.969   5.326  13.916
  129OSM    H7S13876   3.031   5.249  13.903
  129OSM    H7T13877   3.044   5.356  13.840
  129OSM    C8S13878   2.833   5.284  13.868
  129OSM    H8S13879   2.771   5.366  13.832
  129OSM    H8T13880   2.763   5.244  13.940
  129OSM    C9S13881   2.813   5.303  13.726
  129OSM    H9S13882   2.910   5.256  13.729
  129OSM    H9T13883   2.867   5.373  13.660
  129OSM   C10S13884   2.668   5.247  13.693
  129OSM   H10S13885   2.619   5.340  13.702
  129OSM   H10T13886   2.629   5.178  13.769
  129OSM   C11S13887   2.630   5.194  13.553
  129OSM   H11S13888   2.654   5.085  13.536
  129OSM   H11T13889   2.702   5.262  13.503
  129OSM   C12S13890   2.501   5.192  13.485
  129OSM   H12S13891   2.490   5.299  13.458
  129OSM   H12T13892   2.438   5.144  13.561
  129OSM   C13S13893   2.488   5.097  13.368
  129OSM   H13S13894   2.545   5.003  13.372
  129OSM   H13T13895   2.544   5.131  13.289
  129OSM   C14S13896   2.353   5.112  13.300
  129OSM   H14S13897   2.326   5.221  13.311
  129OSM   H14T13898   2.290   5.049  13.363
  129OSM   C15S13899   2.346   5.083  13.149
  129OSM   H15S13900   2.434   5.111  13.087
  129OSM   H15T13901   2.261   5.137  13.104
  129OSM   C16S13902   2.327   4.938  13.126
  129OSM   H16S13903   2.217   4.920  13.125
  129OSM   H16T13904   2.371   4.879  13.209
  129OSM   C17S13905   2.390   4.898  12.995
  129OSM   H17S13906   2.328   4.812  12.975
  129OSM   H17T13907   2.496   4.868  13.003
  129OSM   C18S13908   2.370   4.977  12.868
  129OSM   H18S13909   2.427   5.069  12.858
  129OSM   H18T13910   2.262   4.993  12.846
  129OSM   H18U13911   2.419   4.912  12.793
  129OSM    C1F13912   2.585   5.051  14.252
  129OSM     OF13913   2.506   5.066  14.345
  129OSM    C2F13914   2.546   5.032  14.110
  129OSM    H2F13915   2.630   4.988  14.054
  129OSM    H2G13916   2.520   5.132  14.067
  129OSM    C3F13917   2.430   4.934  14.105
  129OSM    H3F13918   2.367   4.940  14.014
  129OSM    H3G13919   2.375   4.962  14.194
  129OSM    C4F13920   2.432   4.798  14.170
  129OSM    H4F13921   2.331   4.754  14.153
  129OSM    H4G13922   2.445   4.807  14.282
  129OSM    C5F13923   2.538   4.717  14.107
  129OSM    H5F13924   2.543   4.622  14.165
  129OSM    H5G13925   2.632   4.775  14.116
  129OSM    C6F13926   2.516   4.699  13.958
  129OSM    H6F13927   2.495   4.794  13.905
  129OSM    H6G13928   2.429   4.632  13.951
  129OSM    C7F13929   2.634   4.631  13.891
  129OSM    H7F13930   2.651   4.538  13.950
  129OSM    H7G13931   2.723   4.697  13.901
  129OSM    C8F13932   2.609   4.600  13.744
  129OSM    H8F13933   2.566   4.688  13.691
  129OSM    H8G13934   2.536   4.518  13.739
  129OSM    C9F13935   2.705   4.537  13.655
  129OSM    H9F13936   2.754   4.446  13.696
  129OSM   C10F13937   2.770   4.611  13.569
  129OSM   H10F13938   2.854   4.567  13.521
  129OSM   C11F13939   2.771   4.758  13.544
  129OSM   H11F13940   2.877   4.792  13.540
  129OSM   H11G13941   2.731   4.819  13.626
  129OSM   C12F13942   2.701   4.775  13.414
  129OSM   H12F13943   2.705   4.884  13.390
  129OSM   H12G13944   2.601   4.730  13.411
  129OSM   C13F13945   2.772   4.712  13.300
  129OSM   H13F13946   2.803   4.606  13.317
  129OSM   H13G13947   2.859   4.781  13.299
  129OSM   C14F13948   2.685   4.728  13.176
  129OSM   H14F13949   2.656   4.834  13.167
  129OSM   H14G13950   2.612   4.645  13.171
  129OSM   C15F13951   2.749   4.721  13.044
  129OSM   H15F13952   2.780   4.615  13.060
  129OSM   H15G13953   2.833   4.797  13.042
  129OSM   C16F13954   2.676   4.715  12.907
  129OSM   H16F13955   2.594   4.645  12.922
  129OSM   H16G13956   2.710   4.650  12.823
  129OSM   C17F13957   2.695   4.844  12.823
  129OSM   H17F13958   2.655   4.920  12.892
  129OSM   H17G13959   2.633   4.824  12.734
  129OSM   C18F13960   2.832   4.905  12.772
  129OSM   H18F13961   2.897   4.835  12.714
  129OSM   H18G13962   2.897   4.939  12.856
  129OSM   H18H13963   2.810   4.989  12.705
  130OSM      N13964   3.600   5.522  14.759
  130OSM    C1513965   3.535   5.555  14.887
  130OSM   H15A13966   3.443   5.500  14.895
  130OSM   H15B13967   3.519   5.662  14.898
  130OSM   H15C13968   3.599   5.518  14.968
  130OSM    C1413969   3.520   5.572  14.645
  130OSM   H14A13970   3.450   5.494  14.614
  130OSM   H14B13971   3.581   5.597  14.559
  130OSM   H14C13972   3.466   5.660  14.674
  130OSM    C1313973   3.738   5.582  14.757
  130OSM   H13A13974   3.809   5.516  14.808
  130OSM   H13B13975   3.742   5.675  14.813
  130OSM   H13C13976   3.773   5.597  14.657
  130OSM    C1213977   3.609   5.369  14.750
  130OSM   H12A13978   3.679   5.342  14.672
  130OSM   H12B13979   3.512   5.329  14.723
  130OSM    C1113980   3.647   5.291  14.878
  130OSM   H11A13981   3.659   5.183  14.848
  130OSM   H11B13982   3.563   5.291  14.951
  130OSM      P13983   3.905   5.276  14.935
  130OSM    O1313984   4.003   5.366  14.997
  130OSM    O1413985   3.895   5.137  14.985
  130OSM    O1113986   3.922   5.273  14.778
  130OSM    O1213987   3.762   5.346  14.942
  130OSM    C1S13988   4.030   5.339  14.713
  130OSM    H1S13989   4.127   5.322  14.765
  130OSM    H1T13990   4.011   5.447  14.704
  130OSM     NF13991   3.926   5.335  14.490
  130OSM    HNF13992   3.854   5.269  14.480
  130OSM    C2S13993   4.037   5.285  14.570
  130OSM    H2S13994   4.135   5.318  14.526
  130OSM    C3S13995   4.034   5.135  14.573
  130OSM    H3S13996   3.943   5.092  14.620
  130OSM     O313997   4.149   5.082  14.640
  130OSM    HO313998   4.187   5.154  14.691
  130OSM    C4S13999   4.031   5.092  14.431
  130OSM    H4S14000   4.131   5.111  14.388
  130OSM    C5S14001   3.932   5.019  14.368
  130OSM    H5S14002   3.855   4.971  14.427
  130OSM    C6S14003   3.923   4.967  14.226
  130OSM    H6S14004   3.892   4.860  14.214
  130OSM    H6T14005   4.018   4.953  14.181
  130OSM    C7S14006   3.896   5.056  14.114
  130OSM    H7S14007   3.913   4.995  14.022
  130OSM    H7T14008   3.965   5.145  14.121
  130OSM    C8S14009   3.757   5.087  14.121
  130OSM    H8S14010   3.751   5.146  14.215
  130OSM    H8T14011   3.709   4.987  14.132
  130OSM    C9S14012   3.727   5.156  13.992
  130OSM    H9S14013   3.817   5.206  13.947
  130OSM    H9T14014   3.653   5.234  14.019
  130OSM   C10S14015   3.676   5.052  13.892
  130OSM   H10S14016   3.585   5.006  13.937
  130OSM   H10T14017   3.754   4.973  13.880
  130OSM   C11S14018   3.653   5.106  13.751
  130OSM   H11S14019   3.600   5.204  13.756
  130OSM   H11T14020   3.590   5.036  13.693
  130OSM   C12S14021   3.783   5.118  13.671
  130OSM   H12S14022   3.829   5.017  13.664
  130OSM   H12T14023   3.857   5.179  13.728
  130OSM   C13S14024   3.753   5.174  13.529
  130OSM   H13S14025   3.706   5.273  13.534
  130OSM   H13T14026   3.691   5.100  13.475
  130OSM   C14S14027   3.874   5.187  13.439
  130OSM   H14S14028   3.914   5.086  13.460
  130OSM   H14T14029   3.936   5.274  13.472
  130OSM   C15S14030   3.870   5.177  13.289
  130OSM   H15S14031   3.818   5.083  13.261
  130OSM   H15T14032   3.971   5.165  13.249
  130OSM   C16S14033   3.818   5.306  13.233
  130OSM   H16S14034   3.876   5.388  13.281
  130OSM   H16T14035   3.713   5.313  13.268
  130OSM   C17S14036   3.826   5.319  13.082
  130OSM   H17S14037   3.927   5.353  13.052
  130OSM   H17T14038   3.751   5.399  13.057
  130OSM   C18S14039   3.791   5.196  13.000
  130OSM   H18S14040   3.764   5.229  12.898
  130OSM   H18T14041   3.702   5.143  13.043
  130OSM   H18U14042   3.874   5.123  12.991
  130OSM    C1F14043   3.908   5.457  14.451
  130OSM     OF14044   3.987   5.546  14.479
  130OSM    C2F14045   3.784   5.479  14.374
  130OSM    H2F14046   3.698   5.475  14.444
  130OSM    H2G14047   3.772   5.395  14.302
  130OSM    C3F14048   3.790   5.619  14.310
  130OSM    H3F14049   3.892   5.640  14.270
  130OSM    H3G14050   3.771   5.693  14.390
  130OSM    C4F14051   3.694   5.641  14.193
  130OSM    H4F14052   3.689   5.750  14.171
  130OSM    H4G14053   3.592   5.604  14.216
  130OSM    C5F14054   3.747   5.576  14.065
  130OSM    H5F14055   3.754   5.466  14.080
  130OSM    H5G14056   3.852   5.613  14.052
  130OSM    C6F14057   3.664   5.612  13.941
  130OSM    H6F14058   3.669   5.722  13.925
  130OSM    H6G14059   3.557   5.587  13.960
  130OSM    C7F14060   3.714   5.545  13.812
  130OSM    H7F14061   3.642   5.563  13.729
  130OSM    H7G14062   3.723   5.436  13.831
  130OSM    C8F14063   3.850   5.602  13.766
  130OSM    H8F14064   3.919   5.600  13.852
  130OSM    H8G14065   3.834   5.709  13.739
  130OSM    C9F14066   3.908   5.520  13.655
  130OSM    H9F14067   3.902   5.411  13.663
  130OSM   C10F14068   3.955   5.568  13.541
  130OSM   H10F14069   4.004   5.501  13.468
  130OSM   C11F14070   3.958   5.713  13.508
  130OSM   H11F14071   4.063   5.714  13.513
  130OSM   H11G14072   3.937   5.789  13.587
  130OSM   C12F14073   3.880   5.757  13.386
  130OSM   H12F14074   3.906   5.697  13.297
  130OSM   H12G14075   3.899   5.864  13.358
  130OSM   C13F14076   3.735   5.745  13.432
  130OSM   H13F14077   3.712   5.820  13.510
  130OSM   H13G14078   3.718   5.644  13.475
  130OSM   C14F14079   3.639   5.761  13.321
  130OSM   H14F14080   3.674   5.845  13.258
  130OSM   H14G14081   3.537   5.785  13.361
  130OSM   C15F14082   3.630   5.632  13.245
  130OSM   H15F14083   3.597   5.550  13.314
  130OSM   H15G14084   3.718   5.600  13.187
  130OSM   C16F14085   3.527   5.663  13.143
  130OSM   H16F14086   3.437   5.680  13.207
  130OSM   H16G14087   3.514   5.563  13.094
  130OSM   C17F14088   3.558   5.792  13.049
  130OSM   H17F14089   3.654   5.763  13.000
  130OSM   H17G14090   3.562   5.879  13.114
  130OSM   C18F14091   3.461   5.866  12.945
  130OSM   H18F14092   3.498   5.869  12.840
  130OSM   H18G14093   3.364   5.833  12.905
  130OSM   H18H14094   3.442   5.769  12.975
  131OSM      N14095   4.322   1.748  14.934
  131OSM    C1514096   4.373   1.645  15.031
  131OSM   H15A14097   4.422   1.563  14.981
  131OSM   H15B14098   4.294   1.600  15.090
  131OSM   H15C14099   4.443   1.690  15.100
  131OSM    C1414100   4.432   1.810  14.855
  131OSM   H14A14101   4.521   1.831  14.913
  131OSM   H14B14102   4.396   1.907  14.818
  131OSM   H14C14103   4.457   1.750  14.769
  131OSM    C1314104   4.226   1.682  14.840
  131OSM   H13A14105   4.276   1.601  14.789
  131OSM   H13B14106   4.186   1.751  14.764
  131OSM   H13C14107   4.138   1.648  14.894
  131OSM    C1214108   4.250   1.859  15.011
  131OSM   H12A14109   4.323   1.920  15.063
  131OSM   H12B14110   4.188   1.810  15.085
  131OSM    C1114111   4.157   1.957  14.934
  131OSM   H11A14112   4.130   2.038  15.005
  131OSM   H11B14113   4.064   1.901  14.908
  131OSM      P14114   4.150   2.136  14.744
  131OSM    O1314115   4.015   2.097  14.700
  131OSM    O1414116   4.162   2.254  14.833
  131OSM    O1114117   4.239   2.165  14.618
  131OSM    O1214118   4.218   2.010  14.816
  131OSM    C1S14119   4.319   2.064  14.556
  131OSM    H1S14120   4.320   1.968  14.613
  131OSM    H1T14121   4.424   2.099  14.555
  131OSM     NF14122   4.322   1.911  14.365
  131OSM    HNF14123   4.391   1.913  14.295
  131OSM    C2S14124   4.271   2.036  14.411
  131OSM    H2S14125   4.160   2.029  14.407
  131OSM    C3S14126   4.318   2.152  14.323
  131OSM    H3S14127   4.426   2.169  14.344
  131OSM     O314128   4.242   2.268  14.352
  131OSM    HO314129   4.210   2.250  14.442
  131OSM    C4S14130   4.303   2.124  14.176
  131OSM    H4S14131   4.201   2.102  14.141
  131OSM    C5S14132   4.402   2.127  14.084
  131OSM    H5S14133   4.505   2.156  14.113
  131OSM    C6S14134   4.375   2.101  13.939
  131OSM    H6S14135   4.376   2.199  13.888
  131OSM    H6T14136   4.271   2.063  13.927
  131OSM    C7S14137   4.466   2.005  13.860
  131OSM    H7S14138   4.461   1.904  13.908
  131OSM    H7T14139   4.574   2.034  13.861
  131OSM    C8S14140   4.416   1.995  13.714
  131OSM    H8S14141   4.308   1.968  13.724
  131OSM    H8T14142   4.465   1.908  13.664
  131OSM    C9S14143   4.426   2.121  13.622
  131OSM    H9S14144   4.530   2.161  13.618
  131OSM    H9T14145   4.360   2.201  13.662
  131OSM   C10S14146   4.386   2.087  13.477
  131OSM   H10S14147   4.285   2.040  13.486
  131OSM   H10T14148   4.457   2.010  13.440
  131OSM   C11S14149   4.382   2.198  13.368
  131OSM   H11S14150   4.485   2.233  13.347
  131OSM   H11T14151   4.322   2.284  13.403
  131OSM   C12S14152   4.318   2.144  13.237
  131OSM   H12S14153   4.212   2.124  13.265
  131OSM   H12T14154   4.365   2.047  13.208
  131OSM   C13S14155   4.310   2.233  13.110
  131OSM   H13S14156   4.262   2.329  13.134
  131OSM   H13T14157   4.244   2.178  13.038
  131OSM   C14S14158   4.445   2.264  13.043
  131OSM   H14S14159   4.504   2.172  13.029
  131OSM   H14T14160   4.502   2.331  13.111
  131OSM   C15S14161   4.441   2.331  12.903
  131OSM   H15S14162   4.547   2.342  12.873
  131OSM   H15T14163   4.397   2.433  12.909
  131OSM   C16S14164   4.373   2.251  12.790
  131OSM   H16S14165   4.375   2.318  12.701
  131OSM   H16T14166   4.266   2.232  12.814
  131OSM   C17S14167   4.441   2.119  12.747
  131OSM   H17S14168   4.551   2.131  12.741
  131OSM   H17T14169   4.405   2.099  12.644
  131OSM   C18S14170   4.408   1.995  12.833
  131OSM   H18S14171   4.443   1.901  12.787
  131OSM   H18T14172   4.298   1.986  12.847
  131OSM   H18U14173   4.454   2.004  12.933
  131OSM    C1F14174   4.262   1.799  14.403
  131OSM     OF14175   4.196   1.784  14.505
  131OSM    C2F14176   4.286   1.686  14.314
  131OSM    H2F14177   4.344   1.623  14.378
  131OSM    H2G14178   4.352   1.712  14.229
  131OSM    C3F14179   4.154   1.618  14.283
  131OSM    H3F14180   4.098   1.593  14.375
  131OSM    H3G14181   4.157   1.523  14.233
  131OSM    C4F14182   4.071   1.688  14.179
  131OSM    H4F14183   4.027   1.775  14.230
  131OSM    H4G14184   3.994   1.612  14.153
  131OSM    C5F14185   4.147   1.723  14.050
  131OSM    H5F14186   4.184   1.630  14.002
  131OSM    H5G14187   4.233   1.791  14.068
  131OSM    C6F14188   4.055   1.788  13.949
  131OSM    H6F14189   3.985   1.711  13.911
  131OSM    H6G14190   4.112   1.824  13.860
  131OSM    C7F14191   3.976   1.904  14.010
  131OSM    H7F14192   4.042   1.973  14.067
  131OSM    H7G14193   3.889   1.877  14.073
  131OSM    C8F14194   3.927   1.987  13.899
  131OSM    H8F14195   4.022   2.031  13.863
  131OSM    H8G14196   3.858   2.068  13.936
  131OSM    C9F14197   3.866   1.906  13.790
  131OSM    H9F14198   3.773   1.868  13.827
  131OSM   C10F14199   3.887   1.888  13.658
  131OSM   H10F14200   3.809   1.837  13.600
  131OSM   C11F14201   3.991   1.955  13.576
  131OSM   H11F14202   4.069   1.990  13.646
  131OSM   H11G14203   3.947   2.038  13.522
  131OSM   C12F14204   4.038   1.890  13.448
  131OSM   H12F14205   4.114   1.958  13.403
  131OSM   H12G14206   3.954   1.881  13.375
  131OSM   C13F14207   4.098   1.759  13.488
  131OSM   H13F14208   4.023   1.705  13.550
  131OSM   H13G14209   4.183   1.786  13.554
  131OSM   C14F14210   4.145   1.671  13.372
  131OSM   H14F14211   4.057   1.629  13.318
  131OSM   H14G14212   4.197   1.587  13.422
  131OSM   C15F14213   4.233   1.749  13.272
  131OSM   H15F14214   4.286   1.831  13.325
  131OSM   H15G14215   4.173   1.791  13.189
  131OSM   C16F14216   4.347   1.673  13.207
  131OSM   H16F14217   4.311   1.582  13.153
  131OSM   H16G14218   4.403   1.633  13.297
  131OSM   C17F14219   4.443   1.766  13.119
  131OSM   H17F14220   4.522   1.799  13.193
  131OSM   H17G14221   4.382   1.847  13.078
  131OSM   C18F14222   4.517   1.714  12.992
  131OSM   H18F14223   4.608   1.662  13.023
  131OSM   H18G14224   4.582   1.765  12.921
  131OSM   H18H14225   4.448   1.642  12.944
  132OSM      N14226   5.316   5.214  15.008
  132OSM    C1514227   5.251   5.273  15.131
  132OSM   H15A14228   5.146   5.246  15.135
  132OSM   H15B14229   5.258   5.381  15.128
  132OSM   H15C14230   5.298   5.237  15.221
  132OSM    C1414231   5.460   5.253  15.010
  132OSM   H14A14232   5.511   5.211  14.925
  132OSM   H14B14233   5.507   5.222  15.103
  132OSM   H14C14234   5.464   5.361  14.998
  132OSM    C1314235   5.308   5.065  15.014
  132OSM   H13A14236   5.317   5.028  15.116
  132OSM   H13B14237   5.392   5.019  14.964
  132OSM   H13C14238   5.216   5.025  14.972
  132OSM    C1214239   5.248   5.271  14.883
  132OSM   H12A14240   5.146   5.234  14.878
  132OSM   H12B14241   5.292   5.234  14.791
  132OSM    C1114242   5.245   5.426  14.868
  132OSM   H11A14243   5.212   5.473  14.962
  132OSM   H11B14244   5.169   5.454  14.791
  132OSM      P14245   5.415   5.494  14.681
  132OSM    O1314246   5.539   5.570  14.668
  132OSM    O1414247   5.409   5.359  14.621
  132OSM    O1114248   5.296   5.580  14.620
  132OSM    O1214249   5.374   5.478  14.834
  132OSM    C1S14250   5.305   5.638  14.489
  132OSM    H1S14251   5.400   5.694  14.475
  132OSM    H1T14252   5.224   5.715  14.482
  132OSM     NF14253   5.278   5.606  14.245
  132OSM    HNF14254   5.190   5.618  14.200
  132OSM    C2S14255   5.284   5.533  14.372
  132OSM    H2S14256   5.364   5.458  14.367
  132OSM    C3S14257   5.153   5.455  14.406
  132OSM    H3S14258   5.097   5.548  14.420
  132OSM     O314259   5.140   5.386  14.526
  132OSM    HO314260   5.213   5.426  14.575
  132OSM    C4S14261   5.122   5.359  14.285
  132OSM    H4S14262   5.206   5.315  14.234
  132OSM    C5S14263   5.001   5.317  14.234
  132OSM    H5S14264   4.899   5.346  14.264
  132OSM    C6S14265   4.959   5.239  14.122
  132OSM    H6S14266   4.848   5.264  14.106
  132OSM    H6T14267   4.985   5.147  14.168
  132OSM    C7S14268   5.015   5.251  13.984
  132OSM    H7S14269   4.959   5.210  13.901
  132OSM    H7T14270   5.124   5.243  13.980
  132OSM    C8S14271   4.989   5.379  13.933
  132OSM    H8S14272   5.050   5.434  14.004
  132OSM    H8T14273   4.881   5.407  13.949
  132OSM    C9S14274   5.035   5.397  13.789
  132OSM    H9S14275   5.025   5.495  13.810
  132OSM    H9T14276   4.956   5.407  13.713
  132OSM   C10S14277   5.187   5.404  13.754
  132OSM   H10S14278   5.222   5.311  13.799
  132OSM   H10T14279   5.255   5.478  13.804
  132OSM   C11S14280   5.214   5.412  13.604
  132OSM   H11S14281   5.170   5.494  13.556
  132OSM   H11T14282   5.153   5.337  13.554
  132OSM   C12S14283   5.359   5.433  13.555
  132OSM   H12S14284   5.418   5.363  13.616
  132OSM   H12T14285   5.398   5.536  13.575
  132OSM   C13S14286   5.375   5.414  13.403
  132OSM   H13S14287   5.481   5.422  13.374
  132OSM   H13T14288   5.322   5.498  13.353
  132OSM   C14S14289   5.315   5.286  13.347
  132OSM   H14S14290   5.205   5.296  13.347
  132OSM   H14T14291   5.336   5.206  13.423
  132OSM   C15S14292   5.354   5.234  13.205
  132OSM   H15S14293   5.292   5.145  13.178
  132OSM   H15T14294   5.462   5.215  13.205
  132OSM   C16S14295   5.327   5.322  13.086
  132OSM   H16S14296   5.383   5.418  13.094
  132OSM   H16T14297   5.215   5.324  13.100
  132OSM   C17S14298   5.318   5.270  12.944
  132OSM   H17S14299   5.220   5.216  12.936
  132OSM   H17T14300   5.402   5.199  12.937
  132OSM   C18S14301   5.330   5.373  12.831
  132OSM   H18S14302   5.430   5.421  12.833
  132OSM   H18T14303   5.255   5.455  12.830
  132OSM   H18U14304   5.320   5.316  12.736
  132OSM    C1F14305   5.386   5.650  14.187
  132OSM     OF14306   5.493   5.616  14.230
  132OSM    C2F14307   5.380   5.751  14.080
  132OSM    H2F14308   5.386   5.828  14.154
  132OSM    H2G14309   5.294   5.779  14.023
  132OSM    C3F14310   5.498   5.748  13.983
  132OSM    H3F14311   5.507   5.647  13.944
  132OSM    H3G14312   5.587   5.773  14.042
  132OSM    C4F14313   5.486   5.836  13.858
  132OSM    H4F14314   5.573   5.876  13.807
  132OSM    H4G14315   5.442   5.922  13.900
  132OSM    C5F14316   5.379   5.791  13.766
  132OSM    H5F14317   5.298   5.824  13.832
  132OSM    H5G14318   5.380   5.686  13.731
  132OSM    C6F14319   5.369   5.865  13.638
  132OSM    H6F14320   5.440   5.945  13.627
  132OSM    H6G14321   5.303   5.937  13.656
  132OSM    C7F14322   5.240   5.853  13.563
  132OSM    H7F14323   5.152   5.926  13.558
  132OSM    H7G14324   5.190   5.801  13.642
  132OSM    C8F14325   5.291   5.786  13.438
  132OSM    H8F14326   5.205   5.772  13.378
  132OSM    H8G14327   5.332   5.700  13.490
  132OSM    C9F14328   5.407   5.812  13.347
  132OSM    H9F14329   5.465   5.888  13.403
  132OSM   C10F14330   5.397   5.830  13.211
  132OSM   H10F14331   5.437   5.921  13.173
  132OSM   C11F14332   5.279   5.831  13.119
  132OSM   H11F14333   5.185   5.889  13.144
  132OSM   H11G14334   5.260   5.737  13.140
  132OSM   C12F14335   5.285   5.834  12.968
  132OSM   H12F14336   5.315   5.929  12.927
  132OSM   H12G14337   5.185   5.828  12.918
  132OSM   C13F14338   5.400   5.753  12.921
  132OSM   H13F14339   5.367   5.649  12.925
  132OSM   H13G14340   5.490   5.766  12.987
  132OSM   C14F14341   5.431   5.806  12.784
  132OSM   H14F14342   5.477   5.907  12.792
  132OSM   H14G14343   5.333   5.818  12.732
  132OSM   C15F14344   5.527   5.717  12.713
  132OSM   H15F14345   5.478   5.620  12.693
  132OSM   H15G14346   5.612   5.700  12.783
  132OSM   C16F14347   5.580   5.786  12.589
  132OSM   H16F14348   5.642   5.871  12.617
  132OSM   H16G14349   5.503   5.828  12.525
  132OSM   C17F14350   5.660   5.699  12.499
  132OSM   H17F14351   5.721   5.643  12.568
  132OSM   H17G14352   5.725   5.763  12.434
  132OSM   C18F14353   5.574   5.599  12.423
  132OSM   H18F14354   5.483   5.645  12.385
  132OSM   H18G14355   5.560   5.508  12.485
  132OSM   H18H14356   5.615   5.562  12.330
  133OSM      N14357   2.287   5.812  14.939
  133OSM    C1514358   2.140   5.838  14.933
  133OSM   H15A14359   2.101   5.855  15.032
  133OSM   H15B14360   2.094   5.748  14.892
  133OSM   H15C14361   2.116   5.920  14.868
  133OSM    C1414362   2.363   5.940  14.947
  133OSM   H14A14363   2.335   5.999  15.032
  133OSM   H14B14364   2.350   5.998  14.855
  133OSM   H14C14365   2.470   5.920  14.953
  133OSM    C1314366   2.312   5.726  15.060
  133OSM   H13A14367   2.414   5.690  15.058
  133OSM   H13B14368   2.244   5.640  15.058
  133OSM   H13C14369   2.293   5.777  15.154
  133OSM    C1214370   2.333   5.743  14.811
  133OSM   H12A14371   2.439   5.761  14.794
  133OSM   H12B14372   2.284   5.789  14.725
  133OSM    C1114373   2.309   5.591  14.800
  133OSM   H11A14374   2.369   5.537  14.876
  133OSM   H11B14375   2.348   5.560  14.699
  133OSM      P14376   2.130   5.412  14.772
  133OSM    O1314377   2.246   5.324  14.799
  133OSM    O1414378   2.000   5.384  14.835
  133OSM    O1114379   2.114   5.436  14.616
  133OSM    O1214380   2.171   5.559  14.815
  133OSM    C1S14381   2.203   5.370  14.527
  133OSM    H1S14382   2.183   5.262  14.536
  133OSM    H1T14383   2.310   5.381  14.555
  133OSM     NF14384   2.234   5.343  14.280
  133OSM    HNF14385   2.310   5.368  14.222
  133OSM    C2S14386   2.186   5.427  14.382
  133OSM    H2S14387   2.076   5.437  14.365
  133OSM    C3S14388   2.255   5.563  14.359
  133OSM    H3S14389   2.365   5.543  14.360
  133OSM     O314390   2.228   5.661  14.458
  133OSM    HO314391   2.174   5.613  14.523
  133OSM    C4S14392   2.213   5.620  14.225
  133OSM    H4S14393   2.108   5.651  14.222
  133OSM    C5S14394   2.290   5.642  14.115
  133OSM    H5S14395   2.396   5.615  14.119
  133OSM    C6S14396   2.242   5.699  13.982
  133OSM    H6S14397   2.264   5.623  13.905
  133OSM    H6T14398   2.302   5.788  13.952
  133OSM    C7S14399   2.091   5.735  13.970
  133OSM    H7S14400   2.070   5.825  14.033
  133OSM    H7T14401   2.030   5.653  14.013
  133OSM    C8S14402   2.037   5.765  13.828
  133OSM    H8S14403   2.087   5.855  13.786
  133OSM    H8T14404   1.929   5.790  13.842
  133OSM    C9S14405   2.044   5.655  13.720
  133OSM    H9S14406   1.999   5.561  13.758
  133OSM    H9T14407   2.150   5.636  13.692
  133OSM   C10S14408   1.974   5.698  13.590
  133OSM   H10S14409   2.018   5.794  13.556
  133OSM   H10T14410   1.865   5.715  13.608
  133OSM   C11S14411   1.989   5.599  13.473
  133OSM   H11S14412   1.929   5.509  13.499
  133OSM   H11T14413   2.095   5.569  13.459
  133OSM   C12S14414   1.938   5.661  13.342
  133OSM   H12S14415   2.014   5.732  13.303
  133OSM   H12T14416   1.846   5.720  13.364
  133OSM   C13S14417   1.907   5.558  13.233
  133OSM   H13S14418   1.852   5.471  13.276
  133OSM   H13T14419   2.005   5.523  13.194
  133OSM   C14S14420   1.821   5.620  13.121
  133OSM   H14S14421   1.833   5.731  13.129
  133OSM   H14T14422   1.714   5.596  13.141
  133OSM   C15S14423   1.856   5.580  12.977
  133OSM   H15S14424   1.824   5.475  12.959
  133OSM   H15T14425   1.966   5.588  12.960
  133OSM   C16S14426   1.785   5.669  12.874
  133OSM   H16S14427   1.837   5.768  12.865
  133OSM   H16T14428   1.679   5.686  12.900
  133OSM   C17S14429   1.791   5.608  12.737
  133OSM   H17S14430   1.741   5.511  12.717
  133OSM   H17T14431   1.897   5.583  12.729
  133OSM   C18S14432   1.744   5.707  12.634
  133OSM   H18S14433   1.651   5.757  12.663
  133OSM   H18T14434   1.724   5.648  12.542
  133OSM   H18U14435   1.818   5.787  12.610
  133OSM    C1F14436   2.190   5.227  14.258
  133OSM     OF14437   2.134   5.165  14.349
  133OSM    C2F14438   2.239   5.180  14.122
  133OSM    H2F14439   2.288   5.101  14.158
  133OSM    H2G14440   2.324   5.236  14.088
  133OSM    C3F14441   2.161   5.137  13.995
  133OSM    H3F14442   2.116   5.042  13.996
  133OSM    H3G14443   2.205   5.068  13.920
  133OSM    C4F14444   2.063   5.246  13.964
  133OSM    H4F14445   2.020   5.291  14.057
  133OSM    H4G14446   1.976   5.219  13.900
  133OSM    C5F14447   2.142   5.337  13.885
  133OSM    H5F14448   2.238   5.346  13.938
  133OSM    H5G14449   2.085   5.431  13.891
  133OSM    C6F14450   2.152   5.276  13.746
  133OSM    H6F14451   2.052   5.284  13.698
  133OSM    H6G14452   2.176   5.167  13.748
  133OSM    C7F14453   2.250   5.349  13.659
  133OSM    H7F14454   2.228   5.457  13.649
  133OSM    H7G14455   2.242   5.308  13.556
  133OSM    C8F14456   2.391   5.339  13.713
  133OSM    H8F14457   2.447   5.374  13.624
  133OSM    H8G14458   2.417   5.232  13.731
  133OSM    C9F14459   2.442   5.424  13.826
  133OSM    H9F14460   2.447   5.369  13.921
  133OSM   C10F14461   2.505   5.542  13.813
  133OSM   H10F14462   2.542   5.590  13.905
  133OSM   C11F14463   2.537   5.615  13.684
  133OSM   H11F14464   2.557   5.724  13.703
  133OSM   H11G14465   2.450   5.607  13.617
  133OSM   C12F14466   2.662   5.570  13.606
  133OSM   H12F14467   2.671   5.464  13.586
  133OSM   H12G14468   2.754   5.591  13.656
  133OSM   C13F14469   2.676   5.629  13.471
  133OSM   H13F14470   2.781   5.622  13.432
  133OSM   H13G14471   2.635   5.731  13.463
  133OSM   C14F14472   2.601   5.545  13.380
  133OSM   H14F14473   2.493   5.526  13.402
  133OSM   H14G14474   2.654   5.445  13.390
  133OSM   C15F14475   2.624   5.612  13.246
  133OSM   H15F14476   2.631   5.520  13.209
  133OSM   H15G14477   2.724   5.619  13.199
  133OSM   C16F14478   2.510   5.697  13.185
  133OSM   H16F14479   2.565   5.763  13.115
  133OSM   H16G14480   2.474   5.746  13.277
  133OSM   C17F14481   2.381   5.654  13.105
  133OSM   H17F14482   2.299   5.723  13.133
  133OSM   H17G14483   2.332   5.557  13.132
  133OSM   C18F14484   2.403   5.664  12.953
  133OSM   H18F14485   2.490   5.605  12.916
  133OSM   H18G14486   2.427   5.767  12.923
  133OSM   H18H14487   2.313   5.626  12.899
  134OSM      N14488   1.409   2.562  14.837
  134OSM    C1514489   1.438   2.454  14.739
  134OSM   H15A14490   1.521   2.394  14.774
  134OSM   H15B14491   1.464   2.497  14.643
  134OSM   H15C14492   1.354   2.388  14.723
  134OSM    C1414493   1.280   2.627  14.797
  134OSM   H14A14494   1.296   2.725  14.753
  134OSM   H14B14495   1.219   2.649  14.885
  134OSM   H14C14496   1.225   2.565  14.728
  134OSM    C1314497   1.395   2.512  14.977
  134OSM   H13A14498   1.488   2.473  15.016
  134OSM   H13B14499   1.319   2.436  14.984
  134OSM   H13C14500   1.365   2.597  15.040
  134OSM    C1214501   1.526   2.660  14.833
  134OSM   H12A14502   1.542   2.699  14.733
  134OSM   H12B14503   1.615   2.605  14.859
  134OSM    C1114504   1.518   2.783  14.925
  134OSM   H11A14505   1.611   2.840  14.917
  134OSM   H11B14506   1.512   2.747  15.031
  134OSM      P14507   1.421   3.020  14.845
  134OSM    O1314508   1.292   3.085  14.866
  134OSM    O1414509   1.545   3.079  14.901
  134OSM    O1114510   1.448   3.007  14.687
  134OSM    O1214511   1.408   2.867  14.890
  134OSM    C1S14512   1.387   2.904  14.610
  134OSM    H1S14513   1.282   2.891  14.641
  134OSM    H1T14514   1.439   2.807  14.625
  134OSM     NF14515   1.313   2.841  14.388
  134OSM    HNF14516   1.364   2.788  14.322
  134OSM    C2S14517   1.387   2.940  14.459
  134OSM    H2S14518   1.336   3.038  14.444
  134OSM    C3S14519   1.527   2.949  14.396
  134OSM    H3S14520   1.574   2.849  14.403
  134OSM     O314521   1.615   3.033  14.466
  134OSM    HO314522   1.561   3.066  14.540
  134OSM    C4S14523   1.502   2.981  14.248
  134OSM    H4S14524   1.472   3.083  14.221
  134OSM    C5S14525   1.526   2.891  14.151
  134OSM    H5S14526   1.589   2.806  14.179
  134OSM    C6S14527   1.501   2.907  14.005
  134OSM    H6S14528   1.455   3.005  13.991
  134OSM    H6T14529   1.410   2.850  13.979
  134OSM    C7S14530   1.610   2.857  13.905
  134OSM    H7S14531   1.710   2.902  13.927
  134OSM    H7T14532   1.589   2.884  13.799
  134OSM    C8S14533   1.626   2.705  13.913
  134OSM    H8S14534   1.644   2.680  14.020
  134OSM    H8T14535   1.715   2.671  13.856
  134OSM    C9S14536   1.507   2.626  13.855
  134OSM    H9S14537   1.410   2.671  13.885
  134OSM    H9T14538   1.511   2.523  13.898
  134OSM   C10S14539   1.515   2.606  13.703
  134OSM   H10S14540   1.602   2.539  13.683
  134OSM   H10T14541   1.537   2.703  13.654
  134OSM   C11S14542   1.385   2.543  13.648
  134OSM   H11S14543   1.300   2.611  13.672
  134OSM   H11T14544   1.364   2.449  13.704
  134OSM   C12S14545   1.383   2.509  13.497
  134OSM   H12S14546   1.279   2.473  13.476
  134OSM   H12T14547   1.453   2.426  13.473
  134OSM   C13S14548   1.418   2.626  13.404
  134OSM   H13S14549   1.525   2.650  13.414
  134OSM   H13T14550   1.356   2.714  13.432
  134OSM   C14S14551   1.392   2.596  13.257
  134OSM   H14S14552   1.449   2.509  13.217
  134OSM   H14T14553   1.420   2.686  13.196
  134OSM   C15S14554   1.246   2.567  13.243
  134OSM   H15S14555   1.194   2.647  13.298
  134OSM   H15T14556   1.218   2.467  13.284
  134OSM   C16S14557   1.203   2.572  13.103
  134OSM   H16S14558   1.196   2.673  13.062
  134OSM   H16T14559   1.101   2.525  13.096
  134OSM   C17S14560   1.299   2.504  13.014
  134OSM   H17S14561   1.282   2.403  13.052
  134OSM   H17T14562   1.404   2.524  13.000
  134OSM   C18S14563   1.251   2.540  12.883
  134OSM   H18S14564   1.153   2.503  12.911
  134OSM   H18T14565   1.297   2.496  12.794
  134OSM   H18U14566   1.201   2.628  12.853
  134OSM    C1F14567   1.187   2.819  14.401
  134OSM     OF14568   1.115   2.870  14.485
  134OSM    C2F14569   1.141   2.722  14.303
  134OSM    H2F14570   1.099   2.634  14.356
  134OSM    H2G14571   1.220   2.690  14.232
  134OSM    C3F14572   1.032   2.787  14.224
  134OSM    H3F14573   0.956   2.818  14.301
  134OSM    H3G14574   1.007   2.703  14.155
  134OSM    C4F14575   1.051   2.897  14.125
  134OSM    H4F14576   1.134   2.957  14.166
  134OSM    H4G14577   0.956   2.957  14.122
  134OSM    C5F14578   1.086   2.842  13.985
  134OSM    H5F14579   1.002   2.789  13.934
  134OSM    H5G14580   1.161   2.762  14.005
  134OSM    C6F14581   1.168   2.946  13.905
  134OSM    H6F14582   1.221   2.898  13.821
  134OSM    H6G14583   1.235   2.991  13.981
  134OSM    C7F14584   1.101   3.073  13.852
  134OSM    H7F14585   1.038   3.121  13.928
  134OSM    H7G14586   1.055   2.995  13.791
  134OSM    C8F14587   1.107   3.144  13.716
  134OSM    H8F14588   1.042   3.228  13.694
  134OSM    H8G14589   1.100   3.070  13.630
  134OSM    C9F14590   1.228   3.196  13.758
  134OSM    H9F14591   1.252   3.266  13.839
  134OSM   C10F14592   1.314   3.145  13.685
  134OSM   H10F14593   1.394   3.161  13.756
  134OSM   C11F14594   1.316   3.047  13.566
  134OSM   H11F14595   1.293   2.940  13.580
  134OSM   H11G14596   1.416   3.007  13.550
  134OSM   C12F14597   1.261   3.112  13.432
  134OSM   H12F14598   1.314   3.205  13.394
  134OSM   H12G14599   1.161   3.149  13.445
  134OSM   C13F14600   1.274   3.005  13.325
  134OSM   H13F14601   1.270   2.897  13.333
  134OSM   H13G14602   1.375   2.998  13.362
  134OSM   C14F14603   1.238   3.042  13.180
  134OSM   H14F14604   1.284   3.133  13.145
  134OSM   H14G14605   1.131   3.069  13.183
  134OSM   C15F14606   1.264   2.931  13.074
  134OSM   H15F14607   1.210   2.846  13.104
  134OSM   H15G14608   1.363   2.883  13.071
  134OSM   C16F14609   1.221   2.971  12.935
  134OSM   H16F14610   1.286   3.053  12.915
  134OSM   H16G14611   1.120   3.015  12.937
  134OSM   C17F14612   1.261   2.889  12.812
  134OSM   H17F14613   1.256   2.787  12.836
  134OSM   H17G14614   1.367   2.902  12.785
  134OSM   C18F14615   1.167   2.893  12.696
  134OSM   H18F14616   1.076   2.946  12.721
  134OSM   H18G14617   1.195   2.845  12.604
  134OSM   H18H14618   1.170   2.969  12.621
  135OSM      N14619   1.757   2.051  15.016
  135OSM    C1514620   1.895   2.103  15.047
  135OSM   H15A14621   1.963   2.097  14.962
  135OSM   H15B14622   1.941   2.050  15.129
  135OSM   H15C14623   1.895   2.209  15.072
  135OSM    C1414624   1.768   1.908  14.975
  135OSM   H14A14625   1.817   1.848  15.050
  135OSM   H14B14626   1.828   1.896  14.883
  135OSM   H14C14627   1.672   1.866  14.949
  135OSM    C1314628   1.680   2.066  15.143
  135OSM   H13A14629   1.590   2.007  15.145
  135OSM   H13B14630   1.652   2.169  15.158
  135OSM   H13C14631   1.740   2.039  15.230
  135OSM    C1214632   1.688   2.131  14.906
  135OSM   H12A14633   1.679   2.233  14.942
  135OSM   H12B14634   1.589   2.091  14.897
  135OSM    C1114635   1.745   2.137  14.761
  135OSM   H11A14636   1.699   2.223  14.707
  135OSM   H11B14637   1.712   2.047  14.704
  135OSM      P14638   1.984   2.044  14.697
  135OSM    O1314639   2.120   2.069  14.746
  135OSM    O1414640   1.920   1.913  14.720
  135OSM    O1114641   1.977   2.077  14.543
  135OSM    O1214642   1.886   2.155  14.759
  135OSM    C1S14643   1.986   2.212  14.497
  135OSM    H1S14644   2.087   2.255  14.519
  135OSM    H1T14645   1.907   2.273  14.540
  135OSM     NF14646   2.105   2.181  14.299
  135OSM    HNF14647   2.163   2.219  14.236
  135OSM    C2S14648   1.980   2.228  14.343
  135OSM    H2S14649   1.884   2.175  14.306
  135OSM    C3S14650   1.974   2.369  14.304
  135OSM    H3S14651   2.074   2.407  14.335
  135OSM     O314652   1.871   2.440  14.367
  135OSM    HO314653   1.853   2.383  14.442
  135OSM    C4S14654   1.971   2.377  14.153
  135OSM    H4S14655   2.072   2.385  14.109
  135OSM    C5S14656   1.865   2.370  14.073
  135OSM    H5S14657   1.766   2.348  14.116
  135OSM    C6S14658   1.872   2.381  13.924
  135OSM    H6S14659   1.811   2.470  13.896
  135OSM    H6T14660   1.822   2.291  13.884
  135OSM    C7S14661   2.009   2.398  13.853
  135OSM    H7S14662   2.079   2.321  13.888
  135OSM    H7T14663   2.054   2.496  13.881
  135OSM    C8S14664   1.996   2.393  13.698
  135OSM    H8S14665   2.080   2.450  13.653
  135OSM    H8T14666   1.903   2.448  13.671
  135OSM    C9S14667   1.995   2.250  13.639
  135OSM    H9S14668   1.921   2.187  13.693
  135OSM    H9T14669   2.095   2.205  13.658
  135OSM   C10S14670   1.970   2.237  13.487
  135OSM   H10S14671   1.941   2.132  13.462
  135OSM   H10T14672   2.065   2.256  13.432
  135OSM   C11S14673   1.859   2.327  13.431
  135OSM   H11S14674   1.889   2.433  13.444
  135OSM   H11T14675   1.770   2.307  13.495
  135OSM   C12S14676   1.826   2.296  13.283
  135OSM   H12S14677   1.716   2.308  13.267
  135OSM   H12T14678   1.849   2.189  13.262
  135OSM   C13S14679   1.896   2.387  13.180
  135OSM   H13S14680   1.994   2.422  13.220
  135OSM   H13T14681   1.834   2.476  13.161
  135OSM   C14S14682   1.935   2.318  13.048
  135OSM   H14S14683   1.976   2.218  13.072
  135OSM   H14T14684   2.019   2.376  13.002
  135OSM   C15S14685   1.828   2.304  12.940
  135OSM   H15S14686   1.773   2.398  12.921
  135OSM   H15T14687   1.758   2.223  12.970
  135OSM   C16S14688   1.894   2.258  12.810
  135OSM   H16S14689   1.966   2.178  12.837
  135OSM   H16T14690   1.949   2.341  12.761
  135OSM   C17S14691   1.790   2.205  12.714
  135OSM   H17S14692   1.716   2.287  12.694
  135OSM   H17T14693   1.733   2.119  12.756
  135OSM   C18S14694   1.848   2.166  12.580
  135OSM   H18S14695   1.888   2.254  12.526
  135OSM   H18T14696   1.763   2.132  12.525
  135OSM   H18U14697   1.918   2.080  12.580
  135OSM    C1F14698   2.120   2.068  14.281
  135OSM     OF14699   2.002   2.013  14.291
  135OSM    C2F14700   2.285   1.992  14.182
  135OSM    H2F14701   2.350   1.939  14.240
  135OSM    H2G14702   2.335   2.076  14.150
  135OSM    C3F14703   2.216   1.839  14.035
  135OSM    H3F14704   2.102   1.786  14.065
  135OSM    H3G14705   2.274   1.753  14.035
  135OSM    C4F14706   2.048   1.826  13.989
  135OSM    H4F14707   2.137   1.850  13.928
  135OSM    H4G14708   1.969   1.915  13.999
  135OSM    C5F14709   1.964   1.799  13.877
  135OSM    H5F14710   1.894   1.876  13.837
  135OSM    H5G14711   1.911   1.746  13.959
  135OSM    C6F14712   2.041   1.734  13.772
  135OSM    H6F14713   1.994   1.655  13.734
  135OSM    H6G14714   2.130   1.686  13.818
  135OSM    C7F14715   2.033   1.802  13.636
  135OSM    H7F14716   2.123   1.740  13.618
  135OSM    H7G14717   2.051   1.911  13.634
  135OSM    C8F14718   2.000   1.774  13.499
  135OSM    H8F14719   2.048   1.681  13.465
  135OSM    H8G14720   2.045   1.860  13.442
  135OSM    C9F14721   1.856   1.782  13.535
  135OSM    H9F14722   1.829   1.847  13.620
  135OSM   C10F14723   1.764   1.728  13.458
  135OSM   H10F14724   1.659   1.746  13.472
  135OSM   C11F14725   1.796   1.659  13.333
  135OSM   H11F14726   1.778   1.550  13.345
  135OSM   H11G14727   1.900   1.686  13.314
  135OSM   C12F14728   1.755   1.715  13.199
  135OSM   H12F14729   1.645   1.721  13.202
  135OSM   H12G14730   1.780   1.647  13.116
  135OSM   C13F14731   1.831   1.845  13.166
  135OSM   H13F14732   1.825   1.913  13.254
  135OSM   H13G14733   1.772   1.888  13.083
  135OSM   C14F14734   1.977   1.830  13.117
  135OSM   H14F14735   1.990   1.730  13.073
  135OSM   H14G14736   2.052   1.834  13.198
  135OSM   C15F14737   2.020   1.928  13.007
  135OSM   H15F14738   2.005   2.029  13.048
  135OSM   H15G14739   1.955   1.916  12.917
  135OSM   C16F14740   2.166   1.912  12.964
  135OSM   H16F14741   2.176   1.808  12.924
  135OSM   H16G14742   2.234   1.922  13.051
  135OSM   C17F14743   2.210   2.009  12.853
  135OSM   H17F14744   2.136   2.012  12.771
  135OSM   H17G14745   2.297   1.968  12.801
  135OSM   C18F14746   2.254   2.147  12.903
  135OSM   H18F14747   2.314   2.203  12.828
  135OSM   H18G14748   2.316   2.133  12.994
  135OSM   H18H14749   2.165   2.206  12.929
  136OSM      N14750   6.457   4.126  14.961
  136OSM    C1514751   6.547   4.015  14.917
  136OSM   H15A14752   6.593   3.965  15.001
  136OSM   H15B14753   6.627   4.050  14.852
  136OSM   H15C14754   6.487   3.943  14.860
  136OSM    C1414755   6.359   4.064  15.057
  136OSM   H14A14756   6.408   4.017  15.142
  136OSM   H14B14757   6.300   3.988  15.006
  136OSM   H14C14758   6.290   4.138  15.094
  136OSM    C1314759   6.545   4.220  15.036
  136OSM   H13A14760   6.498   4.311  15.069
  136OSM   H13B14761   6.634   4.242  14.979
  136OSM   H13C14762   6.576   4.169  15.126
  136OSM    C1214763   6.382   4.186  14.842
  136OSM   H12A14764   6.435   4.270  14.802
  136OSM   H12B14765   6.283   4.221  14.874
  136OSM    C1114766   6.357   4.093  14.720
  136OSM   H11A14767   6.456   4.058  14.683
  136OSM   H11B14768   6.314   4.149  14.634
  136OSM      P14769   6.120   3.995  14.771
  136OSM    O1314770   6.064   3.864  14.812
  136OSM    O1414771   6.089   4.114  14.852
  136OSM    O1114772   6.083   4.033  14.623
  136OSM    O1214773   6.279   3.979  14.757
  136OSM    C1S14774   6.103   3.934  14.526
  136OSM    H1S14775   6.052   3.848  14.569
  136OSM    H1T14776   6.209   3.898  14.516
  136OSM     NF14777   6.109   4.103  14.347
  136OSM    HNF14778   6.043   4.176  14.345
  136OSM    C2S14779   6.051   3.983  14.387
  136OSM    H2S14780   6.084   3.912  14.306
  136OSM    C3S14781   5.900   4.008  14.380
  136OSM    H3S14782   5.865   4.070  14.463
  136OSM     O314783   5.806   3.911  14.396
  136OSM    HO314784   5.860   3.832  14.400
  136OSM    C4S14785   5.862   4.049  14.247
  136OSM    H4S14786   5.863   4.157  14.235
  136OSM    C5S14787   5.825   3.971  14.144
  136OSM    H5S14788   5.785   3.868  14.155
  136OSM    C6S14789   5.785   4.046  14.030
  136OSM    H6S14790   5.710   4.128  14.052
  136OSM    H6T14791   5.750   3.982  13.952
  136OSM    C7S14792   5.883   4.071  13.938
  136OSM    H7S14793   5.952   4.133  13.999
  136OSM    H7T14794   5.819   4.117  13.853
  136OSM    C8S14795   5.996   3.987  13.908
  136OSM    H8S14796   6.025   3.930  13.998
  136OSM    H8T14797   6.085   4.045  13.876
  136OSM    C9S14798   5.957   3.921  13.787
  136OSM    H9S14799   5.857   3.875  13.804
  136OSM    H9T14800   6.038   3.845  13.791
  136OSM   C10S14801   5.965   4.000  13.652
  136OSM   H10S14802   5.885   4.076  13.644
  136OSM   H10T14803   5.928   3.963  13.558
  136OSM   C11S14804   6.111   4.016  13.610
  136OSM   H11S14805   6.191   3.966  13.666
  136OSM   H11T14806   6.124   4.105  13.670
  136OSM   C12S14807   6.141   4.025  13.455
  136OSM   H12S14808   6.207   4.110  13.430
  136OSM   H12T14809   6.050   4.044  13.394
  136OSM   C13S14810   6.224   3.912  13.405
  136OSM   H13S14811   6.166   3.820  13.411
  136OSM   H13T14812   6.308   3.901  13.476
  136OSM   C14S14813   6.276   3.927  13.264
  136OSM   H14S14814   6.372   3.982  13.261
  136OSM   H14T14815   6.207   3.979  13.194
  136OSM   C15S14816   6.307   3.790  13.214
  136OSM   H15S14817   6.220   3.727  13.183
  136OSM   H15T14818   6.350   3.736  13.295
  136OSM   C16S14819   6.426   3.795  13.123
  136OSM   H16S14820   6.428   3.687  13.094
  136OSM   H16T14821   6.525   3.832  13.152
  136OSM   C17S14822   6.391   3.886  13.014
  136OSM   H17S14823   6.467   3.879  12.929
  136OSM   H17T14824   6.354   3.989  13.021
  136OSM   C18S14825   6.259   3.836  12.980
  136OSM   H18S14826   6.328   3.755  12.955
  136OSM   H18T14827   6.230   3.870  12.885
  136OSM   H18U14828   6.188   3.754  13.003
  136OSM    C1F14829   6.234   4.121  14.325
  136OSM     OF14830   6.313   4.028  14.316
  136OSM    C2F14831   6.262   4.265  14.319
  136OSM    H2F14832   6.270   4.304  14.423
  136OSM    H2G14833   6.174   4.316  14.273
  136OSM    C3F14834   6.391   4.295  14.243
  136OSM    H3F14835   6.476   4.250  14.299
  136OSM    H3G14836   6.404   4.405  14.238
  136OSM    C4F14837   6.400   4.240  14.101
  136OSM    H4F14838   6.407   4.129  14.102
  136OSM    H4G14839   6.496   4.282  14.064
  136OSM    C5F14840   6.285   4.284  14.012
  136OSM    H5F14841   6.270   4.394  14.021
  136OSM    H5G14842   6.194   4.232  14.048
  136OSM    C6F14843   6.308   4.251  13.864
  136OSM    H6F14844   6.233   4.307  13.807
  136OSM    H6G14845   6.296   4.141  13.848
  136OSM    C7F14846   6.434   4.308  13.803
  136OSM    H7F14847   6.521   4.260  13.853
  136OSM    H7G14848   6.435   4.417  13.824
  136OSM    C8F14849   6.442   4.290  13.651
  136OSM    H8F14850   6.527   4.353  13.621
  136OSM    H8G14851   6.362   4.341  13.596
  136OSM    C9F14852   6.448   4.146  13.608
  136OSM    H9F14853   6.398   4.071  13.670
  136OSM   C10F14854   6.508   4.107  13.496
  136OSM   H10F14855   6.517   4.000  13.470
  136OSM   C11F14856   6.574   4.210  13.407
  136OSM   H11F14857   6.679   4.203  13.390
  136OSM   H11G14858   6.589   4.303  13.456
  136OSM   C12F14859   6.528   4.223  13.266
  136OSM   H12F14860   6.518   4.121  13.224
  136OSM   H12G14861   6.608   4.282  13.212
  136OSM   C13F14862   6.394   4.285  13.260
  136OSM   H13F14863   6.396   4.377  13.322
  136OSM   H13G14864   6.326   4.210  13.304
  136OSM   C14F14865   6.355   4.310  13.117
  136OSM   H14F14866   6.347   4.211  13.066
  136OSM   H14G14867   6.432   4.373  13.067
  136OSM   C15F14868   6.222   4.376  13.105
  136OSM   H15F14869   6.221   4.483  13.136
  136OSM   H15G14870   6.153   4.314  13.166
  136OSM   C16F14871   6.170   4.360  12.967
  136OSM   H16F14872   6.063   4.367  12.967
  136OSM   H16G14873   6.180   4.259  12.922
  136OSM   C17F14874   6.218   4.466  12.879
  136OSM   H17F14875   6.327   4.458  12.854
  136OSM   H17G14876   6.195   4.571  12.911
  136OSM   C18F14877   6.138   4.432  12.762
  136OSM   H18F14878   6.218   4.464  12.693
  136OSM   H18G14879   6.041   4.489  12.756
  136OSM   H18H14880   6.128   4.333  12.717
  137OSM      N14881   2.250   1.160  14.788
  137OSM    C1514882   2.217   1.017  14.806
  137OSM   H15A14883   2.127   0.994  14.750
  137OSM   H15B14884   2.196   0.996  14.911
  137OSM   H15C14885   2.298   0.955  14.771
  137OSM    C1414886   2.276   1.194  14.644
  137OSM   H14A14887   2.267   1.302  14.630
  137OSM   H14B14888   2.204   1.145  14.580
  137OSM   H14C14889   2.375   1.167  14.611
  137OSM    C1314890   2.127   1.232  14.833
  137OSM   H13A14891   2.115   1.226  14.941
  137OSM   H13B14892   2.038   1.189  14.788
  137OSM   H13C14893   2.132   1.338  14.809
  137OSM    C1214894   2.370   1.192  14.877
  137OSM   H12A14895   2.453   1.126  14.855
  137OSM   H12B14896   2.339   1.167  14.979
  137OSM    C1114897   2.423   1.337  14.884
  137OSM   H11A14898   2.455   1.375  14.784
  137OSM   H11B14899   2.515   1.333  14.948
  137OSM      P14900   2.277   1.563  14.903
  137OSM    O1314901   2.178   1.617  14.999
  137OSM    O1414902   2.396   1.644  14.870
  137OSM    O1114903   2.203   1.526  14.765
  137OSM    O1214904   2.326   1.418  14.949
  137OSM    C1S14905   2.180   1.648  14.692
  137OSM    H1S14906   2.274   1.703  14.672
  137OSM    H1T14907   2.112   1.719  14.747
  137OSM     NF14908   2.131   1.719  14.481
  137OSM    HNF14909   2.061   1.794  14.481
  137OSM    C2S14910   2.107   1.623  14.560
  137OSM    H2S14911   2.147   1.534  14.505
  137OSM    C3S14912   1.967   1.627  14.572
  137OSM    H3S14913   1.916   1.715  14.609
  137OSM     O314914   1.945   1.547  14.686
  137OSM    HO314915   2.020   1.486  14.700
  137OSM    C4S14916   1.901   1.598  14.434
  137OSM    H4S14917   1.814   1.661  14.413
  137OSM    C5S14918   1.927   1.509  14.333
  137OSM    H5S14919   1.995   1.426  14.351
  137OSM    C6S14920   1.829   1.497  14.220
  137OSM    H6S14921   1.742   1.565  14.226
  137OSM    H6T14922   1.758   1.410  14.219
  137OSM    C7S14923   1.907   1.485  14.098
  137OSM    H7S14924   1.954   1.386  14.074
  137OSM    H7T14925   1.991   1.558  14.105
  137OSM    C8S14926   1.809   1.529  13.995
  137OSM    H8S14927   1.782   1.634  14.028
  137OSM    H8T14928   1.715   1.477  13.977
  137OSM    C9S14929   1.888   1.529  13.872
  137OSM    H9S14930   1.995   1.546  13.904
  137OSM    H9T14931   1.836   1.615  13.819
  137OSM   C10S14932   1.891   1.424  13.766
  137OSM   H10S14933   1.788   1.425  13.727
  137OSM   H10T14934   1.919   1.332  13.820
  137OSM   C11S14935   1.996   1.451  13.653
  137OSM   H11S14936   2.098   1.434  13.691
  137OSM   H11T14937   1.986   1.545  13.599
  137OSM   C12S14938   1.980   1.371  13.531
  137OSM   H12S14939   1.880   1.394  13.487
  137OSM   H12T14940   1.985   1.285  13.591
  137OSM   C13S14941   2.103   1.342  13.443
  137OSM   H13S14942   2.080   1.254  13.379
  137OSM   H13T14943   2.183   1.311  13.511
  137OSM   C14S14944   2.158   1.455  13.359
  137OSM   H14S14945   2.225   1.427  13.275
  137OSM   H14T14946   2.197   1.535  13.425
  137OSM   C15S14947   2.053   1.522  13.288
  137OSM   H15S14948   2.068   1.616  13.231
  137OSM   H15T14949   1.986   1.538  13.375
  137OSM   C16S14950   1.976   1.436  13.205
  137OSM   H16S14951   1.915   1.515  13.158
  137OSM   H16T14952   1.896   1.410  13.270
  137OSM   C17S14953   2.030   1.318  13.120
  137OSM   H17S14954   1.952   1.263  13.061
  137OSM   H17T14955   2.074   1.237  13.178
  137OSM   C18S14956   2.109   1.364  13.004
  137OSM   H18S14957   2.196   1.427  13.024
  137OSM   H18T14958   2.045   1.442  12.978
  137OSM   H18U14959   2.104   1.299  12.913
  137OSM    C1F14960   2.242   1.745  14.441
  137OSM     OF14961   2.346   1.684  14.427
  137OSM    C2F14962   2.207   1.863  14.395
  137OSM    H2F14963   2.288   1.935  14.415
  137OSM    H2G14964   2.130   1.917  14.456
  137OSM    C3F14965   2.137   1.835  14.247
  137OSM    H3F14966   2.111   1.733  14.223
  137OSM    H3G14967   2.245   1.785  14.226
  137OSM    C4F14968   2.115   2.043  14.045
  137OSM    H4F14969   2.203   2.115  14.034
  137OSM    H4G14970   2.026   2.089  14.070
  137OSM    C5F14971   2.159   2.040  13.870
  137OSM    H5F14972   2.110   2.130  13.837
  137OSM    H5G14973   2.074   1.993  13.812
  137OSM    C6F14974   2.285   1.928  13.809
  137OSM    H6F14975   2.294   1.810  13.839
  137OSM    H6G14976   2.371   1.930  13.868
  137OSM    C7F14977   2.289   1.895  13.668
  137OSM    H7F14978   2.249   1.972  13.603
  137OSM    H7G14979   2.203   1.877  13.717
  137OSM    C8F14980   2.345   1.760  13.611
  137OSM    H8F14981   2.445   1.781  13.646
  137OSM    H8G14982   2.324   1.777  13.503
  137OSM    C9F14983   2.323   1.611  13.640
  137OSM    H9F14984   2.224   1.570  13.622
  137OSM   C10F14985   2.418   1.524  13.677
  137OSM   H10F14986   2.396   1.417  13.684
  137OSM   C11F14987   2.559   1.564  13.695
  137OSM   H11F14988   2.617   1.487  13.747
  137OSM   H11G14989   2.555   1.654  13.762
  137OSM   C12F14990   2.625   1.602  13.564
  137OSM   H12F14991   2.726   1.646  13.579
  137OSM   H12G14992   2.556   1.666  13.504
  137OSM   C13F14993   2.649   1.506  13.458
  137OSM   H13F14994   2.560   1.446  13.436
  137OSM   H13G14995   2.723   1.438  13.505
  137OSM   C14F14996   2.693   1.585  13.333
  137OSM   H14F14997   2.695   1.509  13.258
  137OSM   H14G14998   2.783   1.649  13.330
  137OSM   C15F14999   2.606   1.662  13.247
  137OSM   H15F15000   2.672   1.694  13.161
  137OSM   H15G15001   2.587   1.742  13.315
  137OSM   C16F15002   2.491   1.573  13.208
  137OSM   H16F15003   2.437   1.548  13.302
  137OSM   H16G15004   2.532   1.479  13.165
  137OSM   C17F15005   2.406   1.642  13.106
  137OSM   H17F15006   2.446   1.743  13.104
  137OSM   H17G15007   2.302   1.653  13.142
  137OSM   C18F15008   2.420   1.594  12.961
  137OSM   H18F15009   2.523   1.615  12.924
  137OSM   H18G15010   2.350   1.650  12.895
  137OSM   H18H15011   2.399   1.487  12.952
  138OSM      N15012   5.849   2.227  14.915
  138OSM    C1515013   5.775   2.193  14.789
  138OSM   H15A15014   5.806   2.095  14.754
  138OSM   H15B15015   5.802   2.259  14.707
  138OSM   H15C15016   5.668   2.198  14.798
  138OSM    C1415017   5.812   2.367  14.949
  138OSM   H14A15018   5.706   2.369  14.973
  138OSM   H14B15019   5.830   2.431  14.863
  138OSM   H14C15020   5.869   2.407  15.031
  138OSM    C1315021   5.808   2.134  15.027
  138OSM   H13A15022   5.701   2.118  15.035
  138OSM   H13B15023   5.844   2.169  15.123
  138OSM   H13C15024   5.857   2.037  15.012
  138OSM    C1215025   6.001   2.210  14.898
  138OSM   H12A15026   6.051   2.245  14.987
  138OSM   H12B15027   6.034   2.269  14.814
  138OSM    C1115028   6.062   2.069  14.873
  138OSM   H11A15029   6.070   2.011  14.968
  138OSM   H11B15030   6.168   2.086  14.840
  138OSM      P15031   5.977   1.842  14.781
  138OSM    O1315032   6.109   1.779  14.790
  138OSM    O1415033   5.882   1.807  14.889
  138OSM    O1115034   5.906   1.797  14.648
  138OSM    O1215035   5.990   2.000  14.772
  138OSM    C1S15036   5.824   1.885  14.573
  138OSM    H1S15037   5.814   1.984  14.619
  138OSM    H1T15038   5.722   1.843  14.567
  138OSM     NF15039   5.826   2.028  14.371
  138OSM    HNF15040   5.803   2.019  14.275
  138OSM    C2S15041   5.882   1.910  14.431
  138OSM    H2S15042   5.993   1.924  14.442
  138OSM    C3S15043   5.856   1.792  14.339
  138OSM    H3S15044   5.748   1.776  14.320
  138OSM     O315045   5.895   1.673  14.398
  138OSM    HO315046   5.937   1.696  14.483
  138OSM    C4S15047   5.931   1.820  14.212
  138OSM    H4S15048   6.040   1.822  14.223
  138OSM    C5S15049   5.878   1.843  14.090
  138OSM    H5S15050   5.770   1.828  14.072
  138OSM    C6S15051   5.961   1.872  13.968
  138OSM    H6S15052   6.068   1.887  13.993
  138OSM    H6T15053   5.924   1.964  13.918
  138OSM    C7S15054   5.945   1.758  13.869
  138OSM    H7S15055   5.845   1.754  13.823
  138OSM    H7T15056   5.950   1.671  13.932
  138OSM    C8S15057   6.054   1.757  13.762
  138OSM    H8S15058   6.050   1.663  13.703
  138OSM    H8T15059   6.155   1.763  13.809
  138OSM    C9S15060   6.036   1.872  13.663
  138OSM    H9S15061   6.055   1.971  13.711
  138OSM    H9T15062   5.931   1.871  13.627
  138OSM   C10S15063   6.128   1.847  13.546
  138OSM   H10S15064   6.112   1.746  13.503
  138OSM   H10T15065   6.234   1.849  13.582
  138OSM   C11S15066   6.103   1.942  13.430
  138OSM   H11S15067   6.203   1.955  13.408
  138OSM   H11T15068   6.057   2.040  13.456
  138OSM   C12S15069   6.071   1.888  13.292
  138OSM   H12S15070   6.143   1.808  13.263
  138OSM   H12T15071   6.080   1.968  13.215
  138OSM   C13S15072   5.927   1.845  13.295
  138OSM   H13S15073   5.870   1.937  13.321
  138OSM   H13T15074   5.913   1.768  13.374
  138OSM   C14S15075   5.874   1.795  13.163
  138OSM   H14S15076   5.931   1.704  13.131
  138OSM   H14T15077   5.882   1.872  13.083
  138OSM   C15S15078   5.728   1.758  13.183
  138OSM   H15S15079   5.659   1.841  13.208
  138OSM   H15T15080   5.721   1.682  13.266
  138OSM   C16S15081   5.677   1.694  13.059
  138OSM   H16S15082   5.565   1.703  13.062
  138OSM   H16T15083   5.722   1.593  13.065
  138OSM   C17S15084   5.719   1.741  12.923
  138OSM   H17S15085   5.699   1.677  12.840
  138OSM   H17T15086   5.825   1.725  12.904
  138OSM   C18S15087   5.637   1.855  12.877
  138OSM   H18S15088   5.526   1.840  12.885
  138OSM   H18T15089   5.666   1.876  12.772
  138OSM   H18U15090   5.665   1.933  12.945
  138OSM    C1F15091   5.840   2.148  14.424
  138OSM     OF15092   5.912   2.169  14.522
  138OSM    C2F15093   5.779   2.262  14.348
  138OSM    H2F15094   5.835   2.353  14.378
  138OSM    H2G15095   5.675   2.272  14.384
  138OSM    C3F15096   5.785   2.243  14.194
  138OSM    H3F15097   5.754   2.143  14.160
  138OSM    H3G15098   5.885   2.262  14.153
  138OSM    C4F15099   5.710   2.345  14.113
  138OSM    H4F15100   5.738   2.449  14.140
  138OSM    H4G15101   5.608   2.345  14.149
  138OSM    C5F15102   5.730   2.324  13.960
  138OSM    H5F15103   5.826   2.359  13.924
  138OSM    H5G15104   5.668   2.403  13.924
  138OSM    C6F15105   5.673   2.202  13.875
  138OSM    H6F15106   5.594   2.149  13.931
  138OSM    H6G15107   5.747   2.123  13.865
  138OSM    C7F15108   5.608   2.238  13.736
  138OSM    H7F15109   5.550   2.331  13.731
  138OSM    H7G15110   5.541   2.158  13.697
  138OSM    C8F15111   5.701   2.272  13.626
  138OSM    H8F15112   5.646   2.301  13.534
  138OSM    H8G15113   5.773   2.190  13.615
  138OSM    C9F15114   5.766   2.388  13.682
  138OSM    H9F15115   5.708   2.465  13.735
  138OSM   C10F15116   5.888   2.409  13.670
  138OSM   H10F15117   5.918   2.501  13.721
  138OSM   C11F15118   5.990   2.330  13.603
  138OSM   H11F15119   5.989   2.221  13.587
  138OSM   H11G15120   6.075   2.371  13.650
  138OSM   C12F15121   6.020   2.365  13.476
  138OSM   H12F15122   6.133   2.347  13.468
  138OSM   H12G15123   6.107   2.430  13.452
  138OSM   C13F15124   5.896   2.342  13.378
  138OSM   H13F15125   5.898   2.372  13.270
  138OSM   H13G15126   5.810   2.403  13.408
  138OSM   C14F15127   5.880   2.204  13.325
  138OSM   H14F15128   5.842   2.170  13.420
  138OSM   H14G15129   5.964   2.144  13.283
  138OSM   C15F15130   5.803   2.212  13.199
  138OSM   H15F15131   5.742   2.308  13.203
  138OSM   H15G15132   5.738   2.126  13.216
  138OSM   C16F15133   5.893   2.206  13.071
  138OSM   H16F15134   5.984   2.144  13.079
  138OSM   H16G15135   5.908   2.309  13.027
  138OSM   C17F15136   5.829   2.137  12.960
  138OSM   H17F15137   5.793   2.226  12.907
  138OSM   H17G15138   5.745   2.080  12.996
  138OSM   C18F15139   5.874   2.120  12.826
  138OSM   H18F15140   5.914   2.219  12.782
  138OSM   H18G15141   5.781   2.092  12.767
  138OSM   H18H15142   5.943   2.038  12.818
  139OSM      N15143   5.986   5.347  14.946
  139OSM    C1515144   5.838   5.342  14.934
  139OSM   H15A15145   5.798   5.244  14.952
  139OSM   H15B15146   5.807   5.373  14.834
  139OSM   H15C15147   5.795   5.415  15.002
  139OSM    C1415148   6.029   5.487  14.906
  139OSM   H14A15149   5.992   5.515  14.807
  139OSM   H14B15150   6.138   5.490  14.897
  139OSM   H14C15151   5.998   5.565  14.973
  139OSM    C1315152   6.033   5.322  15.084
  139OSM   H13A15153   6.013   5.221  15.117
  139OSM   H13B15154   5.994   5.397  15.151
  139OSM   H13C15155   6.142   5.333  15.083
  139OSM    C1215156   6.053   5.246  14.853
  139OSM   H12A15157   6.035   5.279  14.751
  139OSM   H12B15158   6.008   5.150  14.865
  139OSM    C1115159   6.206   5.226  14.869
  139OSM   H11A15160   6.247   5.156  14.793
  139OSM   H11B15161   6.228   5.178  14.967
  139OSM      P15162   6.335   5.415  14.737
  139OSM    O1315163   6.364   5.556  14.770
  139OSM    O1415164   6.446   5.327  14.696
  139OSM    O1115165   6.218   5.410  14.627
  139OSM    O1215166   6.272   5.352  14.867
  139OSM    C1S15167   6.261   5.455  14.495
  139OSM    H1S15168   6.371   5.457  14.487
  139OSM    H1T15169   6.233   5.561  14.476
  139OSM     NF15170   6.266   5.366  14.251
  139OSM    HNF15171   6.221   5.399  14.169
  139OSM    C2S15172   6.196   5.372  14.378
  139OSM    H2S15173   6.181   5.268  14.418
  139OSM    C3S15174   6.062   5.430  14.339
  139OSM    H3S15175   6.085   5.530  14.300
  139OSM     O315176   5.974   5.448  14.448
  139OSM    HO315177   6.031   5.461  14.525
  139OSM    C4S15178   6.006   5.343  14.230
  139OSM    H4S15179   5.986   5.241  14.260
  139OSM    C5S15180   6.000   5.374  14.098
  139OSM    H5S15181   6.037   5.472  14.062
  139OSM    C6S15182   5.944   5.279  13.996
  139OSM    H6S15183   5.897   5.190  14.045
  139OSM    H6T15184   6.020   5.240  13.926
  139OSM    C7S15185   5.837   5.353  13.915
  139OSM    H7S15186   5.768   5.402  13.988
  139OSM    H7T15187   5.778   5.277  13.860
  139OSM    C8S15188   5.893   5.458  13.816
  139OSM    H8S15189   5.968   5.522  13.868
  139OSM    H8T15190   5.810   5.528  13.791
  139OSM    C9S15191   5.948   5.391  13.686
  139OSM    H9S15192   5.864   5.338  13.638
  139OSM    H9T15193   6.035   5.326  13.708
  139OSM   C10S15194   5.996   5.486  13.579
  139OSM   H10S15195   6.054   5.555  13.637
  139OSM   H10T15196   5.903   5.530  13.541
  139OSM   C11S15197   6.086   5.443  13.461
  139OSM   H11S15198   6.016   5.415  13.379
  139OSM   H11T15199   6.156   5.364  13.488
  139OSM   C12S15200   6.177   5.551  13.403
  139OSM   H12S15201   6.268   5.581  13.458
  139OSM   H12T15202   6.122   5.642  13.409
  139OSM   C13S15203   6.216   5.537  13.259
  139OSM   H13S15204   6.131   5.522  13.188
  139OSM   H13T15205   6.289   5.457  13.255
  139OSM   C14S15206   6.292   5.662  13.234
  139OSM   H14S15207   6.352   5.696  13.317
  139OSM   H14T15208   6.214   5.729  13.203
  139OSM   C15S15209   6.396   5.660  13.134
  139OSM   H15S15210   6.461   5.747  13.111
  139OSM   H15T15211   6.324   5.632  13.059
  139OSM   C16S15212   6.433   5.550  13.059
  139OSM   H16S15213   6.370   5.456  13.061
  139OSM   H16T15214   6.504   5.564  13.146
  139OSM   C17S15215   6.520   5.565  12.941
  139OSM   H17S15216   6.597   5.647  12.949
  139OSM   H17T15217   6.466   5.579  12.855
  139OSM   C18S15218   6.565   5.450  12.862
  139OSM   H18S15219   6.591   5.344  12.880
  139OSM   H18T15220   6.653   5.472  12.912
  139OSM   H18U15221   6.613   5.494  12.779
  139OSM    C1F15222   6.389   5.350  14.233
  139OSM     OF15223   6.458   5.354  14.328
  139OSM    C2F15224   6.439   5.356  14.094
  139OSM    H2F15225   6.537   5.410  14.100
  139OSM    H2G15226   6.364   5.389  14.021
  139OSM    C3F15227   6.467   5.227  14.028
  139OSM    H3F15228   6.574   5.218  14.044
  139OSM    H3G15229   6.509   5.244  13.928
  139OSM    C4F15230   6.366   5.112  14.075
  139OSM    H4F15231   6.354   5.097  14.183
  139OSM    H4G15232   6.376   5.003  14.059
  139OSM    C5F15233   6.255   5.105  13.985
  139OSM    H5F15234   6.298   5.133  13.886
  139OSM    H5G15235   6.208   5.185  14.044
  139OSM    C6F15236   6.187   4.967  13.989
  139OSM    H6F15237   6.091   5.001  13.948
  139OSM    H6G15238   6.174   4.937  14.096
  139OSM    C7F15239   6.251   4.845  13.914
  139OSM    H7F15240   6.186   4.758  13.934
  139OSM    H7G15241   6.348   4.809  13.953
  139OSM    C8F15242   6.261   4.851  13.762
  139OSM    H8F15243   6.255   4.746  13.724
  139OSM    H8G15244   6.359   4.893  13.733
  139OSM    C9F15245   6.147   4.935  13.715
  139OSM    H9F15246   6.052   4.881  13.711
  139OSM   C10F15247   6.152   5.052  13.648
  139OSM   H10F15248   6.060   5.090  13.605
  139OSM   C11F15249   6.270   5.127  13.603
  139OSM   H11F15250   6.359   5.093  13.661
  139OSM   H11G15251   6.256   5.235  13.619
  139OSM   C12F15252   6.310   5.100  13.457
  139OSM   H12F15253   6.335   4.992  13.451
  139OSM   H12G15254   6.404   5.158  13.452
  139OSM   C13F15255   6.236   5.147  13.328
  139OSM   H13F15256   6.259   5.252  13.310
  139OSM   H13G15257   6.133   5.166  13.339
  139OSM   C14F15258   6.246   5.057  13.199
  139OSM   H14F15259   6.239   4.949  13.227
  139OSM   H14G15260   6.339   5.074  13.144
  139OSM   C15F15261   6.167   5.096  13.078
  139OSM   H15F15262   6.096   5.021  13.099
  139OSM   H15G15263   6.200   5.059  12.980
  139OSM   C16F15264   6.128   5.244  13.074
  139OSM   H16F15265   6.221   5.300  13.053
  139OSM   H16G15266   6.091   5.278  13.174
  139OSM   C17F15267   6.015   5.281  12.976
  139OSM   H17F15268   5.989   5.387  12.998
  139OSM   H17G15269   5.925   5.222  12.999
  139OSM   C18F15270   6.041   5.268  12.827
  139OSM   H18F15271   5.964   5.325  12.770
  139OSM   H18G15272   6.039   5.162  12.793
  139OSM   H18H15273   6.138   5.314  12.803
  140OSM      N15274   1.421   1.583  14.880
  140OSM    C1515275   1.415   1.685  14.988
  140OSM   H15A15276   1.339   1.656  15.060
  140OSM   H15B15277   1.390   1.782  14.948
  140OSM   H15C15278   1.510   1.689  15.038
  140OSM    C1415279   1.290   1.582  14.806
  140OSM   H14A15280   1.270   1.678  14.760
  140OSM   H14B15281   1.207   1.556  14.872
  140OSM   H14C15282   1.293   1.508  14.727
  140OSM    C1315283   1.531   1.623  14.787
  140OSM   H13A15284   1.630   1.615  14.831
  140OSM   H13B15285   1.517   1.723  14.749
  140OSM   H13C15286   1.539   1.556  14.700
  140OSM    C1215287   1.449   1.444  14.939
  140OSM   H12A15288   1.370   1.422  15.010
  140OSM   H12B15289   1.542   1.443  14.994
  140OSM    C1115290   1.464   1.323  14.843
  140OSM   H11A15291   1.380   1.318  14.772
  140OSM   H11B15292   1.455   1.230  14.904
  140OSM      P15293   1.708   1.235  14.832
  140OSM    O1315294   1.788   1.317  14.927
  140OSM    O1415295   1.656   1.102  14.867
  140OSM    O1115296   1.796   1.206  14.707
  140OSM    O1215297   1.589   1.327  14.775
  140OSM    C1S15298   1.821   1.324  14.641
  140OSM    H1S15299   1.932   1.333  14.640
  140OSM    H1T15300   1.771   1.421  14.678
  140OSM     NF15301   1.646   1.344  14.469
  140OSM    HNF15302   1.601   1.267  14.431
  140OSM    C2S15303   1.788   1.327  14.497
  140OSM    H2S15304   1.813   1.417  14.488
  140OSM    C3S15305   1.864   1.204  14.430
  140OSM    H3S15306   1.836   1.113  14.481
  140OSM     O315307   2.009   1.218  14.434
  140OSM    HO315308   2.030   1.309  14.459
  140OSM    C4S15309   1.832   1.201  14.283
  140OSM    H4S15310   1.892   1.257  14.209
  140OSM    C5S15311   1.730   1.135  14.231
  140OSM    H5S15312   1.680   1.063  14.296
  140OSM    C6S15313   1.697   1.137  14.086
  140OSM    H6S15314   1.689   1.238  14.039
  140OSM    H6T15315   1.593   1.097  14.077
  140OSM    C7S15316   1.803   1.068  14.001
  140OSM    H7S15317   1.817   0.967  14.042
  140OSM    H7T15318   1.907   1.098  14.009
  140OSM    C8S15319   1.751   1.068  13.857
  140OSM    H8S15320   1.704   1.157  13.815
  140OSM    H8T15321   1.661   1.009  13.882
  140OSM    C9S15322   1.863   1.020  13.761
  140OSM    H9S15323   1.892   0.919  13.768
  140OSM    H9T15324   1.959   1.043  13.806
  140OSM   C10S15325   1.855   1.022  13.609
  140OSM   H10S15326   1.781   0.968  13.562
  140OSM   H10T15327   1.945   0.974  13.562
  140OSM   C11S15328   1.795   1.133  13.541
  140OSM   H11S15329   1.889   1.154  13.583
  140OSM   H11T15330   1.708   1.173  13.594
  140OSM   C12S15331   1.784   1.108  13.393
  140OSM   H12S15332   1.693   1.050  13.370
  140OSM   H12T15333   1.877   1.066  13.345
  140OSM   C13S15334   1.779   1.235  13.325
  140OSM   H13S15335   1.888   1.250  13.342
  140OSM   H13T15336   1.723   1.308  13.387
  140OSM   C14S15337   1.739   1.233  13.177
  140OSM   H14S15338   1.636   1.198  13.174
  140OSM   H14T15339   1.803   1.163  13.121
  140OSM   C15S15340   1.729   1.366  13.101
  140OSM   H15S15341   1.822   1.398  13.062
  140OSM   H15T15342   1.703   1.451  13.164
  140OSM   C16S15343   1.719   1.369  12.952
  140OSM   H16S15344   1.615   1.346  12.933
  140OSM   H16T15345   1.790   1.297  12.900
  140OSM   C17S15346   1.742   1.511  12.898
  140OSM   H17S15347   1.679   1.593  12.931
  140OSM   H17T15348   1.708   1.483  12.801
  140OSM   C18S15349   1.880   1.564  12.887
  140OSM   H18S15350   1.931   1.584  12.981
  140OSM   H18T15351   1.894   1.659  12.831
  140OSM   H18U15352   1.931   1.476  12.839
  140OSM    C1F15353   1.582   1.468  14.483
  140OSM     OF15354   1.635   1.576  14.506
  140OSM    C2F15355   1.436   1.480  14.468
  140OSM    H2F15356   1.411   1.586  14.444
  140OSM    H2G15357   1.391   1.463  14.567
  140OSM    C3F15358   1.386   1.373  14.370
  140OSM    H3F15359   1.276   1.381  14.362
  140OSM    H3G15360   1.408   1.274  14.411
  140OSM    C4F15361   1.442   1.368  14.229
  140OSM    H4F15362   1.396   1.278  14.181
  140OSM    H4G15363   1.551   1.373  14.217
  140OSM    C5F15364   1.397   1.479  14.142
  140OSM    H5F15365   1.433   1.578  14.179
  140OSM    H5G15366   1.292   1.474  14.168
  140OSM    C6F15367   1.411   1.436  13.995
  140OSM    H6F15368   1.355   1.342  13.972
  140OSM    H6G15369   1.508   1.462  13.950
  140OSM    C7F15370   1.333   1.522  13.909
  140OSM    H7F15371   1.378   1.619  13.939
  140OSM    H7G15372   1.239   1.499  13.961
  140OSM    C8F15373   1.297   1.500  13.762
  140OSM    H8F15374   1.216   1.561  13.719
  140OSM    H8G15375   1.232   1.415  13.737
  140OSM    C9F15376   1.423   1.530  13.689
  140OSM    H9F15377   1.457   1.634  13.678
  140OSM   C10F15378   1.493   1.435  13.638
  140OSM   H10F15379   1.581   1.464  13.581
  140OSM   C11F15380   1.445   1.295  13.654
  140OSM   H11F15381   1.360   1.279  13.724
  140OSM   H11G15382   1.531   1.247  13.703
  140OSM   C12F15383   1.409   1.223  13.525
  140OSM   H12F15384   1.390   1.117  13.554
  140OSM   H12G15385   1.495   1.230  13.456
  140OSM   C13F15386   1.288   1.270  13.446
  140OSM   H13F15387   1.203   1.291  13.514
  140OSM   H13G15388   1.261   1.186  13.378
  140OSM   C14F15389   1.320   1.389  13.355
  140OSM   H14F15390   1.337   1.483  13.408
  140OSM   H14G15391   1.231   1.411  13.303
  140OSM   C15F15392   1.390   1.359  13.221
  140OSM   H15F15393   1.329   1.283  13.166
  140OSM   H15G15394   1.488   1.315  13.241
  140OSM   C16F15395   1.410   1.484  13.132
  140OSM   H16F15396   1.465   1.449  13.042
  140OSM   H16G15397   1.470   1.559  13.188
  140OSM   C17F15398   1.283   1.550  13.077
  140OSM   H17F15399   1.227   1.614  13.146
  140OSM   H17G15400   1.222   1.461  13.071
  140OSM   C18F15401   1.300   1.623  12.942
  140OSM   H18F15402   1.211   1.685  12.917
  140OSM   H18G15403   1.317   1.552  12.858
  140OSM   H18H15404   1.388   1.690  12.949
  141OSM      N15405   0.096   3.595  14.923
  141OSM    C1515406   0.035   3.490  14.837
  141OSM   H15A15407  -0.059   3.460  14.884
  141OSM   H15B15408   0.101   3.406  14.822
  141OSM   H15C15409   0.008   3.533  14.741
  141OSM    C1415410  -0.011   3.692  14.933
  141OSM   H14A15411  -0.048   3.733  14.840
  141OSM   H14B15412   0.037   3.776  14.984
  141OSM   H14C15413  -0.095   3.660  14.995
  141OSM    C1315414   0.135   3.540  15.056
  141OSM   H13A15415   0.052   3.494  15.102
  141OSM   H13B15416   0.165   3.617  15.126
  141OSM   H13C15417   0.212   3.465  15.040
  141OSM    C1215418   0.220   3.664  14.873
  141OSM   H12A15419   0.245   3.743  14.943
  141OSM   H12B15420   0.207   3.712  14.777
  141OSM    C1115421   0.343   3.573  14.869
  141OSM   H11A15422   0.366   3.535  14.971
  141OSM   H11B15423   0.432   3.634  14.838
  141OSM      P15424   0.407   3.341  14.768
  141OSM    O1315425   0.550   3.374  14.773
  141OSM    O1415426   0.355   3.243  14.868
  141OSM    O1115427   0.374   3.292  14.621
  141OSM    O1215428   0.317   3.469  14.777
  141OSM    C1S15429   0.240   3.292  14.571
  141OSM    H1S15430   0.179   3.375  14.613
  141OSM    H1T15431   0.190   3.195  14.592
  141OSM     NF15432   0.291   3.200  14.353
  141OSM    HNF15433   0.388   3.195  14.335
  141OSM    C2S15434   0.242   3.309  14.420
  141OSM    H2S15435   0.138   3.335  14.380
  141OSM    C3S15436   0.320   3.422  14.383
  141OSM    H3S15437   0.424   3.429  14.423
  141OSM     O315438   0.239   3.523  14.435
  141OSM    HO315439   0.202   3.501  14.520
  141OSM    C4S15440   0.324   3.432  14.235
  141OSM    H4S15441   0.235   3.478  14.193
  141OSM    C5S15442   0.422   3.392  14.155
  141OSM    H5S15443   0.521   3.388  14.204
  141OSM    C6S15444   0.410   3.410  14.006
  141OSM    H6S15445   0.428   3.332  13.931
  141OSM    H6T15446   0.515   3.440  13.991
  141OSM    C7S15447   0.290   3.496  13.947
  141OSM    H7S15448   0.274   3.592  13.997
  141OSM    H7T15449   0.190   3.484  13.992
  141OSM    C8S15450   0.296   3.513  13.790
  141OSM    H8S15451   0.203   3.574  13.768
  141OSM    H8T15452   0.271   3.419  13.742
  141OSM    C9S15453   0.432   3.564  13.711
  141OSM    H9S15454   0.524   3.531  13.753
  141OSM    H9T15455   0.460   3.675  13.697
  141OSM   C10S15456   0.423   3.537  13.566
  141OSM   H10S15457   0.375   3.442  13.540
  141OSM   H10T15458   0.503   3.586  13.502
  141OSM   C11S15459   0.308   3.599  13.517
  141OSM   H11S15460   0.293   3.672  13.596
  141OSM   H11T15461   0.210   3.592  13.568
  141OSM   C12S15462   0.339   3.639  13.369
  141OSM   H12S15463   0.430   3.695  13.335
  141OSM   H12T15464   0.300   3.727  13.321
  141OSM   C13S15465   0.264   3.531  13.305
  141OSM   H13S15466   0.159   3.518  13.340
  141OSM   H13T15467   0.338   3.451  13.311
  141OSM   C14S15468   0.232   3.564  13.173
  141OSM   H14S15469   0.335   3.601  13.149
  141OSM   H14T15470   0.175   3.656  13.186
  141OSM   C15S15471   0.135   3.463  13.098
  141OSM   H15S15472   0.058   3.438  13.170
  141OSM   H15T15473   0.206   3.379  13.097
  141OSM   C16S15474   0.040   3.487  12.971
  141OSM   H16S15475   0.090   3.480  12.874
  141OSM   H16T15476  -0.018   3.581  12.970
  141OSM   C17S15477  -0.042   3.389  12.895
  141OSM   H17S15478  -0.128   3.372  12.957
  141OSM   H17T15479   0.012   3.296  12.886
  141OSM   C18S15480  -0.069   3.453  12.757
  141OSM   H18S15481  -0.132   3.404  12.683
  141OSM   H18T15482   0.011   3.478  12.685
  141OSM   H18U15483  -0.083   3.557  12.779
  141OSM    C1F15484   0.204   3.113  14.327
  141OSM     OF15485   0.092   3.118  14.373
  141OSM    C2F15486   0.250   3.007  14.247
  141OSM    H2F15487   0.228   2.924  14.303
  141OSM    H2G15488   0.343   2.997  14.195
  141OSM    C3F15489   0.198   2.986  14.122
  141OSM    H3F15490   0.093   2.981  14.150
  141OSM    H3G15491   0.245   2.888  14.086
  141OSM    C4F15492   0.205   3.107  14.036
  141OSM    H4F15493   0.305   3.137  14.020
  141OSM    H4G15494   0.153   3.190  14.082
  141OSM    C5F15495   0.153   3.074  13.903
  141OSM    H5F15496   0.043   3.063  13.910
  141OSM    H5G15497   0.211   2.982  13.908
  141OSM    C6F15498   0.205   3.148  13.785
  141OSM    H6F15499   0.303   3.111  13.747
  141OSM    H6G15500   0.217   3.248  13.825
  141OSM    C7F15501   0.108   3.150  13.672
  141OSM    H7F15502   0.010   3.193  13.695
  141OSM    H7G15503   0.066   3.049  13.671
  141OSM    C8F15504   0.174   3.213  13.546
  141OSM    H8F15505   0.262   3.159  13.501
  141OSM    H8G15506   0.220   3.308  13.579
  141OSM    C9F15507   0.062   3.241  13.451
  141OSM    H9F15508  -0.011   3.314  13.481
  141OSM   C10F15509   0.029   3.179  13.342
  141OSM   H10F15510  -0.061   3.199  13.283
  141OSM   C11F15511   0.098   3.068  13.294
  141OSM   H11F15512   0.044   2.983  13.339
  141OSM   H11G15513   0.209   3.068  13.303
  141OSM   C12F15514   0.044   3.060  13.168
  141OSM   H12F15515  -0.060   3.027  13.147
  141OSM   H12G15516   0.060   2.952  13.175
  141OSM   C13F15517   0.132   3.143  13.069
  141OSM   H13F15518   0.081   3.236  13.059
  141OSM   H13G15519   0.098   3.124  12.967
  141OSM   C14F15520   0.292   3.144  13.078
  141OSM   H14F15521   0.380   3.082  13.054
  141OSM   H14G15522   0.332   3.125  13.173
  141OSM   C15F15523   0.350   3.142  12.942
  141OSM   H15F15524   0.326   3.240  12.983
  141OSM   H15G15525   0.271   3.100  12.877
  141OSM   C16F15526   0.484   3.193  12.882
  141OSM   H16F15527   0.539   3.099  12.887
  141OSM   H16G15528   0.517   3.240  12.976
  141OSM   C17F15529   0.514   3.279  12.736
  141OSM   H17F15530   0.593   3.351  12.755
  141OSM   H17G15531   0.449   3.357  12.696
  141OSM   C18F15532   0.513   3.227  12.594
  141OSM   H18F15533   0.421   3.172  12.570
  141OSM   H18G15534   0.604   3.168  12.599
  141OSM   H18H15535   0.502   3.290  12.505
  142OSM      N15536   6.358   1.302  15.046
  142OSM    C1515537   6.284   1.182  14.997
  142OSM   H15A15538   6.266   1.193  14.891
  142OSM   H15B15539   6.189   1.166  15.046
  142OSM   H15C15540   6.340   1.090  15.013
  142OSM    C1415541   6.353   1.310  15.194
  142OSM   H14A15542   6.416   1.234  15.238
  142OSM   H14B15543   6.253   1.294  15.231
  142OSM   H14C15544   6.384   1.408  15.231
  142OSM    C1315545   6.502   1.295  15.005
  142OSM   H13A15546   6.555   1.377  15.052
  142OSM   H13B15547   6.512   1.306  14.897
  142OSM   H13C15548   6.546   1.201  15.033
  142OSM    C1215549   6.298   1.431  14.991
  142OSM   H12A15550   6.370   1.509  15.015
  142OSM   H12B15551   6.207   1.452  15.045
  142OSM    C1115552   6.265   1.447  14.841
  142OSM   H11A15553   6.233   1.553  14.827
  142OSM   H11B15554   6.180   1.383  14.810
  142OSM      P15555   6.439   1.507  14.648
  142OSM    O1315556   6.458   1.644  14.701
  142OSM    O1415557   6.555   1.435  14.592
  142OSM    O1115558   6.322   1.508  14.540
  142OSM    O1215559   6.378   1.415  14.762
  142OSM    C1S15560   6.276   1.380  14.491
  142OSM    H1S15561   6.186   1.352  14.550
  142OSM    H1T15562   6.348   1.296  14.504
  142OSM     NF15563   6.361   1.416  14.260
  142OSM    HNF15564   6.364   1.503  14.215
  142OSM    C2S15565   6.244   1.390  14.339
  142OSM    H2S15566   6.199   1.293  14.307
  142OSM    C3S15567   6.138   1.497  14.320
  142OSM    H3S15568   6.176   1.599  14.347
  142OSM     O315569   6.027   1.459  14.401
  142OSM    HO315570   6.064   1.452  14.489
  142OSM    C4S15571   6.098   1.508  14.175
  142OSM    H4S15572   6.142   1.593  14.120
  142OSM    C5S15573   6.020   1.421  14.110
  142OSM    H5S15574   5.985   1.331  14.162
  142OSM    C6S15575   5.980   1.432  13.966
  142OSM    H6S15576   6.034   1.516  13.919
  142OSM    H6T15577   5.870   1.448  13.958
  142OSM    C7S15578   6.029   1.321  13.875
  142OSM    H7S15579   5.984   1.339  13.775
  142OSM    H7T15580   5.990   1.225  13.916
  142OSM    C8S15581   6.183   1.315  13.864
  142OSM    H8S15582   6.209   1.240  13.785
  142OSM    H8T15583   6.223   1.277  13.960
  142OSM    C9S15584   6.254   1.447  13.832
  142OSM    H9S15585   6.243   1.521  13.914
  142OSM    H9T15586   6.208   1.492  13.741
  142OSM   C10S15587   6.402   1.427  13.806
  142OSM   H10S15588   6.416   1.340  13.739
  142OSM   H10T15589   6.455   1.405  13.902
  142OSM   C11S15590   6.464   1.551  13.740
  142OSM   H11S15591   6.574   1.539  13.752
  142OSM   H11T15592   6.423   1.638  13.795
  142OSM   C12S15593   6.439   1.573  13.590
  142OSM   H12S15594   6.331   1.599  13.580
  142OSM   H12T15595   6.461   1.475  13.543
  142OSM   C13S15596   6.515   1.688  13.519
  142OSM   H13S15597   6.621   1.699  13.543
  142OSM   H13T15598   6.466   1.783  13.548
  142OSM   C14S15599   6.542   1.668  13.369
  142OSM   H14S15600   6.612   1.581  13.361
  142OSM   H14T15601   6.600   1.756  13.332
  142OSM   C15S15602   6.419   1.640  13.285
  142OSM   H15S15603   6.360   1.734  13.276
  142OSM   H15T15604   6.356   1.565  13.339
  142OSM   C16S15605   6.452   1.582  13.147
  142OSM   H16S15606   6.357   1.561  13.094
  142OSM   H16T15607   6.504   1.484  13.161
  142OSM   C17S15608   6.538   1.675  13.061
  142OSM   H17S15609   6.644   1.668  13.095
  142OSM   H17T15610   6.504   1.780  13.079
  142OSM   C18S15611   6.532   1.645  12.911
  142OSM   H18S15612   6.538   1.536  12.893
  142OSM   H18T15613   6.617   1.694  12.858
  142OSM   H18U15614   6.438   1.682  12.866
  142OSM    C1F15615   6.465   1.334  14.259
  142OSM     OF15616   6.457   1.218  14.297
  142OSM    C2F15617   6.587   1.396  14.200
  142OSM    H2F15618   6.602   1.494  14.251
  142OSM    H2G15619   6.565   1.419  14.093
  142OSM    C3F15620   6.720   1.319  14.212
  142OSM    H3F15621   6.745   1.293  14.317
  142OSM    H3G15622   6.794   1.394  14.176
  142OSM    C4F15623   6.732   1.195  14.124
  142OSM    H4F15624   6.692   1.107  14.180
  142OSM    H4G15625   6.839   1.174  14.101
  142OSM    C5F15626   6.659   1.212  13.992
  142OSM    H5F15627   6.680   1.311  13.947
  142OSM    H5G15628   6.549   1.198  14.011
  142OSM    C6F15629   6.702   1.111  13.890
  142OSM    H6F15630   6.711   1.026  13.961
  142OSM    H6G15631   6.804   1.117  13.852
  142OSM    C7F15632   6.595   1.096  13.779
  142OSM    H7F15633   6.493   1.094  13.824
  142OSM    H7G15634   6.614   1.003  13.721
  142OSM    C8F15635   6.600   1.185  13.661
  142OSM    H8F15636   6.618   1.286  13.695
  142OSM    H8G15637   6.511   1.167  13.596
  142OSM    C9F15638   6.715   1.161  13.579
  142OSM    H9F15639   6.810   1.177  13.632
  142OSM   C10F15640   6.710   1.107  13.460
  142OSM   H10F15641   6.794   1.106  13.401
  142OSM   C11F15642   6.615   1.056  13.367
  142OSM   H11F15643   6.517   1.099  13.386
  142OSM   H11G15644   6.615   0.952  13.396
  142OSM   C12F15645   6.665   1.042  13.221
  142OSM   H12F15646   6.721   0.952  13.192
  142OSM   H12G15647   6.705   1.129  13.172
  142OSM   C13F15648   6.562   0.986  13.142
  142OSM   H13F15649   6.516   0.941  13.235
  142OSM   H13G15650   6.577   0.916  13.055
  142OSM   C14F15651   6.445   1.055  13.124
  142OSM   H14F15652   6.430   1.110  13.216
  142OSM   H14G15653   6.368   0.975  13.099
  142OSM   C15F15654   6.474   1.149  13.024
  142OSM   H15F15655   6.505   1.095  12.933
  142OSM   H15G15656   6.549   1.228  13.053
  142OSM   C16F15657   6.344   1.205  13.016
  142OSM   H16F15658   6.388   1.300  12.972
  142OSM   H16G15659   6.328   1.293  13.083
  142OSM   C17F15660   6.205   1.102  12.928
  142OSM   H17F15661   6.101   1.146  12.902
  142OSM   H17G15662   6.253   1.082  13.004
  142OSM   C18F15663   6.168   1.029  12.807
  142OSM   H18F15664   6.246   0.961  12.842
  142OSM   H18G15665   6.167   1.086  12.714
  142OSM   H18H15666   6.055   1.012  12.804
  143OSM      N15667   6.906   5.198  14.964
  143OSM    C1515668   6.785   5.284  14.960
  143OSM   H15A15669   6.746   5.299  15.059
  143OSM   H15B15670   6.705   5.242  14.900
  143OSM   H15C15671   6.813   5.378  14.912
  143OSM    C1415672   7.004   5.237  15.061
  143OSM   H14A15673   6.968   5.224  15.161
  143OSM   H14B15674   7.039   5.337  15.040
  143OSM   H14C15675   7.086   5.165  15.046
  143OSM    C1315676   6.868   5.059  14.999
  143OSM   H13A15677   6.813   5.050  15.090
  143OSM   H13B15678   6.951   4.986  14.992
  143OSM   H13C15679   6.799   5.021  14.923
  143OSM    C1215680   6.980   5.208  14.832
  143OSM   H12A15681   6.902   5.214  14.759
  143OSM   H12B15682   7.031   5.114  14.809
  143OSM    C1115683   7.053   5.332  14.786
  143OSM   H11A15684   7.079   5.317  14.678
  143OSM   H11B15685   7.144   5.337  14.848
  143OSM      P15686   7.025   5.583  14.757
  143OSM    O1315687   6.915   5.679  14.768
  143OSM    O1415688   7.141   5.605  14.844
  143OSM    O1115689   7.066   5.560  14.607
  143OSM    O1215690   6.964   5.443  14.798
  143OSM    C1S15691   7.199   5.545  14.558
  143OSM    H1S15692   7.252   5.464  14.614
  143OSM    H1T15693   7.255   5.639  14.573
  143OSM     NF15694   7.307   5.446  14.353
  143OSM    HNF15695   7.380   5.482  14.298
  143OSM    C2S15696   7.198   5.523  14.402
  143OSM    H2S15697   7.097   5.479  14.376
  143OSM    C3S15698   7.207   5.651  14.329
  143OSM    H3S15699   7.308   5.695  14.353
  143OSM     O315700   7.092   5.724  14.362
  143OSM    HO315701   7.095   5.724  14.459
  143OSM    C4S15702   7.190   5.636  14.182
  143OSM    H4S15703   7.085   5.640  14.153
  143OSM    C5S15704   7.284   5.634  14.087
  143OSM    H5S15705   7.386   5.667  14.116
  143OSM    C6S15706   7.247   5.621  13.940
  143OSM    H6S15707   7.136   5.632  13.931
  143OSM    H6T15708   7.290   5.534  13.889
  143OSM    C7S15709   7.286   5.729  13.844
  143OSM    H7S15710   7.393   5.751  13.828
  143OSM    H7T15711   7.229   5.805  13.902
  143OSM    C8S15712   7.203   5.773  13.730
  143OSM    H8S15713   7.251   5.864  13.689
  143OSM    H8T15714   7.098   5.787  13.765
  143OSM    C9S15715   7.188   5.686  13.619
  143OSM    H9S15716   7.110   5.733  13.556
  143OSM    H9T15717   7.145   5.600  13.674
  143OSM   C10S15718   7.321   5.671  13.550
  143OSM   H10S15719   7.400   5.646  13.625
  143OSM   H10T15720   7.355   5.765  13.500
  143OSM   C11S15721   7.294   5.559  13.454
  143OSM   H11S15722   7.243   5.481  13.517
  143OSM   H11T15723   7.387   5.516  13.415
  143OSM   C12S15724   7.199   5.600  13.341
  143OSM   H12S15725   7.120   5.671  13.369
  143OSM   H12T15726   7.145   5.510  13.308
  143OSM   C13S15727   7.277   5.660  13.225
  143OSM   H13S15728   7.318   5.576  13.167
  143OSM   H13T15729   7.369   5.709  13.265
  143OSM   C14S15730   7.203   5.772  13.146
  143OSM   H14S15731   7.268   5.795  13.059
  143OSM   H14T15732   7.192   5.860  13.211
  143OSM   C15S15733   7.061   5.758  13.088
  143OSM   H15S15734   7.024   5.841  13.028
  143OSM   H15T15735   6.984   5.731  13.170
  143OSM   C16S15736   7.056   5.662  12.971
  143OSM   H16S15737   6.954   5.633  12.943
  143OSM   H16T15738   7.077   5.613  13.069
  143OSM   C17S15739   7.159   5.623  12.850
  143OSM   H17S15740   7.262   5.632  12.886
  143OSM   H17T15741   7.128   5.697  12.777
  143OSM   C18S15742   7.161   5.487  12.760
  143OSM   H18S15743   7.219   5.474  12.670
  143OSM   H18T15744   7.052   5.477  12.741
  143OSM   H18U15745   7.180   5.384  12.796
  143OSM    C1F15746   7.302   5.326  14.385
  143OSM     OF15747   7.192   5.293  14.424
  143OSM    C2F15748   7.426   5.244  14.371
  143OSM    H2F15749   7.464   5.212  14.471
  143OSM    H2G15750   7.489   5.308  14.319
  143OSM    C3F15751   7.444   5.137  14.263
  143OSM    H3F15752   7.375   5.064  14.270
  143OSM    H3G15753   7.528   5.068  14.283
  143OSM    C4F15754   7.407   5.159  14.118
  143OSM    H4F15755   7.462   5.241  14.092
  143OSM    H4G15756   7.319   5.191  14.067
  143OSM    C5F15757   7.405   5.026  14.055
  143OSM    H5F15758   7.340   4.952  14.110
  143OSM    H5G15759   7.517   5.021  14.063
  143OSM    C6F15760   7.369   4.993  13.919
  143OSM    H6F15761   7.275   5.020  13.884
  143OSM    H6G15762   7.373   4.884  13.908
  143OSM    C7F15763   7.439   5.074  13.826
  143OSM    H7F15764   7.498   5.008  13.764
  143OSM    H7G15765   7.497   5.144  13.888
  143OSM    C8F15766   7.371   5.148  13.719
  143OSM    H8F15767   7.330   5.103  13.636
  143OSM    H8G15768   7.453   5.177  13.655
  143OSM    C9F15769   7.291   5.257  13.780
  143OSM    H9F15770   7.340   5.314  13.860
  143OSM   C10F15771   7.175   5.294  13.736
  143OSM   H10F15772   7.121   5.370  13.794
  143OSM   C11F15773   7.112   5.227  13.619
  143OSM   H11F15774   7.055   5.159  13.673
  143OSM   H11G15775   7.166   5.146  13.567
  143OSM   C12F15776   7.016   5.324  13.543
  143OSM   H12F15777   7.081   5.383  13.483
  143OSM   H12G15778   6.950   5.381  13.610
  143OSM   C13F15779   6.910   5.277  13.446
  143OSM   H13F15780   6.800   5.284  13.435
  143OSM   H13G15781   6.892   5.209  13.514
  143OSM   C14F15782   6.973   5.198  13.351
  143OSM   H14F15783   6.903   5.140  13.285
  143OSM   H14G15784   7.072   5.159  13.382
  143OSM   C15F15785   7.008   5.271  13.256
  143OSM   H15F15786   7.086   5.337  13.289
  143OSM   H15G15787   6.905   5.321  13.236
  143OSM   C16F15788   7.055   5.164  13.163
  143OSM   H16F15789   7.082   5.238  13.115
  143OSM   H16G15790   6.963   5.151  13.121
  143OSM   C17F15791   7.173   5.133  13.072
  143OSM   H17F15792   7.191   5.051  13.138
  143OSM   H17G15793   7.259   5.199  13.088
  143OSM   C18F15794   7.157   5.082  12.924
  143OSM   H18F15795   7.244   5.021  12.920
  143OSM   H18G15796   7.148   5.155  12.843
  143OSM   H18H15797   7.088   5.004  12.888
  144OSM      N15798   0.279   4.673  14.897
  144OSM    C1515799   0.366   4.560  14.937
  144OSM   H15A15800   0.393   4.567  15.040
  144OSM   H15B15801   0.453   4.563  14.873
  144OSM   H15C15802   0.317   4.464  14.918
  144OSM    C1415803   0.362   4.798  14.901
  144OSM   H14A15804   0.455   4.785  14.848
  144OSM   H14B15805   0.387   4.821  15.003
  144OSM   H14C15806   0.301   4.877  14.859
  144OSM    C1315807   0.234   4.641  14.756
  144OSM   H13A15808   0.174   4.550  14.756
  144OSM   H13B15809   0.313   4.624  14.684
  144OSM   H13C15810   0.167   4.716  14.715
  144OSM    C1215811   0.161   4.688  14.994
  144OSM   H12A15812   0.198   4.700  15.095
  144OSM   H12B15813   0.100   4.598  14.987
  144OSM    C1115814   0.068   4.808  14.973
  144OSM   H11A15815   0.124   4.900  14.995
  144OSM   H11B15816  -0.018   4.808  15.046
  144OSM      P15817  -0.112   4.782  14.782
  144OSM    O1315818  -0.104   4.652  14.714
  144OSM    O1415819  -0.210   4.808  14.886
  144OSM    O1115820  -0.111   4.893  14.675
  144OSM    O1215821   0.030   4.813  14.838
  144OSM    C1S15822   0.000   4.900  14.585
  144OSM    H1S15823   0.074   4.818  14.596
  144OSM    H1T15824   0.056   4.996  14.600
  144OSM     NF15825   0.071   4.865  14.359
  144OSM    HNF15826   0.096   4.945  14.306
  144OSM    C2S15827  -0.051   4.890  14.441
  144OSM    H2S15828  -0.130   4.818  14.427
  144OSM    C3S15829  -0.126   5.023  14.416
  144OSM    H3S15830  -0.055   5.094  14.426
  144OSM     O315831  -0.189   5.067  14.528
  144OSM    HO315832  -0.213   4.992  14.582
  144OSM    C4S15833  -0.202   5.010  14.278
  144OSM    H4S15834  -0.261   4.922  14.254
  144OSM    C5S15835  -0.201   5.106  14.181
  144OSM    H5S15836  -0.149   5.199  14.205
  144OSM    C6S15837  -0.256   5.120  14.041
  144OSM    H6S15838  -0.182   5.123  13.961
  144OSM    H6T15839  -0.302   5.217  14.019
  144OSM    C7S15840  -0.326   4.993  14.014
  144OSM    H7S15841  -0.414   5.020  14.076
  144OSM    H7T15842  -0.280   4.898  14.042
  144OSM    C8S15843  -0.360   4.947  13.877
  144OSM    H8S15844  -0.396   5.035  13.845
  144OSM    H8T15845  -0.456   4.911  13.849
  144OSM    C9S15846  -0.277   4.946  13.766
  144OSM    H9S15847  -0.206   5.029  13.757
  144OSM    H9T15848  -0.339   4.903  13.683
  144OSM   C10S15849  -0.201   4.841  13.757
  144OSM   H10S15850  -0.256   4.745  13.764
  144OSM   H10T15851  -0.143   4.855  13.845
  144OSM   C11S15852  -0.105   4.869  13.645
  144OSM   H11S15853  -0.025   4.810  13.630
  144OSM   H11T15854  -0.037   4.941  13.634
  144OSM   C12S15855  -0.133   4.811  13.529
  144OSM   H12S15856  -0.207   4.887  13.542
  144OSM   H12T15857  -0.194   4.717  13.546
  144OSM   C13S15858  -0.031   4.813  13.412
  144OSM   H13S15859  -0.043   4.746  13.328
  144OSM   H13T15860   0.059   4.761  13.441
  144OSM   C14S15861  -0.013   4.947  13.349
  144OSM   H14S15862  -0.013   5.017  13.433
  144OSM   H14T15863  -0.097   4.982  13.292
  144OSM   C15S15864   0.116   4.946  13.269
  144OSM   H15S15865   0.171   4.852  13.292
  144OSM   H15T15866   0.167   5.035  13.309
  144OSM   C16S15867   0.106   4.964  13.118
  144OSM   H16S15868   0.003   4.979  13.094
  144OSM   H16T15869   0.141   4.875  13.062
  144OSM   C17S15870   0.149   5.098  13.064
  144OSM   H17S15871   0.258   5.090  13.067
  144OSM   H17T15872   0.107   5.175  13.133
  144OSM   C18S15873   0.119   5.133  12.918
  144OSM   H18S15874   0.020   5.145  12.887
  144OSM   H18T15875   0.159   5.060  12.846
  144OSM   H18U15876   0.135   5.240  12.899
  144OSM    C1F15877   0.158   4.761  14.350
  144OSM     OF15878   0.148   4.663  14.421
  144OSM    C2F15879   0.267   4.767  14.244
  144OSM    H2F15880   0.315   4.670  14.229
  144OSM    H2G15881   0.333   4.857  14.255
  144OSM    C3F15882   0.207   4.781  14.108
  144OSM    H3F15883   0.174   4.870  14.142
  144OSM    H3G15884   0.100   4.775  14.110
  144OSM    C4F15885   0.299   4.798  13.983
  144OSM    H4F15886   0.350   4.700  13.989
  144OSM    H4G15887   0.369   4.884  13.988
  144OSM    C5F15888   0.252   4.787  13.837
  144OSM    H5F15889   0.171   4.842  13.798
  144OSM    H5G15890   0.200   4.695  13.850
  144OSM    C6F15891   0.352   4.762  13.724
  144OSM    H6F15892   0.379   4.654  13.737
  144OSM    H6G15893   0.437   4.829  13.733
  144OSM    C7F15894   0.305   4.780  13.579
  144OSM    H7F15895   0.262   4.877  13.549
  144OSM    H7G15896   0.217   4.723  13.588
  144OSM    C8F15897   0.410   4.733  13.474
  144OSM    H8F15898   0.483   4.817  13.481
  144OSM    H8G15899   0.367   4.736  13.371
  144OSM    C9F15900   0.493   4.606  13.485
  144OSM    H9F15901   0.598   4.621  13.514
  144OSM   C10F15902   0.456   4.480  13.453
  144OSM   H10F15903   0.523   4.397  13.466
  144OSM   C11F15904   0.325   4.435  13.400
  144OSM   H11F15905   0.266   4.515  13.435
  144OSM   H11G15906   0.287   4.341  13.446
  144OSM   C12F15907   0.301   4.430  13.249
  144OSM   H12F15908   0.206   4.375  13.224
  144OSM   H12G15909   0.387   4.367  13.230
  144OSM   C13F15910   0.312   4.557  13.163
  144OSM   H13F15911   0.417   4.592  13.172
  144OSM   H13G15912   0.240   4.639  13.181
  144OSM   C14F15913   0.281   4.522  13.018
  144OSM   H14F15914   0.182   4.481  12.994
  144OSM   H14G15915   0.340   4.436  13.027
  144OSM   C15F15916   0.341   4.611  12.909
  144OSM   H15F15917   0.449   4.603  12.928
  144OSM   H15G15918   0.304   4.711  12.933
  144OSM   C16F15919   0.306   4.583  12.762
  144OSM   H16F15920   0.198   4.557  12.750
  144OSM   H16G15921   0.368   4.499  12.743
  144OSM   C17F15922   0.362   4.667  12.642
  144OSM   H17F15923   0.333   4.770  12.665
  144OSM   H17G15924   0.317   4.627  12.548
  144OSM   C18F15925   0.513   4.680  12.617
  144OSM   H18F15926   0.559   4.700  12.714
  144OSM   H18G15927   0.550   4.747  12.540
  144OSM   H18H15928   0.561   4.593  12.575
  145OSM      N15929   0.661   7.542  14.998
  145OSM    C1515930   0.650   7.536  15.145
  145OSM   H15A15931   0.554   7.494  15.174
  145OSM   H15B15932   0.679   7.624  15.200
  145OSM   H15C15933   0.727   7.466  15.182
  145OSM    C1415934   0.580   7.662  14.971
  145OSM   H14A15935   0.474   7.639  14.987
  145OSM   H14B15936   0.594   7.695  14.870
  145OSM   H14C15937   0.609   7.739  15.043
  145OSM    C1315938   0.807   7.562  14.964
  145OSM   H13A15939   0.821   7.532  14.860
  145OSM   H13B15940   0.873   7.498  15.023
  145OSM   H13C15941   0.844   7.663  14.975
  145OSM    C1215942   0.607   7.422  14.916
  145OSM   H12A15943   0.518   7.378  14.960
  145OSM   H12B15944   0.678   7.337  14.920
  145OSM    C1115945   0.593   7.430  14.763
  145OSM   H11A15946   0.548   7.526  14.737
  145OSM   H11B15947   0.525   7.346  14.729
  145OSM      P15948   0.776   7.283  14.693
  145OSM    O1315949   0.838   7.273  14.827
  145OSM    O1415950   0.674   7.182  14.664
  145OSM    O1115951   0.882   7.284  14.576
  145OSM    O1215952   0.719   7.427  14.698
  145OSM    C1S15953   0.838   7.332  14.447
  145OSM    H1S15954   0.928   7.367  14.390
  145OSM    H1T15955   0.769   7.417  14.454
  145OSM     NF15956   0.635   7.197  14.365
  145OSM    HNF15957   0.613   7.100  14.372
  145OSM    C2S15958   0.773   7.225  14.351
  145OSM    H2S15959   0.787   7.265  14.247
  145OSM    C3S15960   0.843   7.095  14.361
  145OSM    H3S15961   0.809   7.037  14.449
  145OSM     O315962   0.978   7.122  14.380
  145OSM    HO315963   0.994   7.216  14.392
  145OSM    C4S15964   0.807   7.011  14.239
  145OSM    H4S15965   0.734   6.932  14.253
  145OSM    C5S15966   0.852   7.026  14.115
  145OSM    H5S15967   0.937   7.094  14.102
  145OSM    C6S15968   0.810   6.936  14.002
  145OSM    H6S15969   0.768   6.843  14.042
  145OSM    H6T15970   0.889   6.885  13.947
  145OSM    C7S15971   0.720   7.007  13.901
  145OSM    H7S15972   0.768   7.096  13.856
  145OSM    H7T15973   0.630   7.039  13.958
  145OSM    C8S15974   0.678   6.907  13.792
  145OSM    H8S15975   0.630   6.822  13.847
  145OSM    H8T15976   0.766   6.869  13.737
  145OSM    C9S15977   0.581   6.957  13.686
  145OSM    H9S15978   0.491   6.983  13.745
  145OSM    H9T15979   0.553   6.874  13.618
  145OSM   C10S15980   0.625   7.059  13.582
  145OSM   H10S15981   0.723   7.031  13.543
  145OSM   H10T15982   0.643   7.149  13.643
  145OSM   C11S15983   0.520   7.070  13.465
  145OSM   H11S15984   0.422   7.115  13.493
  145OSM   H11T15985   0.485   6.971  13.434
  145OSM   C12S15986   0.555   7.157  13.344
  145OSM   H12S15987   0.586   7.257  13.375
  145OSM   H12T15988   0.458   7.174  13.291
  145OSM   C13S15989   0.658   7.100  13.248
  145OSM   H13S15990   0.761   7.110  13.287
  145OSM   H13T15991   0.650   7.163  13.156
  145OSM   C14S15992   0.636   6.952  13.218
  145OSM   H14S15993   0.530   6.943  13.203
  145OSM   H14T15994   0.656   6.889  13.307
  145OSM   C15S15995   0.704   6.897  13.092
  145OSM   H15S15996   0.669   6.792  13.078
  145OSM   H15T15997   0.814   6.894  13.107
  145OSM   C16S15998   0.675   6.976  12.964
  145OSM   H16S15999   0.694   7.084  12.978
  145OSM   H16T16000   0.568   6.965  12.934
  145OSM   C17S16001   0.766   6.932  12.848
  145OSM   H17S16002   0.726   6.980  12.756
  145OSM   H17T16003   0.757   6.822  12.836
  145OSM   C18S16004   0.913   6.973  12.865
  145OSM   H18S16005   0.923   7.070  12.915
  145OSM   H18T16006   0.962   6.984  12.766
  145OSM   H18U16007   0.971   6.901  12.926
  145OSM    C1F16008   0.544   7.289  14.357
  145OSM     OF16009   0.569   7.407  14.335
  145OSM    C2F16010   0.409   7.235  14.365
  145OSM    H2F16011   0.389   7.176  14.456
  145OSM    H2G16012   0.402   7.155  14.293
  145OSM    C3F16013   0.300   7.338  14.340
  145OSM    H3F16014   0.300   7.405  14.428
  145OSM    H3G16015   0.211   7.273  14.337
  145OSM    C4F16016   0.292   7.437  14.222
  145OSM    H4F16017   0.364   7.520  14.231
  145OSM    H4G16018   0.188   7.461  14.215
  145OSM    C5F16019   0.299   7.399  14.081
  145OSM    H5F16020   0.212   7.332  14.053
  145OSM    H5G16021   0.401   7.353  14.084
  145OSM    C6F16022   0.280   7.490  13.972
  145OSM    H6F16023   0.327   7.582  13.977
  145OSM    H6G16024   0.184   7.474  13.929
  145OSM    C7F16025   0.349   7.442  13.858
  145OSM    H7F16026   0.280   7.352  13.846
  145OSM    H7G16027   0.458   7.423  13.878
  145OSM    C8F16028   0.323   7.495  13.722
  145OSM    H8F16029   0.226   7.513  13.698
  145OSM    H8G16030   0.283   7.407  13.677
  145OSM    C9F16031   0.436   7.593  13.739
  145OSM    H9F16032   0.388   7.637  13.818
  145OSM   C10F16033   0.535   7.665  13.663
  145OSM   H10F16034   0.546   7.760  13.666
  145OSM   C11F16035   0.618   7.583  13.566
  145OSM   H11F16036   0.640   7.489  13.579
  145OSM   H11G16037   0.695   7.659  13.590
  145OSM   C12F16038   0.588   7.612  13.413
  145OSM   H12F16039   0.580   7.722  13.417
  145OSM   H12G16040   0.496   7.597  13.364
  145OSM   C13F16041   0.674   7.513  13.331
  145OSM   H13F16042   0.685   7.406  13.339
  145OSM   H13G16043   0.744   7.506  13.414
  145OSM   C14F16044   0.714   7.554  13.185
  145OSM   H14F16045   0.808   7.532  13.135
  145OSM   H14G16046   0.765   7.646  13.177
  145OSM   C15F16047   0.602   7.600  13.110
  145OSM   H15F16048   0.556   7.689  13.161
  145OSM   H15G16049   0.547   7.507  13.123
  145OSM   C16F16050   0.652   7.624  12.974
  145OSM   H16F16051   0.721   7.554  12.925
  145OSM   H16G16052   0.713   7.708  12.958
  145OSM   C17F16053   0.553   7.698  12.904
  145OSM   H17F16054   0.538   7.803  12.944
  145OSM   H17G16055   0.465   7.633  12.916
  145OSM   C18F16056   0.619   7.700  12.773
  145OSM   H18F16057   0.714   7.743  12.746
  145OSM   H18G16058   0.561   7.778  12.730
  145OSM   H18H16059   0.620   7.601  12.725
  146OSM      N16060  -0.074   0.235  14.962
  146OSM    C1516061  -0.087   0.320  15.072
  146OSM   H15A16062  -0.113   0.259  15.158
  146OSM   H15B16063  -0.141   0.412  15.063
  146OSM   H15C16064   0.018   0.347  15.086
  146OSM    C1416065   0.008   0.305  14.857
  146OSM   H14A16066   0.116   0.307  14.871
  146OSM   H14B16067  -0.019   0.409  14.859
  146OSM   H14C16068  -0.011   0.260  14.760
  146OSM    C1316069  -0.018   0.113  15.011
  146OSM   H13A16070  -0.068   0.049  15.086
  146OSM   H13B16071   0.065   0.139  15.072
  146OSM   H13C16072   0.012   0.047  14.928
  146OSM    C1216073  -0.208   0.200  14.923
  146OSM   H12A16074  -0.267   0.290  14.913
  146OSM   H12B16075  -0.250   0.137  15.003
  146OSM    C1116076  -0.210   0.122  14.796
  146OSM   H11A16077  -0.180   0.179  14.706
  146OSM   H11B16078  -0.321   0.111  14.792
  146OSM      P16079  -0.062  -0.092  14.716
  146OSM    O1316080   0.036  -0.159  14.801
  146OSM    O1416081  -0.146  -0.167  14.623
  146OSM    O1116082   0.004   0.022  14.639
  146OSM    O1216083  -0.140  -0.001  14.812
  146OSM    C1S16084   0.059  -0.016  14.516
  146OSM    H1S16085   0.069  -0.126  14.494
  146OSM    H1T16086   0.159   0.021  14.535
  146OSM     NF16087  -0.008  -0.005  14.270
  146OSM    HNF16088   0.031   0.053  14.199
  146OSM    C2S16089  -0.017   0.055  14.402
  146OSM    H2S16090  -0.126   0.056  14.423
  146OSM    C3S16091   0.041   0.197  14.404
  146OSM    H3S16092   0.152   0.198  14.398
  146OSM     O316093   0.001   0.275  14.515
  146OSM    HO316094  -0.042   0.207  14.568
  146OSM    C4S16095  -0.008   0.261  14.286
  146OSM    H4S16096  -0.114   0.247  14.278
  146OSM    C5S16097   0.062   0.310  14.182
  146OSM    H5S16098   0.168   0.297  14.185
  146OSM    C6S16099   0.018   0.377  14.058
  146OSM    H6S16100   0.066   0.475  14.042
  146OSM    H6T16101  -0.060   0.399  14.115
  146OSM    C7S16102  -0.081   0.332  13.948
  146OSM    H7S16103  -0.117   0.414  13.885
  146OSM    H7T16104  -0.166   0.276  13.989
  146OSM    C8S16105   0.003   0.249  13.867
  146OSM    H8S16106   0.024   0.180  13.950
  146OSM    H8T16107   0.075   0.325  13.843
  146OSM    C9S16108  -0.042   0.179  13.747
  146OSM    H9S16109  -0.082   0.082  13.781
  146OSM    H9T16110   0.046   0.154  13.686
  146OSM   C10S16111  -0.136   0.261  13.663
  146OSM   H10S16112  -0.097   0.365  13.646
  146OSM   H10T16113  -0.230   0.267  13.721
  146OSM   C11S16114  -0.152   0.191  13.530
  146OSM   H11S16115  -0.193   0.090  13.545
  146OSM   H11T16116  -0.049   0.181  13.487
  146OSM   C12S16117  -0.241   0.261  13.430
  146OSM   H12S16118  -0.226   0.370  13.434
  146OSM   H12T16119  -0.349   0.239  13.445
  146OSM   C13S16120  -0.200   0.216  13.294
  146OSM   H13S16121  -0.092   0.221  13.272
  146OSM   H13T16122  -0.250   0.271  13.217
  146OSM   C14S16123  -0.253   0.082  13.265
  146OSM   H14S16124  -0.261   0.015  13.353
  146OSM   H14T16125  -0.160   0.054  13.211
  146OSM   C15S16126  -0.384   0.094  13.182
  146OSM   H15S16127  -0.381   0.149  13.086
  146OSM   H15T16128  -0.471   0.131  13.242
  146OSM   C16S16129  -0.411  -0.039  13.132
  146OSM   H16S16130  -0.480  -0.047  13.046
  146OSM   H16T16131  -0.503  -0.046  13.193
  146OSM   C17S16132  -0.267  -0.111  13.125
  146OSM   H17S16133  -0.290  -0.214  13.111
  146OSM   H17T16134  -0.184  -0.188  13.120
  146OSM   C18S16135  -0.228  -0.044  13.002
  146OSM   H18S16136  -0.174   0.049  13.006
  146OSM   H18T16137  -0.323  -0.037  12.943
  146OSM   H18U16138  -0.148  -0.102  12.955
  146OSM    C1F16139  -0.054  -0.120  14.234
  146OSM     OF16140  -0.102  -0.200  14.312
  146OSM    C2F16141  -0.040  -0.145  14.090
  146OSM    H2F16142   0.013  -0.068  14.032
  146OSM    H2G16143  -0.133  -0.183  14.042
  146OSM    C3F16144   0.050  -0.257  14.077
  146OSM    H3F16145   0.064  -0.282  13.972
  146OSM    H3G16146  -0.006  -0.340  14.131
  146OSM    C4F16147   0.187  -0.244  14.128
  146OSM    H4F16148   0.219  -0.341  14.076
  146OSM    H4G16149   0.183  -0.240  14.241
  146OSM    C5F16150   0.321  -0.217  14.072
  146OSM    H5F16151   0.423  -0.220  14.111
  146OSM    H5G16152   0.299  -0.142  14.142
  146OSM    C6F16153   0.322  -0.215  13.925
  146OSM    H6F16154   0.221  -0.178  13.890
  146OSM    H6G16155   0.346  -0.316  13.897
  146OSM    C7F16156   0.442  -0.153  13.860
  146OSM    H7F16157   0.531  -0.110  13.907
  146OSM    H7G16158   0.403  -0.089  13.932
  146OSM    C8F16159   0.409  -0.120  13.710
  146OSM    H8F16160   0.299  -0.117  13.695
  146OSM    H8G16161   0.415  -0.215  13.673
  146OSM    C9F16162   0.484  -0.030  13.609
  146OSM    H9F16163   0.550   0.027  13.680
  146OSM   C10F16164   0.425   0.049  13.510
  146OSM   H10F16165   0.434   0.155  13.508
  146OSM   C11F16166   0.286   0.084  13.467
  146OSM   H11F16167   0.246   0.189  13.496
  146OSM   H11G16168   0.209   0.018  13.508
  146OSM   C12F16169   0.310   0.091  13.331
  146OSM   H12F16170   0.401   0.047  13.284
  146OSM   H12G16171   0.308   0.201  13.302
  146OSM   C13F16172   0.188   0.007  13.290
  146OSM   H13F16173   0.093   0.051  13.332
  146OSM   H13G16174   0.200  -0.095  13.334
  146OSM   C14F16175   0.195   0.005  13.138
  146OSM   H14F16176   0.191   0.103  13.183
  146OSM   H14G16177   0.296  -0.043  13.125
  146OSM   C15F16178   0.192   0.131  13.047
  146OSM   H15F16179   0.277   0.204  13.065
  146OSM   H15G16180   0.094   0.186  13.065
  146OSM   C16F16181   0.195   0.090  12.904
  146OSM   H16F16182   0.126   0.006  12.883
  146OSM   H16G16183   0.299   0.067  12.872
  146OSM   C17F16184   0.124   0.195  12.826
  146OSM   H17F16185   0.022   0.215  12.860
  146OSM   H17G16186   0.120   0.164  12.722
  146OSM   C18F16187   0.176   0.328  12.843
  146OSM   H18F16188   0.105   0.390  12.897
  146OSM   H18G16189   0.186   0.397  12.760
  146OSM   H18H16190   0.283   0.324  12.880
  147OSM      N16191   3.655   4.051  10.661
  147OSM    C1516192   3.641   3.923  10.586
  147OSM   H15A16193   3.731   3.862  10.592
  147OSM   H15B16194   3.621   3.950  10.482
  147OSM   H15C16195   3.558   3.862  10.620
  147OSM    C1416196   3.653   4.030  10.809
  147OSM   H14A16197   3.554   3.997  10.843
  147OSM   H14B16198   3.677   4.123  10.860
  147OSM   H14C16199   3.726   3.956  10.838
  147OSM    C1316200   3.791   4.101  10.626
  147OSM   H13A16201   3.801   4.103  10.518
  147OSM   H13B16202   3.864   4.031  10.664
  147OSM   H13C16203   3.807   4.198  10.669
  147OSM    C1216204   3.555   4.157  10.615
  147OSM   H12A16205   3.552   4.153  10.507
  147OSM   H12B16206   3.592   4.256  10.642
  147OSM    C1116207   3.407   4.152  10.659
  147OSM   H11A16208   3.357   4.233  10.599
  147OSM   H11B16209   3.393   4.179  10.767
  147OSM      P16210   3.198   4.000  10.624
  147OSM    O1316211   3.147   4.106  10.533
  147OSM    O1416212   3.181   3.856  10.587
  147OSM    O1116213   3.162   4.029  10.776
  147OSM    O1216214   3.355   4.024  10.628
  147OSM    C1S16215   3.173   3.924  10.873
  147OSM    H1S16216   3.250   3.849  10.844
  147OSM    H1T16217   3.075   3.872  10.883
  147OSM     NF16218   3.214   3.861  11.107
  147OSM    HNF16219   3.135   3.851  11.168
  147OSM    C2S16220   3.213   3.976  11.015
  147OSM    H2S16221   3.312   4.025  11.007
  147OSM    C3S16222   3.116   4.085  11.064
  147OSM    H3S16223   3.022   4.036  11.056
  147OSM     O316224   3.108   4.205  10.987
  147OSM    HO316225   3.157   4.181  10.908
  147OSM    C4S16226   3.154   4.126  11.205
  147OSM    H4S16227   3.247   4.180  11.211
  147OSM    C5S16228   3.095   4.099  11.323
  147OSM    H5S16229   3.015   4.031  11.330
  147OSM    C6S16230   3.121   4.134  11.463
  147OSM    H6S16231   3.024   4.135  11.520
  147OSM    H6T16232   3.154   4.237  11.466
  147OSM    C7S16233   3.214   4.034  11.530
  147OSM    H7S16234   3.316   4.054  11.491
  147OSM    H7T16235   3.190   3.928  11.506
  147OSM    C8S16236   3.209   4.052  11.682
  147OSM    H8S16237   3.108   4.028  11.720
  147OSM    H8T16238   3.223   4.158  11.709
  147OSM    C9S16239   3.309   3.961  11.753
  147OSM    H9S16240   3.306   3.860  11.707
  147OSM    H9T16241   3.279   3.949  11.859
  147OSM   C10S16242   3.453   4.012  11.748
  147OSM   H10S16243   3.485   4.038  11.644
  147OSM   H10T16244   3.511   3.922  11.776
  147OSM   C11S16245   3.475   4.130  11.845
  147OSM   H11S16246   3.419   4.114  11.940
  147OSM   H11T16247   3.439   4.224  11.800
  147OSM   C12S16248   3.619   4.147  11.889
  147OSM   H12S16249   3.634   4.237  11.954
  147OSM   H12T16250   3.681   4.162  11.797
  147OSM   C13S16251   3.667   4.021  11.961
  147OSM   H13S16252   3.766   4.037  12.009
  147OSM   H13T16253   3.679   3.943  11.883
  147OSM   C14S16254   3.590   3.969  12.079
  147OSM   H14S16255   3.494   3.923  12.048
  147OSM   H14T16256   3.569   4.048  12.154
  147OSM   C15S16257   3.681   3.862  12.140
  147OSM   H15S16258   3.783   3.904  12.158
  147OSM   H15T16259   3.692   3.781  12.065
  147OSM   C16S16260   3.621   3.814  12.270
  147OSM   H16S16261   3.514   3.788  12.253
  147OSM   H16T16262   3.626   3.901  12.339
  147OSM   C17S16263   3.693   3.694  12.330
  147OSM   H17S16264   3.803   3.702  12.315
  147OSM   H17T16265   3.659   3.601  12.280
  147OSM   C18S16266   3.662   3.687  12.480
  147OSM   H18S16267   3.696   3.591  12.523
  147OSM   H18T16268   3.553   3.699  12.497
  147OSM   H18U16269   3.713   3.772  12.532
  147OSM    C1F16270   3.304   3.764  11.093
  147OSM     OF16271   3.404   3.785  11.025
  147OSM    C2F16272   3.276   3.631  11.156
  147OSM    H2F16273   3.251   3.557  11.077
  147OSM    H2G16274   3.191   3.634  11.227
  147OSM    C3F16275   3.400   3.581  11.233
  147OSM    H3F16276   3.491   3.582  11.169
  147OSM    H3G16277   3.378   3.477  11.265
  147OSM    C4F16278   3.425   3.667  11.357
  147OSM    H4F16279   3.325   3.693  11.400
  147OSM    H4G16280   3.476   3.759  11.321
  147OSM    C5F16281   3.516   3.608  11.463
  147OSM    H5F16282   3.570   3.689  11.518
  147OSM    H5G16283   3.590   3.540  11.415
  147OSM    C6F16284   3.443   3.524  11.565
  147OSM    H6F16285   3.524   3.482  11.630
  147OSM    H6G16286   3.394   3.443  11.506
  147OSM    C7F16287   3.339   3.588  11.656
  147OSM    H7F16288   3.256   3.629  11.596
  147OSM    H7G16289   3.386   3.670  11.715
  147OSM    C8F16290   3.276   3.494  11.756
  147OSM    H8F16291   3.255   3.393  11.712
  147OSM    H8G16292   3.180   3.529  11.789
  147OSM    C9F16293   3.353   3.492  11.882
  147OSM    H9F16294   3.419   3.412  11.876
  147OSM   C10F16295   3.331   3.539  12.003
  147OSM   H10F16296   3.381   3.488  12.087
  147OSM   C11F16297   3.209   3.615  12.035
  147OSM   H11F16298   3.145   3.552  12.091
  147OSM   H11G16299   3.144   3.639  11.949
  147OSM   C12F16300   3.247   3.738  12.115
  147OSM   H12F16301   3.321   3.797  12.057
  147OSM   H12G16302   3.294   3.712  12.212
  147OSM   C13F16303   3.125   3.823  12.140
  147OSM   H13F16304   3.057   3.771  12.212
  147OSM   H13G16305   3.068   3.835  12.044
  147OSM   C14F16306   3.170   3.956  12.195
  147OSM   H14F16307   3.089   4.028  12.176
  147OSM   H14G16308   3.256   3.998  12.141
  147OSM   C15F16309   3.201   3.951  12.345
  147OSM   H15F16310   3.293   3.892  12.368
  147OSM   H15G16311   3.116   3.898  12.395
  147OSM   C16F16312   3.217   4.093  12.398
  147OSM   H16F16313   3.142   4.110  12.479
  147OSM   H16G16314   3.195   4.165  12.316
  147OSM   C17F16315   3.356   4.129  12.450
  147OSM   H17F16316   3.355   4.241  12.456
  147OSM   H17G16317   3.438   4.100  12.381
  147OSM   C18F16318   3.385   4.077  12.591
  147OSM   H18F16319   3.305   4.112  12.659
  147OSM   H18G16320   3.483   4.118  12.624
  147OSM   H18H16321   3.389   3.966  12.596
  148OSM      N16322   3.056   2.500  10.515
  148OSM    C1516323   2.970   2.386  10.478
  148OSM   H15A16324   3.029   2.320  10.414
  148OSM   H15B16325   2.888   2.422  10.418
  148OSM   H15C16326   2.938   2.331  10.565
  148OSM    C1416327   3.093   2.579  10.393
  148OSM   H14A16328   3.155   2.665  10.424
  148OSM   H14B16329   3.007   2.618  10.343
  148OSM   H14C16330   3.150   2.517  10.324
  148OSM    C1316331   2.982   2.588  10.612
  148OSM   H13A16332   2.970   2.689  10.573
  148OSM   H13B16333   3.044   2.604  10.701
  148OSM   H13C16334   2.888   2.547  10.643
  148OSM    C1216335   3.183   2.445  10.576
  148OSM   H12A16336   3.229   2.378  10.505
  148OSM   H12B16337   3.160   2.391  10.667
  148OSM    C1116338   3.286   2.549  10.622
  148OSM   H11A16339   3.305   2.625  10.543
  148OSM   H11B16340   3.384   2.498  10.642
  148OSM      P16341   3.243   2.757  10.778
  148OSM    O1316342   3.385   2.799  10.779
  148OSM    O1416343   3.149   2.830  10.691
  148OSM    O1116344   3.184   2.760  10.925
  148OSM    O1216345   3.235   2.603  10.743
  148OSM    C1S16346   3.166   2.637  10.999
  148OSM    H1S16347   3.254   2.571  10.984
  148OSM    H1T16348   3.076   2.585  10.963
  148OSM     NF16349   3.257   2.725  11.207
  148OSM    HNF16350   3.343   2.682  11.232
  148OSM    C2S16351   3.151   2.654  11.155
  148OSM    H2S16352   3.059   2.712  11.176
  148OSM    C3S16353   3.149   2.518  11.225
  148OSM    H3S16354   3.241   2.461  11.201
  148OSM     O316355   3.038   2.444  11.178
  148OSM    HO316356   2.981   2.508  11.136
  148OSM    C4S16357   3.133   2.526  11.376
  148OSM    H4S16358   3.031   2.553  11.409
  148OSM    C5S16359   3.231   2.511  11.468
  148OSM    H5S16360   3.336   2.505  11.435
  148OSM    C6S16361   3.221   2.516  11.617
  148OSM    H6S16362   3.273   2.604  11.661
  148OSM    H6T16363   3.272   2.425  11.657
  148OSM    C7S16364   3.081   2.514  11.675
  148OSM    H7S16365   3.025   2.427  11.637
  148OSM    H7T16366   3.024   2.603  11.637
  148OSM    C8S16367   3.091   2.520  11.828
  148OSM    H8S16368   3.168   2.596  11.855
  148OSM    H8T16369   3.108   2.425  11.882
  148OSM    C9S16370   2.968   2.582  11.879
  148OSM    H9S16371   2.878   2.523  11.852
  148OSM    H9T16372   2.965   2.672  11.816
  148OSM   C10S16373   2.960   2.630  12.023
  148OSM   H10S16374   2.855   2.605  12.043
  148OSM   H10T16375   2.978   2.740  12.032
  148OSM   C11S16376   3.013   2.548  12.137
  148OSM   H11S16377   3.122   2.563  12.142
  148OSM   H11T16378   2.991   2.441  12.114
  148OSM   C12S16379   2.952   2.592  12.271
  148OSM   H12S16380   2.978   2.512  12.343
  148OSM   H12T16381   2.840   2.602  12.269
  148OSM   C13S16382   3.007   2.727  12.320
  148OSM   H13S16383   3.003   2.801  12.237
  148OSM   H13T16384   3.113   2.716  12.349
  148OSM   C14S16385   2.922   2.785  12.434
  148OSM   H14S16386   2.819   2.795  12.391
  148OSM   H14T16387   2.956   2.887  12.461
  148OSM   C15S16388   2.913   2.699  12.562
  148OSM   H15S16389   2.868   2.600  12.537
  148OSM   H15T16390   2.846   2.755  12.628
  148OSM   C16S16391   3.039   2.687  12.649
  148OSM   H16S16392   3.060   2.789  12.689
  148OSM   H16T16393   3.125   2.656  12.585
  148OSM   C17S16394   3.024   2.597  12.773
  148OSM   H17S16395   2.923   2.614  12.817
  148OSM   H17T16396   3.098   2.626  12.851
  148OSM   C18S16397   3.039   2.449  12.743
  148OSM   H18S16398   3.029   2.385  12.833
  148OSM   H18T16399   3.136   2.427  12.693
  148OSM   H18U16400   2.958   2.424  12.671
  148OSM    C1F16401   3.262   2.851  11.192
  148OSM     OF16402   3.177   2.932  11.155
  148OSM    C2F16403   3.389   2.887  11.225
  148OSM    H2F16404   3.400   2.969  11.147
  148OSM    H2G16405   3.470   2.812  11.209
  148OSM    C3F16406   3.388   2.936  11.371
  148OSM    H3F16407   3.330   3.030  11.373
  148OSM    H3G16408   3.487   2.971  11.403
  148OSM    C4F16409   3.407   2.847  11.491
  148OSM    H4F16410   3.515   2.820  11.513
  148OSM    H4G16411   3.348   2.761  11.463
  148OSM    C5F16412   3.344   2.908  11.614
  148OSM    H5F16413   3.243   2.945  11.590
  148OSM    H5G16414   3.374   3.005  11.640
  148OSM    C6F16415   3.382   2.836  11.742
  148OSM    H6F16416   3.483   2.850  11.785
  148OSM    H6G16417   3.435   2.744  11.723
  148OSM    C7F16418   3.311   2.899  11.861
  148OSM    H7F16419   3.214   2.941  11.827
  148OSM    H7G16420   3.359   2.988  11.895
  148OSM    C8F16421   3.332   2.833  11.996
  148OSM    H8F16422   3.316   2.729  11.966
  148OSM    H8G16423   3.246   2.871  12.055
  148OSM    C9F16424   3.464   2.852  12.072
  148OSM    H9F16425   3.555   2.862  12.009
  148OSM   C10F16426   3.475   2.887  12.202
  148OSM   H10F16427   3.575   2.914  12.242
  148OSM   C11F16428   3.362   2.916  12.302
  148OSM   H11F16429   3.265   2.920  12.250
  148OSM   H11G16430   3.363   3.016  12.351
  148OSM   C12F16431   3.360   2.824  12.424
  148OSM   H12F16432   3.330   2.723  12.391
  148OSM   H12G16433   3.281   2.865  12.491
  148OSM   C13F16434   3.489   2.823  12.508
  148OSM   H13F16435   3.513   2.924  12.536
  148OSM   H13G16436   3.577   2.786  12.449
  148OSM   C14F16437   3.472   2.770  12.652
  148OSM   H14F16438   3.380   2.800  12.703
  148OSM   H14G16439   3.566   2.790  12.711
  148OSM   C15F16440   3.451   2.625  12.646
  148OSM   H15F16441   3.563   2.623  12.626
  148OSM   H15G16442   3.382   2.593  12.564
  148OSM   C16F16443   3.416   2.533  12.762
  148OSM   H16F16444   3.312   2.556  12.786
  148OSM   H16G16445   3.482   2.593  12.824
  148OSM   C17F16446   3.432   2.373  12.760
  148OSM   H17F16447   3.529   2.326  12.735
  148OSM   H17G16448   3.367   2.330  12.682
  148OSM   C18F16449   3.399   2.305  12.891
  148OSM   H18F16450   3.410   2.194  12.882
  148OSM   H18G16451   3.301   2.339  12.924
  148OSM   H18H16452   3.465   2.337  12.971
  149OSM      N16453   4.629   2.444  10.525
  149OSM    C1516454   4.777   2.453  10.504
  149OSM   H15A16455   4.831   2.390  10.575
  149OSM   H15B16456   4.816   2.553  10.524
  149OSM   H15C16457   4.801   2.421  10.405
  149OSM    C1416458   4.597   2.488  10.665
  149OSM   H14A16459   4.645   2.581  10.689
  149OSM   H14B16460   4.635   2.412  10.736
  149OSM   H14C16461   4.490   2.499  10.680
  149OSM    C1316462   4.562   2.533  10.430
  149OSM   H13A16463   4.453   2.525  10.437
  149OSM   H13B16464   4.585   2.507  10.327
  149OSM   H13C16465   4.592   2.635  10.449
  149OSM    C1216466   4.582   2.301  10.505
  149OSM   H12A16467   4.573   2.282  10.399
  149OSM   H12B16468   4.482   2.291  10.546
  149OSM    C1116469   4.671   2.192  10.566
  149OSM   H11A16470   4.756   2.175  10.496
  149OSM   H11B16471   4.613   2.096  10.572
  149OSM      P16472   4.804   2.126  10.771
  149OSM    O1316473   4.885   2.054  10.669
  149OSM    O1416474   4.870   2.182  10.891
  149OSM    O1116475   4.681   2.039  10.820
  149OSM    O1216476   4.719   2.234  10.694
  149OSM    C1S16477   4.552   2.097  10.854
  149OSM    H1S16478   4.486   2.044  10.781
  149OSM    H1T16479   4.538   2.199  10.828
  149OSM     NF16480   4.592   2.154  11.104
  149OSM    HNF16481   4.645   2.093  11.164
  149OSM    C2S16482   4.513   2.092  11.017
  149OSM    H2S16483   4.401   2.108  11.033
  149OSM    C3S16484   4.532   1.965  11.048
  149OSM    H3S16485   4.622   1.956  11.009
  149OSM     O316486   4.428   1.924  10.942
  149OSM    HO316487   4.338   1.883  10.941
  149OSM    C4S16488   4.557   1.942  11.234
  149OSM    H4S16489   4.659   1.888  11.261
  149OSM    C5S16490   4.477   1.926  11.347
  149OSM    H5S16491   4.374   1.895  11.360
  149OSM    C6S16492   4.459   1.876  11.483
  149OSM    H6S16493   4.423   1.765  11.488
  149OSM    H6T16494   4.362   1.900  11.532
  149OSM    C7S16495   4.576   1.896  11.546
  149OSM    H7S16496   4.652   1.843  11.487
  149OSM    H7T16497   4.538   1.834  11.630
  149OSM    C8S16498   4.562   2.047  11.543
  149OSM    H8S16499   4.525   2.111  11.457
  149OSM    H8T16500   4.667   2.067  11.548
  149OSM    C9S16501   4.463   2.089  11.647
  149OSM    H9S16502   4.358   2.053  11.632
  149OSM    H9T16503   4.462   2.198  11.642
  149OSM   C10S16504   4.517   2.042  11.777
  149OSM   H10S16505   4.624   2.075  11.777
  149OSM   H10T16506   4.517   1.931  11.789
  149OSM   C11S16507   4.442   2.106  11.889
  149OSM   H11S16508   4.339   2.063  11.897
  149OSM   H11T16509   4.430   2.214  11.867
  149OSM   C12S16510   4.528   2.079  12.012
  149OSM   H12S16511   4.629   2.123  11.992
  149OSM   H12T16512   4.542   1.969  12.022
  149OSM   C13S16513   4.477   2.141  12.140
  149OSM   H13S16514   4.379   2.096  12.167
  149OSM   H13T16515   4.461   2.250  12.119
  149OSM   C14S16516   4.579   2.126  12.255
  149OSM   H14S16517   4.551   2.193  12.339
  149OSM   H14T16518   4.680   2.158  12.222
  149OSM   C15S16519   4.592   1.981  12.302
  149OSM   H15S16520   4.654   1.926  12.228
  149OSM   H15T16521   4.497   1.927  12.306
  149OSM   C16S16522   4.663   1.968  12.433
  149OSM   H16S16523   4.652   1.866  12.475
  149OSM   H16T16524   4.626   2.039  12.511
  149OSM   C17S16525   4.807   1.994  12.394
  149OSM   H17S16526   4.830   2.103  12.388
  149OSM   H17T16527   4.845   1.934  12.309
  149OSM   C18S16528   4.891   1.957  12.502
  149OSM   H18S16529   4.896   1.854  12.536
  149OSM   H18T16530   4.832   2.010  12.574
  149OSM   H18U16531   4.988   2.006  12.498
  149OSM    C1F16532   4.610   2.271  11.098
  149OSM     OF16533   4.530   2.338  11.035
  149OSM    C2F16534   4.732   2.306  11.172
  149OSM    H2F16535   4.803   2.342  11.095
  149OSM    H2G16536   4.774   2.221  11.230
  149OSM    C3F16537   4.697   2.408  11.278
  149OSM    H3F16538   4.661   2.478  11.199
  149OSM    H3G16539   4.786   2.456  11.319
  149OSM    C4F16540   4.598   2.362  11.396
  149OSM    H4F16541   4.654   2.284  11.450
  149OSM    H4G16542   4.508   2.319  11.346
  149OSM    C5F16543   4.541   2.460  11.512
  149OSM    H5F16544   4.483   2.407  11.587
  149OSM    H5G16545   4.451   2.519  11.483
  149OSM    C6F16546   4.646   2.550  11.580
  149OSM    H6F16547   4.610   2.640  11.632
  149OSM    H6G16548   4.710   2.600  11.514
  149OSM    C7F16549   4.752   2.462  11.642
  149OSM    H7F16550   4.794   2.397  11.561
  149OSM    H7G16551   4.693   2.401  11.712
  149OSM    C8F16552   4.870   2.535  11.707
  149OSM    H8F16553   4.829   2.625  11.754
  149OSM    H8G16554   4.938   2.578  11.630
  149OSM    C9F16555   4.950   2.437  11.796
  149OSM    H9F16556   5.030   2.390  11.738
  149OSM   C10F16557   4.937   2.392  11.925
  149OSM   H10F16558   4.993   2.306  11.960
  149OSM   C11F16559   4.840   2.417  12.037
  149OSM   H11F16560   4.774   2.338  12.075
  149OSM   H11G16561   4.775   2.438  11.956
  149OSM   C12F16562   4.847   2.523  12.153
  149OSM   H12F16563   4.916   2.580  12.084
  149OSM   H12G16564   4.928   2.546  12.222
  149OSM   C13F16565   4.703   2.575  12.214
  149OSM   H13F16566   4.658   2.652  12.164
  149OSM   H13G16567   4.654   2.675  12.227
  149OSM   C14F16568   4.618   2.531  12.318
  149OSM   H14F16569   4.591   2.437  12.268
  149OSM   H14G16570   4.526   2.599  12.322
  149OSM   C15F16571   4.716   2.544  12.429
  149OSM   H15F16572   4.759   2.641  12.463
  149OSM   H15G16573   4.808   2.491  12.399
  149OSM   C16F16574   4.648   2.510  12.554
  149OSM   H16F16575   4.558   2.452  12.527
  149OSM   H16G16576   4.614   2.607  12.597
  149OSM   C17F16577   4.751   2.436  12.637
  149OSM   H17F16578   4.703   2.422  12.735
  149OSM   H17G16579   4.841   2.500  12.651
  149OSM   C18F16580   4.793   2.298  12.583
  149OSM   H18F16581   4.843   2.241  12.663
  149OSM   H18G16582   4.865   2.299  12.500
  149OSM   H18H16583   4.706   2.241  12.545
  150OSM      N16584   2.143   4.309  10.655
  150OSM    C1516585   2.191   4.277  10.518
  150OSM   H15A16586   2.248   4.184  10.518
  150OSM   H15B16587   2.258   4.354  10.484
  150OSM   H15C16588   2.107   4.265  10.451
  150OSM    C1416589   2.046   4.205  10.699
  150OSM   H14A16590   2.086   4.106  10.703
  150OSM   H14B16591   1.965   4.210  10.626
  150OSM   H14C16592   2.000   4.232  10.794
  150OSM    C1316593   2.264   4.308  10.743
  150OSM   H13A16594   2.241   4.328  10.847
  150OSM   H13B16595   2.331   4.387  10.710
  150OSM   H13C16596   2.318   4.215  10.733
  150OSM    C1216597   2.076   4.446  10.664
  150OSM   H12A16598   2.148   4.525  10.642
  150OSM   H12B16599   2.048   4.462  10.768
  150OSM    C1116600   1.946   4.472  10.582
  150OSM   H11A16601   1.972   4.479  10.474
  150OSM   H11B16602   1.911   4.573  10.614
  150OSM      P16603   1.695   4.396  10.642
  150OSM    O1316604   1.617   4.453  10.531
  150OSM    O1416605   1.645   4.275  10.712
  150OSM    O1116606   1.711   4.511  10.744
  150OSM    O1216607   1.847   4.371  10.601
  150OSM    C1S16608   1.791   4.502  10.859
  150OSM    H1S16609   1.843   4.601  10.863
  150OSM    H1T16610   1.865   4.421  10.854
  150OSM     NF16611   1.681   4.347  11.028
  150OSM    HNF16612   1.584   4.324  11.025
  150OSM    C2S16613   1.704   4.478  10.985
  150OSM    H2S16614   1.768   4.521  11.066
  150OSM    C3S16615   1.563   4.531  10.961
  150OSM    H3S16616   1.502   4.498  10.879
  150OSM     O316617   1.568   4.660  10.905
  150OSM    HO316618   1.658   4.687  10.928
  150OSM    C4S16619   1.481   4.542  11.088
  150OSM    H4S16620   1.387   4.507  11.097
  150OSM    C5S16621   1.513   4.557  11.210
  150OSM    H5S16622   1.622   4.569  11.199
  150OSM    C6S16623   1.423   4.578  11.337
  150OSM    H6S16624   1.318   4.574  11.321
  150OSM    H6T16625   1.399   4.688  11.360
  150OSM    C7S16626   1.455   4.517  11.479
  150OSM    H7S16627   1.492   4.415  11.471
  150OSM    H7T16628   1.385   4.560  11.554
  150OSM    C8S16629   1.537   4.596  11.572
  150OSM    H8S16630   1.519   4.694  11.519
  150OSM    H8T16631   1.587   4.572  11.473
  150OSM    C9S16632   1.649   4.582  11.720
  150OSM    H9S16633   1.659   4.476  11.737
  150OSM    H9T16634   1.607   4.643  11.801
  150OSM   C10S16635   1.820   4.645  11.755
  150OSM   H10S16636   1.868   4.737  11.710
  150OSM   H10T16637   1.908   4.606  11.696
  150OSM   C11S16638   1.872   4.663  11.883
  150OSM   H11S16639   1.781   4.707  11.919
  150OSM   H11T16640   1.958   4.737  11.884
  150OSM   C12S16641   1.900   4.518  11.894
  150OSM   H12S16642   1.990   4.496  11.832
  150OSM   H12T16643   1.815   4.458  11.853
  150OSM   C13S16644   1.913   4.485  12.036
  150OSM   H13S16645   2.010   4.531  12.066
  150OSM   H13T16646   1.906   4.377  12.050
  150OSM   C14S16647   1.805   4.549  12.118
  150OSM   H14S16648   1.701   4.534  12.080
  150OSM   H14T16649   1.835   4.653  12.113
  150OSM   C15S16650   1.811   4.513  12.263
  150OSM   H15S16651   1.795   4.404  12.270
  150OSM   H15T16652   1.715   4.554  12.298
  150OSM   C16S16653   1.946   4.555  12.334
  150OSM   H16S16654   1.987   4.650  12.296
  150OSM   H16T16655   2.009   4.475  12.291
  150OSM   C17S16656   1.956   4.565  12.494
  150OSM   H17S16657   1.938   4.469  12.518
  150OSM   H17T16658   1.879   4.568  12.572
  150OSM   C18S16659   2.047   4.636  12.586
  150OSM   H18S16660   2.062   4.570  12.676
  150OSM   H18T16661   2.073   4.739  12.594
  150OSM   H18U16662   2.136   4.631  12.535
  150OSM    C1F16663   1.770   4.258  11.050
  150OSM     OF16664   1.889   4.287  11.060
  150OSM    C2F16665   1.714   4.120  11.058
  150OSM    H2F16666   1.721   4.073  10.958
  150OSM    H2G16667   1.606   4.126  11.085
  150OSM    C3F16668   1.795   4.038  11.158
  150OSM    H3F16669   1.900   4.032  11.123
  150OSM    H3G16670   1.753   3.934  11.159
  150OSM    C4F16671   1.799   4.097  11.299
  150OSM    H4F16672   1.813   4.207  11.304
  150OSM    H4G16673   1.883   4.047  11.354
  150OSM    C5F16674   1.674   4.066  11.375
  150OSM    H5F16675   1.683   3.956  11.366
  150OSM    H5G16676   1.580   4.094  11.323
  150OSM    C6F16677   1.671   4.130  11.514
  150OSM    H6F16678   1.683   4.240  11.502
  150OSM    H6G16679   1.757   4.097  11.578
  150OSM    C7F16680   1.534   4.120  11.580
  150OSM    H7F16681   1.510   4.020  11.600
  150OSM    H7G16682   1.450   4.139  11.511
  150OSM    C8F16683   1.521   4.182  11.718
  150OSM    H8F16684   1.514   4.291  11.698
  150OSM    H8G16685   1.615   4.163  11.775
  150OSM    C9F16686   1.396   4.131  11.788
  150OSM    H9F16687   1.303   4.159  11.737
  150OSM   C10F16688   1.379   4.059  11.898
  150OSM   H10F16689   1.277   4.042  11.934
  150OSM   C11F16690   1.486   4.006  11.986
  150OSM   H11F16691   1.580   4.018  11.928
  150OSM   H11G16692   1.460   3.898  12.003
  150OSM   C12F16693   1.508   4.076  12.120
  150OSM   H12F16694   1.410   4.063  12.172
  150OSM   H12G16695   1.533   4.182  12.102
  150OSM   C13F16696   1.613   4.020  12.217
  150OSM   H13F16697   1.576   3.924  12.243
  150OSM   H13G16698   1.597   4.056  12.320
  150OSM   C14F16699   1.762   4.035  12.181
  150OSM   H14F16700   1.771   4.122  12.112
  150OSM   H14G16701   1.810   3.948  12.132
  150OSM   C15F16702   1.847   4.059  12.304
  150OSM   H15F16703   1.859   3.964  12.361
  150OSM   H15G16704   1.791   4.125  12.371
  150OSM   C16F16705   1.982   4.123  12.269
  150OSM   H16F16706   1.971   4.222  12.220
  150OSM   H16G16707   2.040   4.055  12.203
  150OSM   C17F16708   2.063   4.144  12.393
  150OSM   H17F16709   2.001   4.205  12.460
  150OSM   H17G16710   2.154   4.204  12.375
  150OSM   C18F16711   2.106   4.014  12.452
  150OSM   H18F16712   2.031   3.935  12.462
  150OSM   H18G16713   2.134   4.033  12.557
  150OSM   H18H16714   2.190   3.976  12.389
  151OSM      N16715   1.381   3.942  10.547
  151OSM    C1516716   1.528   3.930  10.558
  151OSM   H15A16717   1.572   3.937  10.460
  151OSM   H15B16718   1.550   3.833  10.603
  151OSM   H15C16719   1.570   4.009  10.622
  151OSM    C1416720   1.351   4.082  10.527
  151OSM   H14A16721   1.387   4.135  10.443
  151OSM   H14B16722   1.388   4.135  10.617
  151OSM   H14C16723   1.244   4.099  10.538
  151OSM    C1316724   1.331   3.870  10.427
  151OSM   H13A16725   1.223   3.868  10.430
  151OSM   H13B16726   1.374   3.771  10.428
  151OSM   H13C16727   1.366   3.917  10.336
  151OSM    C1216728   1.317   3.897  10.678
  151OSM   H12A16729   1.221   3.948  10.694
  151OSM   H12B16730   1.376   3.930  10.763
  151OSM    C1116731   1.298   3.746  10.695
  151OSM   H11A16732   1.232   3.710  10.616
  151OSM   H11B16733   1.250   3.727  10.794
  151OSM      P16734   1.416   3.524  10.720
  151OSM    O1316735   1.277   3.473  10.696
  151OSM    O1416736   1.528   3.456  10.654
  151OSM    O1116737   1.440   3.542  10.876
  151OSM    O1216738   1.420   3.677  10.678
  151OSM    C1S16739   1.337   3.503  10.965
  151OSM    H1S16740   1.328   3.392  10.960
  151OSM    H1T16741   1.237   3.541  10.938
  151OSM     NF16742   1.298   3.484  11.202
  151OSM    HNF16743   1.237   3.524  11.269
  151OSM    C2S16744   1.372   3.554  11.108
  151OSM    H2S16745   1.480   3.533  11.127
  151OSM    C3S16746   1.343   3.702  11.133
  151OSM    H3S16747   1.231   3.713  11.132
  151OSM     O316748   1.397   3.787  11.035
  151OSM    HO316749   1.433   3.728  10.968
  151OSM    C4S16750   1.396   3.745  11.267
  151OSM    H4S16751   1.506   3.747  11.271
  151OSM    C5S16752   1.328   3.787  11.375
  151OSM    H5S16753   1.218   3.793  11.371
  151OSM    C6S16754   1.386   3.829  11.508
  151OSM    H6S16755   1.324   3.782  11.579
  151OSM    H6T16756   1.356   3.932  11.535
  151OSM    C7S16757   1.539   3.801  11.534
  151OSM    H7S16758   1.571   3.884  11.477
  151OSM    H7T16759   1.582   3.716  11.478
  151OSM    C8S16760   1.615   3.833  11.668
  151OSM    H8S16761   1.600   3.926  11.723
  151OSM    H8T16762   1.724   3.827  11.646
  151OSM    C9S16763   1.580   3.752  11.784
  151OSM    H9S16764   1.619   3.672  11.722
  151OSM    H9T16765   1.471   3.754  11.808
  151OSM   C10S16766   1.667   3.760  11.908
  151OSM   H10S16767   1.661   3.859  11.942
  151OSM   H10T16768   1.772   3.739  11.882
  151OSM   C11S16769   1.627   3.685  12.032
  151OSM   H11S16770   1.682   3.589  12.015
  151OSM   H11T16771   1.515   3.682  12.052
  151OSM   C12S16772   1.693   3.704  12.158
  151OSM   H12S16773   1.620   3.770  12.195
  151OSM   H12T16774   1.792   3.745  12.136
  151OSM   C13S16775   1.679   3.595  12.263
  151OSM   H13S16776   1.704   3.497  12.218
  151OSM   H13T16777   1.572   3.594  12.296
  151OSM   C14S16778   1.773   3.637  12.375
  151OSM   H14S16779   1.792   3.746  12.364
  151OSM   H14T16780   1.868   3.585  12.355
  151OSM   C15S16781   1.728   3.609  12.519
  151OSM   H15S16782   1.729   3.498  12.535
  151OSM   H15T16783   1.625   3.646  12.533
  151OSM   C16S16784   1.818   3.676  12.625
  151OSM   H16S16785   1.799   3.786  12.628
  151OSM   H16T16786   1.925   3.663  12.598
  151OSM   C17S16787   1.793   3.624  12.767
  151OSM   H17S16788   1.809   3.515  12.779
  151OSM   H17T16789   1.685   3.647  12.784
  151OSM   C18S16790   1.868   3.695  12.879
  151OSM   H18S16791   1.975   3.718  12.857
  151OSM   H18T16792   1.864   3.639  12.974
  151OSM   H18U16793   1.812   3.787  12.900
  151OSM    C1F16794   1.321   3.362  11.208
  151OSM     OF16795   1.394   3.295  11.135
  151OSM    C2F16796   1.264   3.315  11.320
  151OSM    H2F16797   1.186   3.247  11.289
  151OSM    H2G16798   1.182   3.370  11.366
  151OSM    C3F16799   1.413   3.269  11.350
  151OSM    H3F16800   1.447   3.168  11.332
  151OSM    H3G16801   1.388   3.179  11.393
  151OSM    C4F16802   1.523   3.340  11.431
  151OSM    H4F16803   1.570   3.413  11.362
  151OSM    H4G16804   1.581   3.302  11.519
  151OSM    C5F16805   1.497   3.401  11.560
  151OSM    H5F16806   1.445   3.485  11.487
  151OSM    H5G16807   1.546   3.504  11.556
  151OSM    C6F16808   1.349   3.347  11.782
  151OSM    H6F16809   1.422   3.298  11.818
  151OSM    H6G16810   1.273   3.276  11.779
  151OSM    C7F16811   1.242   3.458  11.873
  151OSM    H7F16812   1.280   3.562  11.892
  151OSM    H7G16813   1.254   3.443  11.980
  151OSM    C8F16814   1.111   3.536  11.811
  151OSM    H8F16815   1.058   3.571  11.901
  151OSM    H8G16816   1.055   3.457  11.773
  151OSM    C9F16817   1.089   3.630  11.688
  151OSM    H9F16818   1.082   3.582  11.588
  151OSM   C10F16819   1.076   3.761  11.681
  151OSM   H10F16820   1.070   3.813  11.583
  151OSM   C11F16821   1.081   3.838  11.806
  151OSM   H11F16822   1.093   3.946  11.790
  151OSM   H11G16823   1.164   3.801  11.870
  151OSM   C12F16824   0.951   3.815  11.881
  151OSM   H12F16825   0.913   3.710  11.881
  151OSM   H12G16826   0.871   3.875  11.832
  151OSM   C13F16827   0.989   3.853  12.023
  151OSM   H13F16828   0.908   3.862  12.089
  151OSM   H13G16829   1.037   3.952  12.028
  151OSM   C14F16830   1.017   3.743  12.124
  151OSM   H14F16831   1.117   3.707  12.097
  151OSM   H14G16832   0.938   3.664  12.116
  151OSM   C15F16833   1.011   3.789  12.271
  151OSM   H15F16834   1.010   3.699  12.336
  151OSM   H15G16835   0.923   3.851  12.301
  151OSM   C16F16836   1.127   3.878  12.301
  151OSM   H16F16837   1.089   3.948  12.379
  151OSM   H16G16838   1.165   3.932  12.213
  151OSM   C17F16839   1.234   3.810  12.373
  151OSM   H17F16840   1.334   3.854  12.352
  151OSM   H17G16841   1.237   3.700  12.357
  151OSM   C18F16842   1.204   3.840  12.515
  151OSM   H18F16843   1.115   3.794  12.561
  151OSM   H18G16844   1.226   3.941  12.557
  151OSM   H18H16845   1.282   3.775  12.541
  152OSM      N16846   3.331   6.136  10.472
  152OSM    C1516847   3.361   6.220  10.351
  152OSM   H15A16848   3.391   6.321  10.381
  152OSM   H15B16849   3.270   6.233  10.292
  152OSM   H15C16850   3.437   6.177  10.287
  152OSM    C1416851   3.236   6.216  10.556
  152OSM   H14A16852   3.152   6.249  10.496
  152OSM   H14B16853   3.288   6.304  10.595
  152OSM   H14C16854   3.198   6.159  10.639
  152OSM    C1316855   3.267   6.008  10.427
  152OSM   H13A16856   3.317   5.968  10.340
  152OSM   H13B16857   3.161   6.019  10.407
  152OSM   H13C16858   3.275   5.932  10.504
  152OSM    C1216859   3.454   6.098  10.553
  152OSM   H12A16860   3.518   6.033  10.494
  152OSM   H12B16861   3.420   6.040  10.638
  152OSM    C1116862   3.547   6.206  10.611
  152OSM   H11A16863   3.583   6.277  10.534
  152OSM   H11B16864   3.634   6.145  10.648
  152OSM      P16865   3.577   6.352  10.822
  152OSM    O1316866   3.717   6.303  10.810
  152OSM    O1416867   3.557   6.498  10.815
  152OSM    O1116868   3.521   6.297  10.959
  152OSM    O1216869   3.483   6.276  10.717
  152OSM    C1S16870   3.412   6.205  10.972
  152OSM    H1S16871   3.412   6.129  10.890
  152OSM    H1T16872   3.314   6.259  10.966
  152OSM     NF16873   3.413   6.226  11.220
  152OSM    HNF16874   3.503   6.249  11.254
  152OSM    C2S16875   3.419   6.133  11.110
  152OSM    H2S16876   3.330   6.066  11.117
  152OSM    C3S16877   3.549   6.048  11.118
  152OSM    H3S16878   3.636   6.115  11.138
  152OSM     O316879   3.577   5.979  10.997
  152OSM    HO316880   3.538   6.036  10.930
  152OSM    C4S16881   3.538   5.951  11.232
  152OSM    H4S16882   3.449   5.886  11.229
  152OSM    C5S16883   3.622   5.940  11.336
  152OSM    H5S16884   3.708   6.007  11.347
  152OSM    C6S16885   3.602   5.840  11.446
  152OSM    H6S16886   3.664   5.750  11.425
  152OSM    H6T16887   3.498   5.800  11.444
  152OSM    C7S16888   3.619   5.903  11.588
  152OSM    H7S16889   3.578   5.823  11.653
  152OSM    H7T16890   3.553   5.990  11.600
  152OSM    C8S16891   3.757   5.954  11.642
  152OSM    H8S16892   3.782   6.055  11.608
  152OSM    H8T16893   3.841   5.907  11.597
  152OSM    C9S16894   3.796   5.913  11.786
  152OSM    H9S16895   3.896   5.952  11.810
  152OSM    H9T16896   3.812   5.806  11.811
  152OSM   C10S16897   3.685   5.941  11.881
  152OSM   H10S16898   3.599   5.872  11.859
  152OSM   H10T16899   3.656   6.045  11.860
  152OSM   C11S16900   3.735   5.913  12.021
  152OSM   H11S16901   3.834   5.962  12.031
  152OSM   H11T16902   3.749   5.803  12.034
  152OSM   C12S16903   3.642   5.968  12.127
  152OSM   H12S16904   3.602   6.066  12.091
  152OSM   H12T16905   3.704   5.986  12.218
  152OSM   C13S16906   3.530   5.869  12.163
  152OSM   H13S16907   3.581   5.770  12.180
  152OSM   H13T16908   3.465   5.855  12.074
  152OSM   C14S16909   3.446   5.905  12.287
  152OSM   H14S16910   3.511   5.896  12.376
  152OSM   H14T16911   3.365   5.828  12.297
  152OSM   C15S16912   3.370   6.039  12.287
  152OSM   H15S16913   3.294   6.033  12.205
  152OSM   H15T16914   3.436   6.125  12.263
  152OSM   C16S16915   3.287   6.065  12.415
  152OSM   H16S16916   3.212   5.984  12.425
  152OSM   H16T16917   3.229   6.159  12.406
  152OSM   C17S16918   3.363   6.071  12.548
  152OSM   H17S16919   3.435   6.156  12.545
  152OSM   H17T16920   3.420   5.977  12.562
  152OSM   C18S16921   3.265   6.090  12.665
  152OSM   H18S16922   3.192   6.006  12.671
  152OSM   H18T16923   3.209   6.185  12.650
  152OSM   H18U16924   3.316   6.094  12.764
  152OSM    C1F16925   3.304   6.292  11.257
  152OSM     OF16926   3.199   6.283  11.196
  152OSM    C2F16927   3.318   6.377  11.379
  152OSM    H2F16928   3.309   6.483  11.350
  152OSM    H2G16929   3.417   6.359  11.426
  152OSM    C3F16930   3.209   6.338  11.481
  152OSM    H3F16931   3.112   6.371  11.437
  152OSM    H3G16932   3.221   6.395  11.574
  152OSM    C4F16933   3.206   6.187  11.516
  152OSM    H4F16934   3.197   6.126  11.422
  152OSM    H4G16935   3.116   6.166  11.577
  152OSM    C5F16936   3.328   6.131  11.591
  152OSM    H5F16937   3.422   6.180  11.560
  152OSM    H5G16938   3.338   6.025  11.557
  152OSM    C6F16939   3.307   6.120  11.744
  152OSM    H6F16940   3.354   6.026  11.781
  152OSM    H6G16941   3.199   6.115  11.770
  152OSM    C7F16942   3.373   6.231  11.825
  152OSM    H7F16943   3.344   6.331  11.786
  152OSM    H7G16944   3.482   6.217  11.808
  152OSM    C8F16945   3.352   6.217  11.978
  152OSM    H8F16946   3.430   6.282  12.022
  152OSM    H8G16947   3.383   6.112  12.000
  152OSM    C9F16948   3.217   6.241  12.046
  152OSM    H9F16949   3.151   6.154  12.058
  152OSM   C10F16950   3.180   6.350  12.114
  152OSM   H10F16951   3.079   6.355  12.160
  152OSM   C11F16952   3.263   6.472  12.138
  152OSM   H11F16953   3.194   6.554  12.168
  152OSM   H11G16954   3.313   6.504  12.045
  152OSM   C12F16955   3.365   6.451  12.250
  152OSM   H12F16956   3.428   6.542  12.261
  152OSM   H12G16957   3.436   6.367  12.231
  152OSM   C13F16958   3.294   6.421  12.381
  152OSM   H13F16959   3.366   6.384  12.456
  152OSM   H13G16960   3.208   6.352  12.376
  152OSM   C14F16961   3.237   6.545  12.437
  152OSM   H14F16962   3.131   6.566  12.410
  152OSM   H14G16963   3.290   6.626  12.388
  152OSM   C15F16964   3.254   6.537  12.587
  152OSM   H15F16965   3.280   6.439  12.632
  152OSM   H15G16966   3.150   6.560  12.602
  152OSM   C16F16967   3.336   6.635  12.663
  152OSM   H16F16968   3.355   6.639  12.771
  152OSM   H16G16969   3.266   6.716  12.679
  152OSM   C17F16970   3.469   6.630  12.590
  152OSM   H17F16971   3.546   6.680  12.635
  152OSM   H17G16972   3.493   6.650  12.487
  152OSM   C18F16973   3.534   6.516  12.630
  152OSM   H18F16974   3.500   6.541  12.732
  152OSM   H18G16975   3.645   6.519  12.631
  152OSM   H18H16976   3.485   6.422  12.610
  153OSM      N16977   1.979   5.844  10.717
  153OSM    C1516978   1.918   5.832  10.580
  153OSM   H15A16979   1.994   5.855  10.505
  153OSM   H15B16980   1.830   5.894  10.567
  153OSM   H15C16981   1.886   5.732  10.559
  153OSM    C1416982   2.039   5.982  10.727
  153OSM   H14A16983   1.962   6.057  10.710
  153OSM   H14B16984   2.117   6.000  10.653
  153OSM   H14C16985   2.085   5.999  10.822
  153OSM    C1316986   1.872   5.837  10.817
  153OSM   H13A16987   1.810   5.926  10.810
  153OSM   H13B16988   1.910   5.831  10.919
  153OSM   H13C16989   1.807   5.752  10.800
  153OSM    C1216990   2.079   5.734  10.747
  153OSM   H12A16991   2.027   5.648  10.788
  153OSM   H12B16992   2.150   5.766  10.822
  153OSM    C1116993   2.157   5.678  10.628
  153OSM   H11A16994   2.090   5.622  10.559
  153OSM   H11B16995   2.227   5.602  10.671
  153OSM      P16996   2.374   5.813  10.572
  153OSM    O1316997   2.438   5.686  10.616
  153OSM    O1416998   2.425   5.876  10.449
  153OSM    O1116999   2.384   5.914  10.696
  153OSM    O1217000   2.219   5.785  10.556
  153OSM    C1S17001   2.475   5.882  10.804
  153OSM    H1S17002   2.575   5.926  10.783
  153OSM    H1T17003   2.492   5.773  10.820
  153OSM     NF17004   2.316   5.852  10.994
  153OSM    HNF17005   2.229   5.897  10.988
  153OSM    C2S17006   2.421   5.936  10.939
  153OSM    H2S17007   2.508   5.934  11.010
  153OSM    C3S17008   2.367   6.081  10.931
  153OSM    H3S17009   2.274   6.081  10.870
  153OSM     O317010   2.455   6.178  10.876
  153OSM    HO317011   2.525   6.130  10.830
  153OSM    C4S17012   2.327   6.120  11.073
  153OSM    H4S17013   2.219   6.123  11.093
  153OSM    C5S17014   2.410   6.147  11.174
  153OSM    H5S17015   2.518   6.146  11.154
  153OSM    C6S17016   2.368   6.187  11.313
  153OSM    H6S17017   2.294   6.269  11.306
  153OSM    H6T17018   2.452   6.228  11.372
  153OSM    C7S17019   2.332   6.074  11.409
  153OSM    H7S17020   2.259   6.010  11.357
  153OSM    H7T17021   2.284   6.119  11.499
  153OSM    C8S17022   2.458   5.995  11.453
  153OSM    H8S17023   2.523   6.048  11.526
  153OSM    H8T17024   2.521   5.983  11.362
  153OSM    C9S17025   2.427   5.853  11.505
  153OSM    H9S17026   2.523   5.799  11.523
  153OSM    H9T17027   2.374   5.803  11.421
  153OSM   C10S17028   2.339   5.840  11.632
  153OSM   H10S17029   2.329   5.731  11.654
  153OSM   H10T17030   2.237   5.878  11.611
  153OSM   C11S17031   2.390   5.912  11.758
  153OSM   H11S17032   2.404   6.021  11.737
  153OSM   H11T17033   2.490   5.869  11.782
  153OSM   C12S17034   2.294   5.894  11.878
  153OSM   H12S17035   2.267   5.786  11.881
  153OSM   H12T17036   2.200   5.951  11.861
  153OSM   C13S17037   2.352   5.927  12.018
  153OSM   H13S17038   2.395   6.029  12.018
  153OSM   H13T17039   2.436   5.857  12.040
  153OSM   C14S17040   2.249   5.914  12.133
  153OSM   H14S17041   2.300   5.878  12.225
  153OSM   H14T17042   2.173   5.837  12.107
  153OSM   C15S17043   2.178   6.047  12.160
  153OSM   H15S17044   2.117   6.068  12.069
  153OSM   H15T17045   2.252   6.130  12.169
  153OSM   C16S17046   2.085   6.049  12.283
  153OSM   H16S17047   2.000   5.980  12.263
  153OSM   H16T17048   2.043   6.152  12.291
  153OSM   C17S17049   2.146   6.015  12.420
  153OSM   H17S17050   2.185   5.912  12.425
  153OSM   H17T17051   2.064   6.024  12.495
  153OSM   C18S17052   2.256   6.111  12.464
  153OSM   H18S17053   2.327   6.070  12.538
  153OSM   H18T17054   2.205   6.191  12.517
  153OSM   H18U17055   2.308   6.156  12.377
  153OSM    C1F17056   2.327   5.731  11.048
  153OSM     OF17057   2.430   5.665  11.041
  153OSM    C2F17058   2.201   5.684  11.115
  153OSM    H2F17059   2.134   5.643  11.037
  153OSM    H2G17060   2.148   5.773  11.158
  153OSM    C3F17061   2.221   5.582  11.229
  153OSM    H3F17062   2.315   5.600  11.286
  153OSM    H3G17063   2.227   5.480  11.186
  153OSM    C4F17064   2.102   5.581  11.328
  153OSM    H4F17065   2.010   5.559  11.269
  153OSM    H4G17066   2.088   5.680  11.376
  153OSM    C5F17067   2.113   5.474  11.437
  153OSM    H5F17068   2.189   5.498  11.514
  153OSM    H5G17069   2.146   5.381  11.388
  153OSM    C6F17070   1.981   5.451  11.508
  153OSM    H6F17071   1.989   5.370  11.583
  153OSM    H6G17072   1.906   5.419  11.434
  153OSM    C7F17073   1.937   5.577  11.581
  153OSM    H7F17074   1.908   5.659  11.511
  153OSM    H7G17075   2.021   5.613  11.643
  153OSM    C8F17076   1.820   5.551  11.673
  153OSM    H8F17077   1.731   5.526  11.608
  153OSM    H8G17078   1.810   5.652  11.718
  153OSM    C9F17079   1.837   5.460  11.790
  153OSM    H9F17080   1.800   5.358  11.776
  153OSM   C10F17081   1.898   5.496  11.906
  153OSM   H10F17082   1.912   5.421  11.984
  153OSM   C11F17083   1.957   5.632  11.938
  153OSM   H11F17084   1.959   5.697  11.848
  153OSM   H11G17085   2.064   5.619  11.968
  153OSM   C12F17086   1.881   5.713  12.044
  153OSM   H12F17087   1.776   5.717  12.008
  153OSM   H12G17088   1.922   5.816  12.054
  153OSM   C13F17089   1.855   5.655  12.183
  153OSM   H13F17090   1.811   5.554  12.169
  153OSM   H13G17091   1.774   5.718  12.228
  153OSM   C14F17092   1.977   5.654  12.276
  153OSM   H14F17093   2.034   5.749  12.265
  153OSM   H14G17094   2.042   5.568  12.252
  153OSM   C15F17095   1.934   5.643  12.421
  153OSM   H15F17096   1.880   5.547  12.438
  153OSM   H15G17097   1.862   5.728  12.424
  153OSM   C16F17098   2.041   5.663  12.531
  153OSM   H16F17099   2.001   5.692  12.629
  153OSM   H16G17100   2.101   5.752  12.516
  153OSM   C17F17101   2.122   5.535  12.550
  153OSM   H17F17102   2.195   5.536  12.466
  153OSM   H17G17103   2.055   5.447  12.540
  153OSM   C18F17104   2.194   5.521  12.684
  153OSM   H18F17105   2.274   5.596  12.694
  153OSM   H18G17106   2.240   5.420  12.688
  153OSM   H18H17107   2.123   5.531  12.769
  154OSM      N17108   1.119   4.691  10.590
  154OSM    C1517109   1.237   4.675  10.681
  154OSM   H15A17110   1.328   4.650  10.628
  154OSM   H15B17111   1.220   4.586  10.744
  154OSM   H15C17112   1.250   4.760  10.747
  154OSM    C1417113   0.995   4.680  10.676
  154OSM   H14A17114   0.991   4.579  10.717
  154OSM   H14B17115   0.904   4.697  10.619
  154OSM   H14C17116   0.997   4.750  10.758
  154OSM    C1317117   1.117   4.821  10.521
  154OSM   H13A17118   1.196   4.833  10.447
  154OSM   H13B17119   1.128   4.901  10.595
  154OSM   H13C17120   1.023   4.836  10.470
  154OSM    C1217121   1.119   4.574  10.491
  154OSM   H12A17122   1.182   4.599  10.406
  154OSM   H12B17123   1.018   4.561  10.457
  154OSM    C1117124   1.165   4.434  10.539
  154OSM   H11A17125   1.274   4.421  10.514
  154OSM   H11B17126   1.109   4.360  10.477
  154OSM      P17127   1.122   4.267  10.725
  154OSM    O1317128   1.008   4.203  10.659
  154OSM    O1417129   1.253   4.208  10.716
  154OSM    O1117130   1.113   4.272  10.879
  154OSM    O1217131   1.139   4.416  10.679
  154OSM    C1S17132   0.998   4.325  10.935
  154OSM    H1S17133   0.917   4.251  10.917
  154OSM    H1T17134   0.976   4.424  10.890
  154OSM     NF17135   0.896   4.346  11.147
  154OSM    HNF17136   0.857   4.436  11.156
  154OSM    C2S17137   1.020   4.337  11.085
  154OSM    H2S17138   1.077   4.246  11.118
  154OSM    C3S17139   1.097   4.460  11.118
  154OSM    H3S17140   1.048   4.556  11.091
  154OSM     O317141   1.208   4.461  11.036
  154OSM    HO317142   1.220   4.372  11.002
  154OSM    C4S17143   1.129   4.464  11.266
  154OSM    H4S17144   1.211   4.400  11.302
  154OSM    C5S17145   1.069   4.550  11.352
  154OSM    H5S17146   0.988   4.611  11.311
  154OSM    C6S17147   1.091   4.569  11.501
  154OSM    H6S17148   0.992   4.570  11.550
  154OSM    H6T17149   1.134   4.670  11.520
  154OSM    C7S17150   1.167   4.465  11.583
  154OSM    H7S17151   1.260   4.438  11.536
  154OSM    H7T17152   1.122   4.365  11.575
  154OSM    C8S17153   1.195   4.510  11.729
  154OSM    H8S17154   1.109   4.559  11.776
  154OSM    H8T17155   1.279   4.584  11.725
  154OSM    C9S17156   1.234   4.392  11.817
  154OSM    H9S17157   1.306   4.346  11.748
  154OSM    H9T17158   1.149   4.323  11.834
  154OSM   C10S17159   1.303   4.422  11.951
  154OSM   H10S17160   1.383   4.497  11.935
  154OSM   H10T17161   1.351   4.329  11.991
  154OSM   C11S17162   1.209   4.479  12.056
  154OSM   H11S17163   1.176   4.578  12.017
  154OSM   H11T17164   1.264   4.495  12.152
  154OSM   C12S17165   1.081   4.401  12.086
  154OSM   H12S17166   1.012   4.402  11.998
  154OSM   H12T17167   1.031   4.459  12.166
  154OSM   C13S17168   1.103   4.258  12.132
  154OSM   H13S17169   1.184   4.249  12.208
  154OSM   H13T17170   1.135   4.194  12.046
  154OSM   C14S17171   0.974   4.201  12.192
  154OSM   H14S17172   0.969   4.109  12.133
  154OSM   H14T17173   0.885   4.263  12.171
  154OSM   C15S17174   0.980   4.158  12.339
  154OSM   H15S17175   1.084   4.128  12.357
  154OSM   H15T17176   0.911   4.071  12.351
  154OSM   C16S17177   0.948   4.261  12.448
  154OSM   H16S17178   0.923   4.207  12.542
  154OSM   H16T17179   0.860   4.320  12.416
  154OSM   C17S17180   1.062   4.360  12.479
  154OSM   H17S17181   1.017   4.434  12.549
  154OSM   H17T17182   1.087   4.413  12.385
  154OSM   C18S17183   1.189   4.306  12.545
  154OSM   H18S17184   1.248   4.389  12.585
  154OSM   H18T17185   1.254   4.253  12.474
  154OSM   H18U17186   1.167   4.238  12.630
  154OSM    C1F17187   0.835   4.238  11.186
  154OSM     OF17188   0.880   4.125  11.178
  154OSM    C2F17189   0.705   4.267  11.241
  154OSM    H2F17190   0.643   4.202  11.180
  154OSM    H2G17191   0.669   4.371  11.222
  154OSM    C3F17192   0.705   4.225  11.387
  154OSM    H3F17193   0.712   4.114  11.396
  154OSM    H3G17194   0.613   4.271  11.428
  154OSM    C4F17195   0.787   4.288  11.493
  154OSM    H4F17196   0.804   4.391  11.457
  154OSM    H4G17197   0.879   4.226  11.499
  154OSM    C5F17198   0.708   4.291  11.627
  154OSM    H5F17199   0.669   4.190  11.654
  154OSM    H5G17200   0.619   4.357  11.616
  154OSM    C6F17201   0.800   4.338  11.738
  154OSM    H6F17202   0.899   4.292  11.714
  154OSM    H6G17203   0.770   4.300  11.837
  154OSM    C7F17204   0.817   4.490  11.741
  154OSM    H7F17205   0.823   4.527  11.636
  154OSM    H7G17206   0.914   4.510  11.791
  154OSM    C8F17207   0.709   4.573  11.813
  154OSM    H8F17208   0.612   4.562  11.761
  154OSM    H8G17209   0.739   4.680  11.802
  154OSM    C9F17210   0.685   4.537  11.958
  154OSM    H9F17211   0.649   4.435  11.975
  154OSM   C10F17212   0.708   4.616  12.064
  154OSM   H10F17213   0.685   4.578  12.164
  154OSM   C11F17214   0.763   4.755  12.062
  154OSM   H11F17215   0.705   4.827  12.124
  154OSM   H11G17216   0.775   4.800  11.961
  154OSM   C12F17217   0.901   4.737  12.122
  154OSM   H12F17218   0.956   4.816  12.071
  154OSM   H12G17219   0.960   4.650  12.089
  154OSM   C13F17220   0.891   4.733  12.275
  154OSM   H13F17221   0.824   4.656  12.315
  154OSM   H13G17222   0.850   4.832  12.309
  154OSM   C14F17223   1.021   4.686  12.339
  154OSM   H14F17224   1.059   4.774  12.300
  154OSM   H14G17225   1.098   4.621  12.299
  154OSM   C15F17226   1.024   4.693  12.488
  154OSM   H15F17227   0.945   4.647  12.546
  154OSM   H15G17228   0.977   4.792  12.495
  154OSM   C16F17229   1.165   4.667  12.548
  154OSM   H16F17230   1.249   4.742  12.555
  154OSM   H16G17231   1.219   4.599  12.482
  154OSM   C17F17232   1.160   4.618  12.687
  154OSM   H17F17233   1.098   4.530  12.701
  154OSM   H17G17234   1.119   4.681  12.771
  154OSM   C18F17235   1.308   4.594  12.698
  154OSM   H18F17236   1.370   4.517  12.656
  154OSM   H18G17237   1.299   4.551  12.795
  154OSM   H18H17238   1.367   4.690  12.690
  155OSM      N17239   2.152   1.395  10.466
  155OSM    C1517240   2.289   1.458  10.479
  155OSM   H15A17241   2.363   1.387  10.515
  155OSM   H15B17242   2.285   1.538  10.554
  155OSM   H15C17243   2.327   1.500  10.387
  155OSM    C1417244   2.053   1.506  10.449
  155OSM   H14A17245   2.062   1.575  10.533
  155OSM   H14B17246   1.952   1.469  10.450
  155OSM   H14C17247   2.072   1.561  10.358
  155OSM    C1317248   2.138   1.305  10.347
  155OSM   H13A17249   2.217   1.228  10.345
  155OSM   H13B17250   2.145   1.362  10.256
  155OSM   H13C17251   2.041   1.255  10.347
  155OSM    C1217252   2.123   1.313  10.592
  155OSM   H12A17253   2.188   1.227  10.586
  155OSM   H12B17254   2.019   1.282  10.595
  155OSM    C1117255   2.153   1.379  10.728
  155OSM   H11A17256   2.261   1.403  10.730
  155OSM   H11B17257   2.136   1.306  10.812
  155OSM      P17258   1.932   1.500  10.803
  155OSM    O1317259   1.893   1.639  10.835
  155OSM    O1417260   1.850   1.433  10.699
  155OSM    O1117261   1.942   1.412  10.933
  155OSM    O1217262   2.079   1.499  10.746
  155OSM    C1S17263   2.026   1.445  11.043
  155OSM    H1S17264   2.096   1.529  11.022
  155OSM    H1T17265   2.089   1.356  11.067
  155OSM     NF17266   2.045   1.496  11.271
  155OSM    HNF17267   2.056   1.432  11.345
  155OSM    C2S17268   1.949   1.480  11.171
  155OSM    H2S17269   1.889   1.573  11.153
  155OSM    C3S17270   1.858   1.370  11.214
  155OSM    H3S17271   1.908   1.273  11.232
  155OSM     O317272   1.764   1.343  11.115
  155OSM    HO317273   1.750   1.430  11.074
  155OSM    C4S17274   1.808   1.412  11.349
  155OSM    H4S17275   1.752   1.507  11.356
  155OSM    C5S17276   1.818   1.336  11.456
  155OSM    H5S17277   1.857   1.234  11.454
  155OSM    C6S17278   1.771   1.377  11.587
  155OSM    H6S17279   1.800   1.305  11.668
  155OSM    H6T17280   1.666   1.383  11.575
  155OSM    C7S17281   1.785   1.510  11.642
  155OSM    H7S17282   1.773   1.512  11.754
  155OSM    H7T17283   1.728   1.588  11.586
  155OSM    C8S17284   1.920   1.536  11.630
  155OSM    H8S17285   1.914   1.629  11.695
  155OSM    H8T17286   1.938   1.562  11.523
  155OSM    C9S17287   2.005   1.418  11.677
  155OSM    H9S17288   2.103   1.435  11.630
  155OSM    H9T17289   1.995   1.323  11.628
  155OSM   C10S17290   1.998   1.406  11.833
  155OSM   H10S17291   1.895   1.384  11.859
  155OSM   H10T17292   2.015   1.502  11.890
  155OSM   C11S17293   2.094   1.302  11.892
  155OSM   H11S17294   2.103   1.221  11.817
  155OSM   H11T17295   2.047   1.268  11.985
  155OSM   C12S17296   2.236   1.344  11.931
  155OSM   H12S17297   2.264   1.404  11.844
  155OSM   H12T17298   2.309   1.262  11.923
  155OSM   C13S17299   2.244   1.407  12.073
  155OSM   H13S17300   2.192   1.341  12.144
  155OSM   H13T17301   2.185   1.500  12.083
  155OSM   C14S17302   2.387   1.435  12.126
  155OSM   H14S17303   2.456   1.447  12.043
  155OSM   H14T17304   2.429   1.340  12.166
  155OSM   C15S17305   2.397   1.546  12.237
  155OSM   H15S17306   2.502   1.548  12.273
  155OSM   H15T17307   2.332   1.506  12.317
  155OSM   C16S17308   2.350   1.695  12.219
  155OSM   H16S17309   2.249   1.706  12.180
  155OSM   H16T17310   2.405   1.760  12.149
  155OSM   C17S17311   2.397   1.792  12.322
  155OSM   H17S17312   2.386   1.898  12.287
  155OSM   H17T17313   2.503   1.767  12.342
  155OSM   C18S17314   2.357   1.773  12.458
  155OSM   H18S17315   2.247   1.769  12.449
  155OSM   H18T17316   2.400   1.863  12.509
  155OSM   H18U17317   2.407   1.678  12.489
  155OSM    C1F17318   2.129   1.588  11.265
  155OSM     OF17319   2.103   1.693  11.205
  155OSM    C2F17320   2.230   1.564  11.377
  155OSM    H2F17321   2.335   1.575  11.354
  155OSM    H2G17322   2.195   1.498  11.460
  155OSM    C3F17323   2.222   1.674  11.463
  155OSM    H3F17324   2.115   1.715  11.440
  155OSM    H3G17325   2.165   1.750  11.401
  155OSM    C4F17326   2.339   1.751  11.606
  155OSM    H4F17327   2.437   1.783  11.590
  155OSM    H4G17328   2.369   1.652  11.608
  155OSM    C5F17329   2.283   1.866  11.754
  155OSM    H5F17330   2.250   1.967  11.733
  155OSM    H5G17331   2.369   1.881  11.804
  155OSM    C6F17332   2.138   1.853  11.863
  155OSM    H6F17333   2.116   1.763  11.920
  155OSM    H6G17334   2.035   1.829  11.829
  155OSM    C7F17335   2.081   1.953  11.942
  155OSM    H7F17336   2.076   2.002  11.842
  155OSM    H7G17337   2.175   1.935  11.996
  155OSM    C8F17338   1.954   1.901  12.008
  155OSM    H8F17339   1.892   1.831  11.946
  155OSM    H8G17340   1.895   1.993  12.021
  155OSM    C9F17341   1.998   1.832  12.134
  155OSM    H9F17342   2.076   1.885  12.191
  155OSM   C10F17343   1.962   1.708  12.171
  155OSM   H10F17344   1.989   1.676  12.272
  155OSM   C11F17345   1.871   1.612  12.096
  155OSM   H11F17346   1.907   1.507  12.107
  155OSM   H11G17347   1.867   1.629  11.986
  155OSM   C12F17348   1.727   1.627  12.148
  155OSM   H12F17349   1.662   1.563  12.088
  155OSM   H12G17350   1.689   1.731  12.136
  155OSM   C13F17351   1.712   1.588  12.294
  155OSM   H13F17352   1.607   1.603  12.327
  155OSM   H13G17353   1.774   1.661  12.351
  155OSM   C14F17354   1.765   1.448  12.327
  155OSM   H14F17355   1.875   1.444  12.311
  155OSM   H14G17356   1.720   1.369  12.264
  155OSM   C15F17357   1.740   1.417  12.472
  155OSM   H15F17358   1.781   1.317  12.502
  155OSM   H15G17359   1.631   1.414  12.493
  155OSM   C16F17360   1.811   1.522  12.558
  155OSM   H16F17361   1.787   1.476  12.650
  155OSM   H16G17362   1.764   1.622  12.555
  155OSM   C17F17363   1.965   1.518  12.553
  155OSM   H17F17364   1.996   1.548  12.452
  155OSM   H17G17365   1.992   1.412  12.576
  155OSM   C18F17366   2.050   1.606  12.645
  155OSM   H18F17367   2.011   1.709  12.667
  155OSM   H18G17368   2.156   1.582  12.657
  155OSM   H18H17369   2.049   1.562  12.741
  156OSM      N17370   5.719   6.622  10.618
  156OSM    C1517371   5.829   6.706  10.642
  156OSM   H15A17372   5.837   6.792  10.578
  156OSM   H15B17373   5.920   6.647  10.621
  156OSM   H15C17374   5.846   6.736  10.745
  156OSM    C1417375   5.602   6.705  10.650
  156OSM   H14A17376   5.512   6.646  10.628
  156OSM   H14B17377   5.601   6.792  10.586
  156OSM   H14C17378   5.604   6.737  10.753
  156OSM    C1317379   5.727   6.583  10.475
  156OSM   H13A17380   5.831   6.577  10.442
  156OSM   H13B17381   5.671   6.655  10.416
  156OSM   H13C17382   5.678   6.488  10.462
  156OSM    C1217383   5.728   6.504  10.708
  156OSM   H12A17384   5.699   6.538  10.807
  156OSM   H12B17385   5.830   6.467  10.711
  156OSM    C1117386   5.633   6.392  10.673
  156OSM   H11A17387   5.643   6.322  10.759
  156OSM   H11B17388   5.666   6.344  10.578
  156OSM      P17389   5.391   6.325  10.662
  156OSM    O1317390   5.259   6.383  10.632
  156OSM    O1417391   5.439   6.215  10.577
  156OSM    O1117392   5.404   6.279  10.813
  156OSM    O1217393   5.500   6.439  10.657
  156OSM    C1S17394   5.349   6.353  10.920
  156OSM    H1S17395   5.238   6.347  10.916
  156OSM    H1T17396   5.379   6.461  10.917
  156OSM     NF17397   5.365   6.389  11.156
  156OSM    HNF17398   5.442   6.442  11.186
  156OSM    C2S17399   5.391   6.291  11.054
  156OSM    H2S17400   5.327   6.202  11.073
  156OSM    C3S17401   5.541   6.248  11.056
  156OSM    H3S17402   5.603   6.332  11.019
  156OSM     O317403   5.575   6.132  10.980
  156OSM    HO317404   5.495   6.111  10.930
  156OSM    C4S17405   5.577   6.228  11.202
  156OSM    H4S17406   5.645   6.302  11.247
  156OSM    C5S17407   5.531   6.128  11.278
  156OSM    H5S17408   5.485   6.041  11.229
  156OSM    C6S17409   5.567   6.110  11.422
  156OSM    H6S17410   5.678   6.100  11.421
  156OSM    H6T17411   5.513   6.021  11.461
  156OSM    C7S17412   5.569   6.213  11.532
  156OSM    H7S17413   5.467   6.253  11.536
  156OSM    H7T17414   5.645   6.289  11.503
  156OSM    C8S17415   5.606   6.150  11.669
  156OSM    H8S17416   5.708   6.106  11.668
  156OSM    H8T17417   5.534   6.067  11.688
  156OSM    C9S17418   5.599   6.256  11.779
  156OSM    H9S17419   5.503   6.309  11.763
  156OSM    H9T17420   5.679   6.332  11.762
  156OSM   C10S17421   5.610   6.204  11.925
  156OSM   H10S17422   5.709   6.236  11.965
  156OSM   H10T17423   5.609   6.093  11.923
  156OSM   C11S17424   5.504   6.265  12.021
  156OSM   H11S17425   5.400   6.238  11.992
  156OSM   H11T17426   5.515   6.376  12.008
  156OSM   C12S17427   5.519   6.235  12.172
  156OSM   H12S17428   5.618   6.276  12.202
  156OSM   H12T17429   5.518   6.125  12.190
  156OSM   C13S17430   5.408   6.298  12.260
  156OSM   H13S17431   5.308   6.280  12.214
  156OSM   H13T17432   5.423   6.408  12.259
  156OSM   C14S17433   5.397   6.254  12.408
  156OSM   H14S17434   5.345   6.157  12.419
  156OSM   H14T17435   5.338   6.333  12.460
  156OSM   C15S17436   5.528   6.239  12.483
  156OSM   H15S17437   5.591   6.161  12.437
  156OSM   H15T17438   5.513   6.212  12.590
  156OSM   C16S17439   5.601   6.368  12.478
  156OSM   H16S17440   5.546   6.450  12.531
  156OSM   H16T17441   5.628   6.400  12.375
  156OSM   C17S17442   5.732   6.348  12.538
  156OSM   H17S17443   5.747   6.306  12.640
  156OSM   H17T17444   5.724   6.449  12.573
  156OSM   C18S17445   5.841   6.323  12.431
  156OSM   H18S17446   5.841   6.225  12.382
  156OSM   H18T17447   5.932   6.308  12.490
  156OSM   H18U17448   5.874   6.409  12.370
  156OSM    C1F17449   5.244   6.419  11.200
  156OSM     OF17450   5.145   6.360  11.159
  156OSM    C2F17451   5.243   6.529  11.301
  156OSM    H2F17452   5.235   6.626  11.246
  156OSM    H2G17453   5.334   6.525  11.362
  156OSM    C3F17454   5.122   6.519  11.392
  156OSM    H3F17455   5.118   6.424  11.449
  156OSM    H3G17456   5.043   6.528  11.315
  156OSM    C4F17457   5.099   6.638  11.484
  156OSM    H4F17458   4.995   6.639  11.519
  156OSM    H4G17459   5.111   6.729  11.421
  156OSM    C5F17460   5.189   6.639  11.608
  156OSM    H5F17461   5.289   6.601  11.580
  156OSM    H5G17462   5.149   6.571  11.687
  156OSM    C6F17463   5.195   6.779  11.666
  156OSM    H6F17464   5.096   6.801  11.712
  156OSM    H6G17465   5.210   6.852  11.582
  156OSM    C7F17466   5.307   6.802  11.769
  156OSM    H7F17467   5.293   6.909  11.797
  156OSM    H7G17468   5.406   6.792  11.719
  156OSM    C8F17469   5.295   6.720  11.900
  156OSM    H8F17470   5.271   6.615  11.876
  156OSM    H8G17471   5.207   6.763  11.954
  156OSM    C9F17472   5.418   6.710  11.988
  156OSM    H9F17473   5.512   6.696  11.932
  156OSM   C10F17474   5.422   6.710  12.123
  156OSM   H10F17475   5.520   6.694  12.172
  156OSM   C11F17476   5.308   6.720  12.220
  156OSM   H11F17477   5.220   6.657  12.192
  156OSM   H11G17478   5.275   6.827  12.225
  156OSM   C12F17479   5.344   6.681  12.365
  156OSM   H12F17480   5.369   6.573  12.372
  156OSM   H12G17481   5.254   6.699  12.429
  156OSM   C13F17482   5.459   6.763  12.424
  156OSM   H13F17483   5.470   6.858  12.368
  156OSM   H13G17484   5.554   6.705  12.415
  156OSM   C14F17485   5.437   6.796  12.571
  156OSM   H14F17486   5.334   6.832  12.591
  156OSM   H14G17487   5.506   6.880  12.597
  156OSM   C15F17488   5.474   6.676  12.658
  156OSM   H15F17489   5.581   6.654  12.635
  156OSM   H15G17490   5.414   6.586  12.637
  156OSM   C16F17491   5.466   6.709  12.804
  156OSM   H16F17492   5.490   6.619  12.866
  156OSM   H16G17493   5.369   6.750  12.837
  156OSM   C17F17494   5.570   6.811  12.833
  156OSM   H17F17495   5.653   6.817  12.758
  156OSM   H17G17496   5.617   6.755  12.915
  156OSM   C18F17497   5.512   6.949  12.866
  156OSM   H18F17498   5.425   6.979  12.807
  156OSM   H18G17499   5.592   7.024  12.851
  156OSM   H18H17500   5.479   6.955  12.973
  157OSM      N17501   5.077   0.516  10.547
  157OSM    C1517502   5.037   0.381  10.596
  157OSM   H15A17503   5.091   0.301  10.545
  157OSM   H15B17504   4.931   0.362  10.579
  157OSM   H15C17505   5.059   0.374  10.701
  157OSM    C1417506   5.224   0.522  10.565
  157OSM   H14A17507   5.263   0.614  10.522
  157OSM   H14B17508   5.272   0.436  10.520
  157OSM   H14C17509   5.246   0.526  10.672
  157OSM    C1317510   5.042   0.532  10.404
  157OSM   H13A17511   4.935   0.546  10.390
  157OSM   H13B17512   5.071   0.448  10.343
  157OSM   H13C17513   5.093   0.621  10.367
  157OSM    C1217514   5.009   0.627  10.628
  157OSM   H12A17515   5.039   0.616  10.732
  157OSM   H12B17516   4.902   0.609  10.623
  157OSM    C1117517   5.036   0.777  10.589
  157OSM   H11A17518   4.967   0.845  10.643
  157OSM   H11B17519   5.011   0.792  10.481
  157OSM      P17520   5.231   0.841  10.759
  157OSM    O1317521   5.269   0.708  10.808
  157OSM    O1417522   5.336   0.947  10.748
  157OSM    O1117523   5.106   0.897  10.841
  157OSM    O1217524   5.170   0.819  10.613
  157OSM    C1S17525   5.042   0.824  10.946
  157OSM    H1S17526   5.033   0.715  10.924
  157OSM    H1T17527   4.937   0.860  10.955
  157OSM     NF17528   5.045   0.768  11.185
  157OSM    HNF17529   4.972   0.804  11.241
  157OSM    C2S17530   5.108   0.848  11.086
  157OSM    H2S17531   5.215   0.819  11.078
  157OSM    C3S17532   5.107   0.994  11.134
  157OSM    H3S17533   4.999   1.028  11.139
  157OSM     O317534   5.184   1.082  11.054
  157OSM    HO317535   5.194   1.038  10.968
  157OSM    C4S17536   5.166   1.010  11.272
  157OSM    H4S17537   5.103   1.058  11.348
  157OSM    C5S17538   5.292   0.977  11.305
  157OSM    H5S17539   5.361   0.937  11.229
  157OSM    C6S17540   5.349   0.996  11.442
  157OSM    H6S17541   5.325   1.099  11.478
  157OSM    H6T17542   5.460   0.991  11.433
  157OSM    C7S17543   5.302   0.894  11.547
  157OSM    H7S17544   5.354   0.797  11.529
  157OSM    H7T17545   5.192   0.875  11.540
  157OSM    C8S17546   5.331   0.942  11.689
  157OSM    H8S17547   5.280   1.039  11.705
  157OSM    H8T17548   5.440   0.962  11.699
  157OSM    C9S17549   5.277   0.845  11.796
  157OSM    H9S17550   5.311   0.741  11.776
  157OSM    H9T17551   5.166   0.844  11.786
  157OSM   C10S17552   5.312   0.890  11.939
  157OSM   H10S17553   5.263   0.990  11.948
  157OSM   H10T17554   5.421   0.901  11.953
  157OSM   C11S17555   5.250   0.807  12.053
  157OSM   H11S17556   5.147   0.790  12.016
  157OSM   H11T17557   5.236   0.870  12.143
  157OSM   C12S17558   5.325   0.677  12.098
  157OSM   H12S17559   5.429   0.694  12.125
  157OSM   H12T17560   5.357   0.615  12.013
  157OSM   C13S17561   5.239   0.588  12.194
  157OSM   H13S17562   5.279   0.485  12.205
  157OSM   H13T17563   5.135   0.572  12.157
  157OSM   C14S17564   5.200   0.648  12.327
  157OSM   H14S17565   5.131   0.574  12.374
  157OSM   H14T17566   5.138   0.739  12.309
  157OSM   C15S17567   5.324   0.678  12.410
  157OSM   H15S17568   5.376   0.765  12.366
  157OSM   H15T17569   5.393   0.590  12.406
  157OSM   C16S17570   5.288   0.715  12.553
  157OSM   H16S17571   5.186   0.759  12.554
  157OSM   H16T17572   5.355   0.793  12.594
  157OSM   C17S17573   5.297   0.599  12.651
  157OSM   H17S17574   5.263   0.650  12.741
  157OSM   H17T17575   5.402   0.565  12.663
  157OSM   C18S17576   5.215   0.477  12.620
  157OSM   H18S17577   5.239   0.393  12.689
  157OSM   H18T17578   5.241   0.446  12.517
  157OSM   H18U17579   5.106   0.496  12.625
  157OSM    C1F17580   5.070   0.641  11.195
  157OSM     OF17581   5.147   0.580  11.122
  157OSM    C2F17582   4.983   0.577  11.291
  157OSM    H2F17583   5.014   0.470  11.302
  157OSM    H2G17584   4.878   0.599  11.257
  157OSM    C3F17585   4.980   0.618  11.431
  157OSM    H3F17586   4.957   0.726  11.437
  157OSM    H3G17587   5.078   0.587  11.473
  157OSM    C4F17588   4.873   0.537  11.499
  157OSM    H4F17589   4.892   0.426  11.496
  157OSM    H4G17590   4.770   0.558  11.465
  157OSM    C5F17591   4.879   0.580  11.637
  157OSM    H5F17592   4.988   0.583  11.667
  157OSM    H5G17593   4.818   0.510  11.695
  157OSM    C6F17594   4.823   0.713  11.670
  157OSM    H6F17595   4.717   0.727  11.642
  157OSM    H6G17596   4.885   0.789  11.617
  157OSM    C7F17597   4.855   0.729  11.820
  157OSM    H7F17598   4.961   0.716  11.820
  157OSM    H7G17599   4.795   0.704  11.912
  157OSM    C8F17600   4.885   0.862  11.856
  157OSM    H8F17601   4.779   0.845  11.818
  157OSM    H8G17602   4.927   0.910  11.770
  157OSM    C9F17603   4.927   0.929  11.992
  157OSM    H9F17604   5.024   0.976  11.973
  157OSM   C10F17605   4.876   0.957  12.118
  157OSM   H10F17606   4.941   1.003  12.193
  157OSM   C11F17607   4.743   0.933  12.186
  157OSM   H11F17608   4.684   0.938  12.103
  157OSM   H11G17609   4.691   1.018  12.237
  157OSM   C12F17610   4.719   0.796  12.252
  157OSM   H12F17611   4.763   0.717  12.187
  157OSM   H12G17612   4.612   0.770  12.265
  157OSM   C13F17613   4.789   0.792  12.387
  157OSM   H13F17614   4.758   0.883  12.444
  157OSM   H13G17615   4.897   0.798  12.362
  157OSM   C14F17616   4.760   0.666  12.468
  157OSM   H14F17617   4.761   0.576  12.404
  157OSM   H14G17618   4.658   0.670  12.510
  157OSM   C15F17619   4.863   0.643  12.578
  157OSM   H15F17620   4.946   0.717  12.570
  157OSM   H15G17621   4.907   0.541  12.567
  157OSM   C16F17622   4.801   0.660  12.715
  157OSM   H16F17623   4.707   0.602  12.719
  157OSM   H16G17624   4.775   0.767  12.732
  157OSM   C17F17625   4.896   0.617  12.823
  157OSM   H17F17626   4.988   0.677  12.829
  157OSM   H17G17627   4.924   0.509  12.806
  157OSM   C18F17628   4.840   0.636  12.959
  157OSM   H18F17629   4.822   0.534  12.971
  157OSM   H18G17630   4.752   0.698  12.981
  157OSM   H18H17631   4.906   0.633  13.042
  158OSM      N17632   1.705   6.606  10.543
  158OSM    C1517633   1.769   6.741  10.545
  158OSM   H15A17634   1.697   6.821  10.536
  158OSM   H15B17635   1.842   6.751  10.466
  158OSM   H15C17636   1.825   6.753  10.638
  158OSM    C1417637   1.602   6.604  10.650
  158OSM   H14A17638   1.522   6.666  10.614
  158OSM   H14B17639   1.642   6.649  10.741
  158OSM   H14C17640   1.562   6.505  10.672
  158OSM    C1317641   1.636   6.589  10.414
  158OSM   H13A17642   1.575   6.676  10.389
  158OSM   H13B17643   1.573   6.502  10.415
  158OSM   H13C17644   1.708   6.579  10.334
  158OSM    C1217645   1.810   6.496  10.555
  158OSM   H12A17646   1.878   6.508  10.472
  158OSM   H12B17647   1.760   6.401  10.545
  158OSM    C1117648   1.897   6.482  10.681
  158OSM   H11A17649   1.965   6.395  10.662
  158OSM   H11B17650   1.833   6.453  10.768
  158OSM      P17651   2.123   6.596  10.738
  158OSM    O1317652   2.148   6.490  10.838
  158OSM    O1417653   2.192   6.591  10.606
  158OSM    O1117654   2.155   6.739  10.804
  158OSM    O1217655   1.967   6.603  10.708
  158OSM    C1S17656   2.054   6.817  10.870
  158OSM    H1S17657   1.956   6.813  10.818
  158OSM    H1T17658   2.086   6.924  10.870
  158OSM     NF17659   1.905   6.819  11.067
  158OSM    HNF17660   1.909   6.904  11.119
  158OSM    C2S17661   2.028   6.769  11.016
  158OSM    H2S17662   2.032   6.657  11.017
  158OSM    C3S17663   2.136   6.813  11.108
  158OSM    H3S17664   2.131   6.926  11.108
  158OSM     O317665   2.256   6.750  11.065
  158OSM    HO317666   2.267   6.771  10.971
  158OSM    C4S17667   2.129   6.770  11.247
  158OSM    H4S17668   2.101   6.665  11.253
  158OSM    C5S17669   2.142   6.838  11.362
  158OSM    H5S17670   2.161   6.948  11.364
  158OSM    C6S17671   2.132   6.757  11.488
  158OSM    H6S17672   2.236   6.727  11.511
  158OSM    H6T17673   2.074   6.663  11.470
  158OSM    C7S17674   2.082   6.811  11.622
  158OSM    H7S17675   1.974   6.830  11.608
  158OSM    H7T17676   2.135   6.904  11.650
  158OSM    C8S17677   2.092   6.713  11.740
  158OSM    H8S17678   2.063   6.609  11.715
  158OSM    H8T17679   2.014   6.744  11.812
  158OSM    C9S17680   2.226   6.716  11.814
  158OSM    H9S17681   2.260   6.821  11.832
  158OSM    H9T17682   2.305   6.666  11.755
  158OSM   C10S17683   2.205   6.652  11.952
  158OSM   H10S17684   2.172   6.546  11.944
  158OSM   H10T17685   2.131   6.715  12.006
  158OSM   C11S17686   2.320   6.652  12.045
  158OSM   H11S17687   2.345   6.757  12.020
  158OSM   H11T17688   2.405   6.703  12.076
  158OSM   C12S17689   2.319   6.568  12.174
  158OSM   H12S17690   2.414   6.581  12.234
  158OSM   H12T17691   2.315   6.460  12.160
  158OSM   C13S17692   2.199   6.610  12.248
  158OSM   H13S17693   2.105   6.578  12.212
  158OSM   H13T17694   2.204   6.709  12.211
  158OSM   C14S17695   2.217   6.621  12.393
  158OSM   H14S17696   2.167   6.697  12.454
  158OSM   H14T17697   2.290   6.688  12.356
  158OSM   C15S17698   2.284   6.503  12.463
  158OSM   H15S17699   2.355   6.527  12.545
  158OSM   H15T17700   2.350   6.441  12.401
  158OSM   C16S17701   2.178   6.435  12.539
  158OSM   H16S17702   2.130   6.504  12.609
  158OSM   H16T17703   2.228   6.356  12.598
  158OSM   C17S17704   2.071   6.388  12.446
  158OSM   H17S17705   2.122   6.329  12.366
  158OSM   H17T17706   2.020   6.474  12.397
  158OSM   C18S17707   1.968   6.306  12.520
  158OSM   H18S17708   2.012   6.215  12.565
  158OSM   H18T17709   1.889   6.278  12.448
  158OSM   H18U17710   1.924   6.364  12.604
  158OSM    C1F17711   1.790   6.767  11.035
  158OSM     OF17712   1.776   6.671  10.960
  158OSM    C2F17713   1.675   6.836  11.097
  158OSM    H2F17714   1.625   6.901  11.023
  158OSM    H2G17715   1.714   6.899  11.179
  158OSM    C3F17716   1.578   6.734  11.157
  158OSM    H3F17717   1.522   6.679  11.078
  158OSM    H3G17718   1.507   6.795  11.214
  158OSM    C4F17719   1.642   6.633  11.252
  158OSM    H4F17720   1.718   6.575  11.195
  158OSM    H4G17721   1.562   6.561  11.281
  158OSM    C5F17722   1.706   6.693  11.378
  158OSM    H5F17723   1.787   6.766  11.354
  158OSM    H5G17724   1.751   6.610  11.437
  158OSM    C6F17725   1.607   6.761  11.472
  158OSM    H6F17726   1.531   6.689  11.508
  158OSM    H6G17727   1.557   6.847  11.421
  158OSM    C7F17728   1.684   6.815  11.591
  158OSM    H7F17729   1.749   6.881  11.534
  158OSM    H7G17730   1.752   6.741  11.638
  158OSM    C8F17731   1.598   6.890  11.692
  158OSM    H8F17732   1.522   6.949  11.637
  158OSM    H8G17733   1.642   6.973  11.748
  158OSM    C9F17734   1.534   6.789  11.782
  158OSM    H9F17735   1.443   6.761  11.737
  158OSM   C10F17736   1.566   6.702  11.877
  158OSM   H10F17737   1.484   6.648  11.928
  158OSM   C11F17738   1.701   6.678  11.928
  158OSM   H11F17739   1.767   6.744  11.877
  158OSM   H11G17740   1.738   6.583  11.889
  158OSM   C12F17741   1.704   6.689  12.080
  158OSM   H12F17742   1.809   6.671  12.112
  158OSM   H12G17743   1.639   6.611  12.123
  158OSM   C13F17744   1.649   6.820  12.140
  158OSM   H13F17745   1.545   6.850  12.120
  158OSM   H13G17746   1.697   6.894  12.074
  158OSM   C14F17747   1.677   6.826  12.293
  158OSM   H14F17748   1.702   6.923  12.338
  158OSM   H14G17749   1.765   6.765  12.318
  158OSM   C15F17750   1.556   6.814  12.379
  158OSM   H15F17751   1.546   6.707  12.389
  158OSM   H15G17752   1.472   6.857  12.321
  158OSM   C16F17753   1.572   6.879  12.518
  158OSM   H16F17754   1.474   6.869  12.569
  158OSM   H16G17755   1.592   6.989  12.509
  158OSM   C17F17756   1.680   6.816  12.608
  158OSM   H17F17757   1.771   6.790  12.550
  158OSM   H17G17758   1.648   6.717  12.643
  158OSM   C18F17759   1.717   6.907  12.727
  158OSM   H18F17760   1.628   6.929  12.787
  158OSM   H18G17761   1.758   7.007  12.696
  158OSM   H18H17762   1.796   6.859  12.787
  159OSM      N17763   3.688   0.331  10.465
  159OSM    C1517764   3.625   0.330  10.330
  159OSM   H15A17765   3.698   0.366  10.261
  159OSM   H15B17766   3.538   0.395  10.330
  159OSM   H15C17767   3.594   0.232  10.298
  159OSM    C1417768   3.732   0.472  10.487
  159OSM   H14A17769   3.684   0.537  10.415
  159OSM   H14B17770   3.839   0.484  10.481
  159OSM   H14C17771   3.702   0.512  10.586
  159OSM    C1317772   3.579   0.293  10.560
  159OSM   H13A17773   3.531   0.200  10.532
  159OSM   H13B17774   3.502   0.371  10.562
  159OSM   H13C17775   3.619   0.282  10.661
  159OSM    C1217776   3.803   0.229  10.465
  159OSM   H12A17777   3.865   0.245  10.377
  159OSM   H12B17778   3.760   0.130  10.457
  159OSM    C1117779   3.897   0.217  10.586
  159OSM   H11A17780   3.966   0.306  10.586
  159OSM   H11B17781   3.959   0.125  10.569
  159OSM      P17782   3.900   0.245  10.840
  159OSM    O1317783   3.999   0.142  10.872
  159OSM    O1417784   3.944   0.386  10.833
  159OSM    O1117785   3.789   0.232  10.949
  159OSM    O1217786   3.823   0.201  10.707
  159OSM    C1S17787   3.651   0.255  10.940
  159OSM    H1S17788   3.605   0.190  10.863
  159OSM    H1T17789   3.628   0.360  10.914
  159OSM     NF17790   3.648   0.307  11.180
  159OSM    HNF17791   3.725   0.291  11.237
  159OSM    C2S17792   3.600   0.217  11.081
  159OSM    H2S17793   3.486   0.213  11.078
  159OSM    C3S17794   3.654   0.082  11.115
  159OSM    H3S17795   3.763   0.073  11.108
  159OSM     O317796   3.591  -0.018  11.032
  159OSM    HO317797   3.548   0.037  10.965
  159OSM    C4S17798   3.638   0.068  11.263
  159OSM    H4S17799   3.548   0.128  11.287
  159OSM    C5S17800   3.707   0.011  11.361
  159OSM    H5S17801   3.806  -0.015  11.332
  159OSM    C6S17802   3.688  -0.005  11.510
  159OSM    H6S17803   3.771   0.025  11.571
  159OSM    H6T17804   3.675  -0.116  11.525
  159OSM    C7S17805   3.589   0.070  11.597
  159OSM    H7S17806   3.519   0.070  11.513
  159OSM    H7T17807   3.559   0.175  11.587
  159OSM    C8S17808   3.563  -0.005  11.738
  159OSM    H8S17809   3.510  -0.102  11.754
  159OSM    H8T17810   3.484   0.033  11.794
  159OSM    C9S17811   3.664   0.014  11.844
  159OSM    H9S17812   3.736   0.061  11.777
  159OSM    H9T17813   3.671  -0.091  11.882
  159OSM   C10S17814   3.633   0.108  11.960
  159OSM   H10S17815   3.699   0.111  12.047
  159OSM   H10T17816   3.572   0.039  12.018
  159OSM   C11S17817   3.595   0.253  11.913
  159OSM   H11S17818   3.494   0.272  11.873
  159OSM   H11T17819   3.657   0.274  11.824
  159OSM   C12S17820   3.619   0.366  12.012
  159OSM   H12S17821   3.604   0.469  11.973
  159OSM   H12T17822   3.707   0.350  12.077
  159OSM   C13S17823   3.517   0.369  12.115
  159OSM   H13S17824   3.524   0.266  12.157
  159OSM   H13T17825   3.419   0.372  12.064
  159OSM   C14S17826   3.548   0.484  12.216
  159OSM   H14S17827   3.471   0.523  12.286
  159OSM   H14T17828   3.538   0.585  12.179
  159OSM   C15S17829   3.629   0.437  12.335
  159OSM   H15S17830   3.697   0.354  12.308
  159OSM   H15T17831   3.570   0.381  12.413
  159OSM   C16S17832   3.697   0.561  12.392
  159OSM   H16S17833   3.790   0.570  12.338
  159OSM   H16T17834   3.756   0.541  12.478
  159OSM   C17S17835   3.613   0.690  12.418
  159OSM   H17S17836   3.531   0.701  12.485
  159OSM   H17T17837   3.549   0.718  12.336
  159OSM   C18S17838   3.676   0.791  12.508
  159OSM   H18S17839   3.605   0.870  12.543
  159OSM   H18T17840   3.753   0.824  12.440
  159OSM   H18U17841   3.724   0.756  12.603
  159OSM    C1F17842   3.604   0.418  11.178
  159OSM     OF17843   3.486   0.416  11.151
  159OSM    C2F17844   3.711   0.524  11.195
  159OSM    H2F17845   3.678   0.622  11.228
  159OSM    H2G17846   3.768   0.540  11.100
  159OSM    C3F17847   3.795   0.514  11.320
  159OSM    H3F17848   3.871   0.596  11.307
  159OSM    H3G17849   3.840   0.415  11.319
  159OSM    C4F17850   3.717   0.540  11.450
  159OSM    H4F17851   3.640   0.464  11.473
  159OSM    H4G17852   3.660   0.630  11.451
  159OSM    C5F17853   3.806   0.573  11.566
  159OSM    H5F17854   3.859   0.671  11.551
  159OSM    H5G17855   3.881   0.493  11.556
  159OSM    C6F17856   3.730   0.577  11.699
  159OSM    H6F17857   3.674   0.482  11.717
  159OSM    H6G17858   3.660   0.662  11.708
  159OSM    C7F17859   3.834   0.584  11.807
  159OSM    H7F17860   3.791   0.584  11.911
  159OSM    H7G17861   3.880   0.688  11.796
  159OSM    C8F17862   3.924   0.458  11.786
  159OSM    H8F17863   3.994   0.486  11.697
  159OSM    H8G17864   3.878   0.362  11.781
  159OSM    C9F17865   4.034   0.443  11.873
  159OSM    H9F17866   4.032   0.554  11.856
  159OSM   C10F17867   4.088   0.372  11.977
  159OSM   H10F17868   4.158   0.404  12.056
  159OSM   C11F17869   4.041   0.236  11.993
  159OSM   H11F17870   4.135   0.182  11.980
  159OSM   H11G17871   3.967   0.216  11.917
  159OSM   C12F17872   3.984   0.227  12.137
  159OSM   H12F17873   3.973   0.120  12.130
  159OSM   H12G17874   3.880   0.255  12.152
  159OSM   C13F17875   4.075   0.264  12.260
  159OSM   H13F17876   4.062   0.367  12.296
  159OSM   H13G17877   4.182   0.251  12.230
  159OSM   C14F17878   4.057   0.179  12.386
  159OSM   H14F17879   4.127   0.211  12.466
  159OSM   H14G17880   4.072   0.072  12.373
  159OSM   C15F17881   3.924   0.172  12.445
  159OSM   H15F17882   3.853   0.105  12.390
  159OSM   H15G17883   3.884   0.274  12.455
  159OSM   C16F17884   3.951   0.109  12.576
  159OSM   H16F17885   4.018   0.160  12.649
  159OSM   H16G17886   4.008   0.016  12.558
  159OSM   C17F17887   3.814   0.083  12.623
  159OSM   H17F17888   3.816  -0.005  12.675
  159OSM   H17G17889   3.721   0.077  12.566
  159OSM   C18F17890   3.791   0.143  12.742
  159OSM   H18F17891   3.876   0.186  12.790
  159OSM   H18G17892   3.703   0.113  12.800
  159OSM   H18H17893   3.759   0.227  12.720
  160OSM      N17894   1.637   0.950  10.734
  160OSM    C1517895   1.752   0.946  10.829
  160OSM   H15A17896   1.793   0.847  10.841
  160OSM   H15B17897   1.722   0.984  10.926
  160OSM   H15C17898   1.831   1.011  10.794
  160OSM    C1417899   1.602   1.095  10.718
  160OSM   H14A17900   1.585   1.140  10.816
  160OSM   H14B17901   1.508   1.101  10.664
  160OSM   H14C17902   1.678   1.153  10.668
  160OSM    C1317903   1.672   0.888  10.602
  160OSM   H13A17904   1.757   0.933  10.552
  160OSM   H13B17905   1.588   0.897  10.532
  160OSM   H13C17906   1.687   0.781  10.611
  160OSM    C1217907   1.511   0.883  10.791
  160OSM   H12A17908   1.497   0.919  10.892
  160OSM   H12B17909   1.528   0.776  10.795
  160OSM    C1117910   1.373   0.907  10.721
  160OSM   H11A17911   1.347   1.014  10.732
  160OSM   H11B17912   1.291   0.850  10.773
  160OSM      P17913   1.361   0.729  10.531
  160OSM    O1317914   1.217   0.693  10.532
  160OSM    O1417915   1.438   0.708  10.409
  160OSM    O1117916   1.431   0.653  10.651
  160OSM    O1217917   1.375   0.878  10.582
  160OSM    C1S17918   1.401   0.521  10.694
  160OSM    H1S17919   1.418   0.449  10.610
  160OSM    H1T17920   1.297   0.511  10.719
  160OSM     NF17921   1.463   0.582  10.929
  160OSM    HNF17922   1.526   0.656  10.940
  160OSM    C2S17923   1.488   0.492  10.821
  160OSM    H2S17924   1.477   0.384  10.853
  160OSM    C3S17925   1.629   0.510  10.777
  160OSM    H3S17926   1.652   0.611  10.740
  160OSM     O317927   1.640   0.434  10.662
  160OSM    HO317928   1.580   0.360  10.681
  160OSM    C4S17929   1.724   0.476  10.894
  160OSM    H4S17930   1.736   0.371  10.925
  160OSM    C5S17931   1.798   0.569  10.958
  160OSM    H5S17932   1.799   0.672  10.921
  160OSM    C6S17933   1.890   0.546  11.075
  160OSM    H6S17934   1.996   0.571  11.059
  160OSM    H6T17935   1.889   0.439  11.107
  160OSM    C7S17936   1.833   0.648  11.179
  160OSM    H7S17937   1.730   0.617  11.209
  160OSM    H7T17938   1.839   0.753  11.147
  160OSM    C8S17939   1.913   0.661  11.306
  160OSM    H8S17940   2.023   0.663  11.281
  160OSM    H8T17941   1.873   0.565  11.343
  160OSM    C9S17942   1.883   0.756  11.424
  160OSM    H9S17943   1.846   0.853  11.391
  160OSM    H9T17944   1.983   0.782  11.468
  160OSM   C10S17945   1.791   0.688  11.532
  160OSM   H10S17946   1.823   0.585  11.561
  160OSM   H10T17947   1.693   0.673  11.484
  160OSM   C11S17948   1.777   0.765  11.664
  160OSM   H11S17949   1.765   0.872  11.637
  160OSM   H11T17950   1.868   0.757  11.728
  160OSM   C12S17951   1.659   0.724  11.753
  160OSM   H12S17952   1.676   0.623  11.796
  160OSM   H12T17953   1.563   0.722  11.697
  160OSM   C13S17954   1.648   0.828  11.865
  160OSM   H13S17955   1.614   0.925  11.821
  160OSM   H13T17956   1.750   0.845  11.906
  160OSM   C14S17957   1.550   0.796  11.977
  160OSM   H14S17958   1.562   0.693  12.018
  160OSM   H14T17959   1.452   0.803  11.925
  160OSM   C15S17960   1.554   0.900  12.090
  160OSM   H15S17961   1.457   0.950  12.105
  160OSM   H15T17962   1.624   0.979  12.054
  160OSM   C16S17963   1.609   0.853  12.226
  160OSM   H16S17964   1.637   0.946  12.280
  160OSM   H16T17965   1.699   0.792  12.205
  160OSM   C17S17966   1.515   0.773  12.319
  160OSM   H17S17967   1.488   0.678  12.268
  160OSM   H17T17968   1.421   0.831  12.335
  160OSM   C18S17969   1.574   0.738  12.457
  160OSM   H18S17970   1.512   0.659  12.504
  160OSM   H18T17971   1.573   0.826  12.525
  160OSM   H18U17972   1.678   0.700  12.450
  160OSM    C1F17973   1.366   0.550  11.011
  160OSM     OF17974   1.300   0.454  10.981
  160OSM    C2F17975   1.345   0.620  11.136
  160OSM    H2F17976   1.239   0.654  11.138
  160OSM    H2G17977   1.415   0.704  11.147
  160OSM    C3F17978   1.357   0.520  11.252
  160OSM    H3F17979   1.458   0.474  11.259
  160OSM    H3G17980   1.285   0.436  11.240
  160OSM    C4F17981   1.326   0.600  11.378
  160OSM    H4F17982   1.219   0.631  11.373
  160OSM    H4G17983   1.389   0.691  11.380
  160OSM    C5F17984   1.352   0.526  11.508
  160OSM    H5F17985   1.338   0.605  11.586
  160OSM    H5G17986   1.456   0.492  11.522
  160OSM    C6F17987   1.257   0.407  11.517
  160OSM    H6F17988   1.266   0.324  11.447
  160OSM    H6G17989   1.156   0.452  11.491
  160OSM    C7F17990   1.271   0.324  11.644
  160OSM    H7F17991   1.362   0.335  11.711
  160OSM    H7G17992   1.202   0.234  11.652
  160OSM    C8F17993   1.195   0.405  11.722
  160OSM    H8F17994   1.101   0.407  11.660
  160OSM    H8G17995   1.236   0.508  11.718
  160OSM    C9F17996   1.187   0.344  11.855
  160OSM    H9F17997   1.071   0.336  11.873
  160OSM   C10F17998   1.240   0.419  11.949
  160OSM   H10F17999   1.151   0.372  12.005
  160OSM   C11F18000   1.319   0.576  12.011
  160OSM   H11F18001   1.332   0.659  11.940
  160OSM   H11G18002   1.417   0.554  12.050
  160OSM   C12F18003   1.257   0.734  12.101
  160OSM   H12F18004   1.314   0.825  12.092
  160OSM   H12G18005   1.264   0.717  12.212
  160OSM   C13F18006   1.101   0.808  12.093
  160OSM   H13F18007   1.004   0.751  12.092
  160OSM   H13G18008   1.081   0.853  11.995
  160OSM   C14F18009   1.040   0.887  12.205
  160OSM   H14F18010   0.933   0.905  12.180
  160OSM   H14G18011   1.107   0.973  12.206
  160OSM   C15F18012   1.024   0.810  12.331
  160OSM   H15F18013   1.117   0.753  12.347
  160OSM   H15G18014   0.931   0.746  12.331
  160OSM   C16F18015   1.027   0.884  12.458
  160OSM   H16F18016   0.988   0.823  12.535
  160OSM   H16G18017   0.959   0.957  12.473
  160OSM   C17F18018   1.126   0.985  12.485
  160OSM   H17F18019   1.082   1.083  12.521
  160OSM   H17G18020   1.165   1.006  12.383
  160OSM   C18F18021   1.221   0.931  12.590
  160OSM   H18F18022   1.247   0.828  12.563
  160OSM   H18G18023   1.174   0.950  12.690
  160OSM   H18H18024   1.321   0.966  12.605
  161OSM      N18025   6.418   6.062  10.643
  161OSM    C1518026   6.295   6.075  10.727
  161OSM   H15A18027   6.208   6.081  10.663
  161OSM   H15B18028   6.296   6.173  10.775
  161OSM   H15C18029   6.284   5.996  10.799
  161OSM    C1418030   6.536   6.108  10.724
  161OSM   H14A18031   6.615   6.146  10.659
  161OSM   H14B18032   6.574   6.028  10.787
  161OSM   H14C18033   6.509   6.190  10.791
  161OSM    C1318034   6.440   5.921  10.605
  161OSM   H13A18035   6.358   5.883  10.545
  161OSM   H13B18036   6.445   5.858  10.694
  161OSM   H13C18037   6.535   5.910  10.555
  161OSM    C1218038   6.399   6.146  10.519
  161OSM   H12A18039   6.301   6.123  10.478
  161OSM   H12B18040   6.473   6.110  10.448
  161OSM    C1118041   6.397   6.300  10.531
  161OSM   H11A18042   6.345   6.339  10.440
  161OSM   H11B18043   6.499   6.343  10.532
  161OSM      P18044   6.282   6.489  10.664
  161OSM    O1318045   6.404   6.567  10.635
  161OSM    O1418046   6.162   6.502  10.577
  161OSM    O1118047   6.242   6.497  10.820
  161OSM    O1218048   6.327   6.338  10.650
  161OSM    C1S18049   6.243   6.376  10.895
  161OSM    H1S18050   6.341   6.324  10.884
  161OSM    H1T18051   6.159   6.312  10.860
  161OSM     NF18052   6.239   6.268  11.115
  161OSM    HNF18053   6.162   6.205  11.122
  161OSM    C2S18054   6.222   6.396  11.048
  161OSM    H2S18055   6.296   6.472  11.087
  161OSM    C3S18056   6.082   6.452  11.067
  161OSM    H3S18057   6.012   6.377  11.022
  161OSM     O318058   6.063   6.577  11.004
  161OSM    HO318059   6.138   6.581  10.942
  161OSM    C4S18060   6.051   6.466  11.211
  161OSM    H4S18061   6.114   6.539  11.266
  161OSM    C5S18062   5.953   6.396  11.270
  161OSM    H5S18063   5.897   6.324  11.208
  161OSM    C6S18064   5.913   6.402  11.414
  161OSM    H6S18065   5.929   6.301  11.457
  161OSM    H6T18066   5.806   6.428  11.428
  161OSM    C7S18067   5.992   6.504  11.497
  161OSM    H7S18068   5.986   6.604  11.448
  161OSM    H7T18069   6.099   6.473  11.498
  161OSM    C8S18070   5.932   6.514  11.639
  161OSM    H8S18071   5.823   6.532  11.629
  161OSM    H8T18072   5.973   6.602  11.691
  161OSM    C9S18073   5.955   6.387  11.725
  161OSM    H9S18074   5.932   6.298  11.664
  161OSM    H9T18075   5.884   6.384  11.812
  161OSM   C10S18076   6.097   6.373  11.781
  161OSM   H10S18077   6.110   6.437  11.871
  161OSM   H10T18078   6.167   6.409  11.702
  161OSM   C11S18079   6.131   6.228  11.816
  161OSM   H11S18080   6.130   6.169  11.722
  161OSM   H11T18081   6.053   6.189  11.883
  161OSM   C12S18082   6.271   6.205  11.876
  161OSM   H12S18083   6.340   6.235  11.798
  161OSM   H12T18084   6.284   6.098  11.900
  161OSM   C13S18085   6.311   6.284  12.000
  161OSM   H13S18086   6.316   6.393  11.980
  161OSM   H13T18087   6.412   6.249  12.031
  161OSM   C14S18088   6.212   6.261  12.111
  161OSM   H14S18089   6.219   6.155  12.148
  161OSM   H14T18090   6.107   6.280  12.078
  161OSM   C15S18091   6.242   6.351  12.226
  161OSM   H15S18092   6.228   6.458  12.201
  161OSM   H15T18093   6.349   6.341  12.253
  161OSM   C16S18094   6.150   6.302  12.337
  161OSM   H16S18095   6.184   6.214  12.394
  161OSM   H16T18096   6.046   6.305  12.300
  161OSM   C17S18097   6.147   6.385  12.453
  161OSM   H17S18098   6.091   6.359  12.544
  161OSM   H17T18099   6.105   6.477  12.411
  161OSM   C18S18100   6.279   6.401  12.503
  161OSM   H18S18101   6.352   6.365  12.572
  161OSM   H18T18102   6.232   6.472  12.574
  161OSM   H18U18103   6.333   6.441  12.417
  161OSM    C1F18104   6.358   6.237  11.157
  161OSM     OF18105   6.451   6.307  11.121
  161OSM    C2F18106   6.366   6.124  11.253
  161OSM    H2F18107   6.416   6.035  11.209
  161OSM    H2G18108   6.263   6.098  11.286
  161OSM    C3F18109   6.442   6.166  11.380
  161OSM    H3F18110   6.414   6.267  11.418
  161OSM    H3G18111   6.545   6.166  11.341
  161OSM    C4F18112   6.413   6.067  11.492
  161OSM    H4F18113   6.402   5.966  11.444
  161OSM    H4G18114   6.330   6.100  11.555
  161OSM    C5F18115   6.508   6.042  11.605
  161OSM    H5F18116   6.563   5.981  11.538
  161OSM    H5G18117   6.478   5.975  11.686
  161OSM    C6F18118   6.570   6.153  11.683
  161OSM    H6F18119   6.497   6.205  11.734
  161OSM    H6G18120   6.570   6.234  11.611
  161OSM    C7F18121   6.701   6.117  11.765
  161OSM    H7F18122   6.791   6.069  11.712
  161OSM    H7G18123   6.673   6.053  11.846
  161OSM    C8F18124   6.787   6.205  11.836
  161OSM    H8F18125   6.847   6.281  11.786
  161OSM    H8G18126   6.862   6.127  11.867
  161OSM    C9F18127   6.720   6.271  11.943
  161OSM    H9F18128   6.713   6.372  11.918
  161OSM   C10F18129   6.738   6.259  12.067
  161OSM   H10F18130   6.694   6.345  12.122
  161OSM   C11F18131   6.843   6.161  12.113
  161OSM   H11F18132   6.959   6.177  12.134
  161OSM   H11G18133   6.859   6.088  12.042
  161OSM   C12F18134   6.750   6.094  12.214
  161OSM   H12F18135   6.826   6.031  12.264
  161OSM   H12G18136   6.669   6.050  12.155
  161OSM   C13F18137   6.655   6.154  12.325
  161OSM   H13F18138   6.589   6.242  12.320
  161OSM   H13G18139   6.737   6.211  12.318
  161OSM   C14F18140   6.648   6.090  12.468
  161OSM   H14F18141   6.632   6.162  12.552
  161OSM   H14G18142   6.733   6.027  12.503
  161OSM   C15F18143   6.537   6.002  12.454
  161OSM   H15F18144   6.560   5.941  12.362
  161OSM   H15G18145   6.447   6.065  12.434
  161OSM   C16F18146   6.522   5.914  12.569
  161OSM   H16F18147   6.498   5.960  12.667
  161OSM   H16G18148   6.612   5.848  12.587
  161OSM   C17F18149   6.408   5.835  12.513
  161OSM   H17F18150   6.441   5.765  12.584
  161OSM   H17G18151   6.425   5.779  12.419
  161OSM   C18F18152   6.265   5.892  12.525
  161OSM   H18F18153   6.187   5.815  12.540
  161OSM   H18G18154   6.233   5.938  12.431
  161OSM   H18H18155   6.259   5.960  12.614
  162OSM      N18156  -0.026   5.141  10.615
  162OSM    C1518157   0.070   5.040  10.644
  162OSM   H15A18158   0.126   4.986  10.568
  162OSM   H15B18159   0.023   4.967  10.708
  162OSM   H15C18160   0.143   5.088  10.708
  162OSM    C1418161  -0.133   5.061  10.564
  162OSM   H14A18162  -0.192   5.138  10.513
  162OSM   H14B18163  -0.199   5.018  10.639
  162OSM   H14C18164  -0.110   4.992  10.485
  162OSM    C1318165  -0.083   5.205  10.740
  162OSM   H13A18166  -0.003   5.252  10.798
  162OSM   H13B18167  -0.128   5.129  10.803
  162OSM   H13C18168  -0.156   5.282  10.716
  162OSM    C1218169   0.042   5.241  10.526
  162OSM   H12A18170  -0.024   5.326  10.510
  162OSM   H12B18171   0.067   5.193  10.432
  162OSM    C1118172   0.178   5.297  10.568
  162OSM   H11A18173   0.213   5.360  10.482
  162OSM   H11B18174   0.256   5.218  10.583
  162OSM      P18175   0.137   5.522  10.676
  162OSM    O1318176   0.261   5.598  10.655
  162OSM    O1418177   0.025   5.547  10.584
  162OSM    O1118178   0.087   5.555  10.823
  162OSM    O1218179   0.165   5.370  10.688
  162OSM    C1S18180   0.156   5.501  10.936
  162OSM    H1S18181   0.262   5.531  10.929
  162OSM    H1T18182   0.157   5.390  10.941
  162OSM     NF18183   0.164   5.530  11.188
  162OSM    HNF18184   0.124   5.472  11.257
  162OSM    C2S18185   0.089   5.552  11.068
  162OSM    H2S18186   0.080   5.664  11.055
  162OSM    C3S18187  -0.049   5.485  11.080
  162OSM    H3S18188  -0.045   5.377  11.062
  162OSM     O318189  -0.144   5.548  10.993
  162OSM    HO318190  -0.096   5.614  10.944
  162OSM    C4S18191  -0.104   5.503  11.217
  162OSM    H4S18192  -0.144   5.594  11.208
  162OSM    C5S18193  -0.125   5.440  11.333
  162OSM    H5S18194  -0.098   5.335  11.333
  162OSM    C6S18195  -0.188   5.493  11.463
  162OSM    H6S18196  -0.296   5.466  11.470
  162OSM    H6T18197  -0.189   5.602  11.482
  162OSM    C7S18198  -0.113   5.432  11.580
  162OSM    H7S18199  -0.157   5.469  11.676
  162OSM    H7T18200  -0.004   5.453  11.583
  162OSM    C8S18201  -0.130   5.285  11.581
  162OSM    H8S18202  -0.067   5.223  11.513
  162OSM    H8T18203  -0.237   5.257  11.568
  162OSM    C9S18204  -0.107   5.247  11.719
  162OSM    H9S18205  -0.157   5.148  11.703
  162OSM    H9T18206  -0.175   5.288  11.793
  162OSM   C10S18207   0.038   5.275  11.769
  162OSM   H10S18208   0.030   5.353  11.846
  162OSM   H10T18209   0.107   5.291  11.682
  162OSM   C11S18210   0.119   5.185  11.859
  162OSM   H11S18211   0.139   5.113  11.778
  162OSM   H11T18212   0.076   5.120  11.941
  162OSM   C12S18213   0.243   5.228  11.915
  162OSM   H12S18214   0.321   5.277  11.858
  162OSM   H12T18215   0.262   5.123  11.910
  162OSM   C13S18216   0.231   5.254  12.054
  162OSM   H13S18217   0.160   5.180  12.096
  162OSM   H13T18218   0.161   5.339  12.050
  162OSM   C14S18219   0.377   5.273  12.118
  162OSM   H14S18220   0.333   5.326  12.204
  162OSM   H14T18221   0.419   5.355  12.063
  162OSM   C15S18222   0.502   5.164  12.154
  162OSM   H15S18223   0.526   5.059  12.136
  162OSM   H15T18224   0.486   5.063  12.197
  162OSM   C16S18225   0.590   5.149  12.257
  162OSM   H16S18226   0.669   5.155  12.186
  162OSM   H16T18227   0.631   5.046  12.288
  162OSM   C17S18228   0.525   5.241  12.341
  162OSM   H17S18229   0.425   5.250  12.388
  162OSM   H17T18230   0.527   5.331  12.281
  162OSM   C18S18231   0.629   5.208  12.427
  162OSM   H18S18232   0.644   5.102  12.446
  162OSM   H18T18233   0.595   5.253  12.520
  162OSM   H18U18234   0.734   5.238  12.412
  162OSM    C1F18235   0.285   5.567  11.194
  162OSM     OF18236   0.325   5.633  11.104
  162OSM    C2F18237   0.370   5.506  11.297
  162OSM    H2F18238   0.456   5.478  11.234
  162OSM    H2G18239   0.321   5.417  11.340
  162OSM    C3F18240   0.417   5.603  11.405
  162OSM    H3F18241   0.341   5.654  11.464
  162OSM    H3G18242   0.468   5.671  11.341
  162OSM    C4F18243   0.529   5.551  11.489
  162OSM    H4F18244   0.612   5.529  11.419
  162OSM    H4G18245   0.467   5.469  11.530
  162OSM    C5F18246   0.595   5.607  11.609
  162OSM    H5F18247   0.684   5.671  11.591
  162OSM    H5G18248   0.660   5.538  11.653
  162OSM    C6F18249   0.485   5.641  11.711
  162OSM    H6F18250   0.416   5.563  11.747
  162OSM    H6G18251   0.412   5.703  11.656
  162OSM    C7F18252   0.558   5.689  11.834
  162OSM    H7F18253   0.635   5.745  11.777
  162OSM    H7G18254   0.633   5.641  11.895
  162OSM    C8F18255   0.465   5.754  11.933
  162OSM    H8F18256   0.375   5.803  11.889
  162OSM    H8G18257   0.534   5.827  11.979
  162OSM    C9F18258   0.410   5.698  12.050
  162OSM    H9F18259   0.459   5.739  12.139
  162OSM   C10F18260   0.296   5.634  12.050
  162OSM   H10F18261   0.273   5.593  12.147
  162OSM   C11F18262   0.203   5.607  11.933
  162OSM   H11F18263   0.201   5.498  11.910
  162OSM   H11G18264   0.225   5.660  11.837
  162OSM   C12F18265   0.064   5.652  11.973
  162OSM   H12F18266  -0.003   5.654  11.884
  162OSM   H12G18267   0.070   5.757  12.009
  162OSM   C13F18268   0.003   5.557  12.077
  162OSM   H13F18269   0.068   5.545  12.167
  162OSM   H13G18270  -0.020   5.459  12.032
  162OSM   C14F18271  -0.125   5.615  12.125
  162OSM   H14F18272  -0.184   5.539  12.181
  162OSM   H14G18273  -0.184   5.640  12.034
  162OSM   C15F18274  -0.084   5.739  12.206
  162OSM   H15F18275  -0.153   5.818  12.209
  162OSM   H15G18276  -0.036   5.819  12.148
  162OSM   C16F18277  -0.038   5.713  12.351
  162OSM   H16F18278  -0.044   5.809  12.407
  162OSM   H16G18279   0.068   5.685  12.342
  162OSM   C17F18280  -0.099   5.597  12.436
  162OSM   H17F18281  -0.041   5.607  12.532
  162OSM   H17G18282  -0.100   5.500  12.385
  162OSM   C18F18283  -0.232   5.601  12.498
  162OSM   H18F18284  -0.229   5.700  12.538
  162OSM   H18G18285  -0.266   5.533  12.569
  162OSM   H18H18286  -0.328   5.585  12.449
  163OSM      N18287   6.136   7.233  10.600
  163OSM    C1518288   6.157   7.258  10.455
  163OSM   H15A18289   6.240   7.327  10.444
  163OSM   H15B18290   6.069   7.304  10.414
  163OSM   H15C18291   6.181   7.168  10.398
  163OSM    C1418292   6.269   7.185  10.650
  163OSM   H14A18293   6.271   7.167  10.757
  163OSM   H14B18294   6.351   7.250  10.618
  163OSM   H14C18295   6.290   7.087  10.605
  163OSM    C1318296   6.095   7.358  10.667
  163OSM   H13A18297   6.178   7.426  10.681
  163OSM   H13B18298   6.055   7.335  10.766
  163OSM   H13C18299   6.018   7.413  10.615
  163OSM    C1218300   6.026   7.132  10.621
  163OSM   H12A18301   5.932   7.175  10.588
  163OSM   H12B18302   6.016   7.113  10.728
  163OSM    C1118303   6.048   6.998  10.552
  163OSM   H11A18304   6.056   7.009  10.442
  163OSM   H11B18305   5.959   6.935  10.573
  163OSM      P18306   6.163   6.831  10.714
  163OSM    O1318307   6.071   6.727  10.676
  163OSM    O1418308   6.295   6.791  10.759
  163OSM    O1118309   6.092   6.912  10.831
  163OSM    O1218310   6.168   6.937  10.598
  163OSM    C1S18311   6.183   6.938  10.939
  163OSM    H1S18312   6.283   6.972  10.900
  163OSM    H1T18313   6.203   6.845  10.997
  163OSM     NF18314   6.213   7.092  11.131
  163OSM    HNF18315   6.169   7.099  11.219
  163OSM    C2S18316   6.124   7.051  11.026
  163OSM    H2S18317   6.108   7.139  10.959
  163OSM    C3S18318   5.990   7.008  11.089
  163OSM    H3S18319   6.008   6.922  11.156
  163OSM     O318320   5.888   6.975  10.996
  163OSM    HO318321   5.939   6.945  10.920
  163OSM    C4S18322   5.929   7.115  11.172
  163OSM    H4S18323   5.907   7.212  11.122
  163OSM    C5S18324   5.909   7.098  11.305
  163OSM    H5S18325   5.961   7.023  11.366
  163OSM    C6S18326   5.848   7.202  11.388
  163OSM    H6S18327   5.822   7.186  11.497
  163OSM    H6T18328   5.783   7.273  11.328
  163OSM    C7S18329   5.939   7.300  11.401
  163OSM    H7S18330   5.960   7.331  11.291
  163OSM    H7T18331   6.029   7.264  11.452
  163OSM    C8S18332   5.867   7.401  11.491
  163OSM    H8S18333   5.759   7.404  11.476
  163OSM    H8T18334   5.862   7.475  11.397
  163OSM    C9S18335   5.934   7.444  11.655
  163OSM    H9S18336   5.947   7.553  11.698
  163OSM    H9T18337   6.041   7.435  11.675
  163OSM   C10S18338   5.917   7.367  11.766
  163OSM   H10S18339   5.926   7.267  11.727
  163OSM   H10T18340   5.823   7.409  11.760
  163OSM   C11S18341   5.982   7.419  11.893
  163OSM   H11S18342   5.952   7.527  11.911
  163OSM   H11T18343   6.092   7.418  11.884
  163OSM   C12S18344   5.927   7.313  11.986
  163OSM   H12S18345   5.931   7.215  11.938
  163OSM   H12T18346   5.820   7.296  11.984
  163OSM   C13S18347   5.947   7.341  12.131
  163OSM   H13S18348   5.870   7.287  12.192
  163OSM   H13T18349   5.942   7.445  12.169
  163OSM   C14S18350   6.089   7.328  12.156
  163OSM   H14S18351   6.141   7.415  12.110
  163OSM   H14T18352   6.114   7.231  12.108
  163OSM   C15S18353   6.103   7.328  12.302
  163OSM   H15S18354   6.010   7.272  12.336
  163OSM   H15T18355   6.094   7.431  12.346
  163OSM   C16S18356   6.235   7.256  12.328
  163OSM   H16S18357   6.319   7.307  12.278
  163OSM   H16T18358   6.215   7.149  12.304
  163OSM   C17S18359   6.285   7.243  12.464
  163OSM   H17S18360   6.346   7.330  12.499
  163OSM   H17T18361   6.335   7.151  12.500
  163OSM   C18S18362   6.154   7.221  12.516
  163OSM   H18S18363   6.189   7.303  12.583
  163OSM   H18T18364   6.135   7.121  12.559
  163OSM   H18U18365   6.056   7.267  12.513
  163OSM    C1F18366   6.336   7.134  11.113
  163OSM     OF18367   6.384   7.154  11.001
  163OSM    C2F18368   6.407   7.171  11.239
  163OSM    H2F18369   6.331   7.206  11.312
  163OSM    H2G18370   6.475   7.255  11.216
  163OSM    C3F18371   6.487   7.055  11.299
  163OSM    H3F18372   6.555   7.094  11.378
  163OSM    H3G18373   6.553   7.027  11.214
  163OSM    C4F18374   6.407   6.933  11.353
  163OSM    H4F18375   6.473   6.846  11.370
  163OSM    H4G18376   6.339   6.897  11.273
  163OSM    C5F18377   6.329   6.958  11.484
  163OSM    H5F18378   6.281   6.864  11.516
  163OSM    H5G18379   6.248   7.031  11.464
  163OSM    C6F18380   6.410   7.018  11.600
  163OSM    H6F18381   6.428   7.125  11.575
  163OSM    H6G18382   6.511   6.973  11.612
  163OSM    C7F18383   6.335   7.019  11.736
  163OSM    H7F18384   6.228   7.040  11.720
  163OSM    H7G18385   6.382   7.101  11.794
  163OSM    C8F18386   6.346   6.896  11.827
  163OSM    H8F18387   6.309   6.912  11.930
  163OSM    H8G18388   6.453   6.895  11.851
  163OSM    C9F18389   6.293   6.766  11.771
  163OSM    H9F18390   6.331   6.735  11.672
  163OSM   C10F18391   6.193   6.692  11.811
  163OSM   H10F18392   6.176   6.599  11.757
  163OSM   C11F18393   6.105   6.724  11.925
  163OSM   H11F18394   6.008   6.677  11.901
  163OSM   H11G18395   6.091   6.834  11.926
  163OSM   C12F18396   6.147   6.687  12.065
  163OSM   H12F18397   6.247   6.727  12.091
  163OSM   H12G18398   6.151   6.576  12.070
  163OSM   C13F18399   6.045   6.743  12.164
  163OSM   H13F18400   5.949   6.685  12.157
  163OSM   H13G18401   6.025   6.852  12.159
  163OSM   C14F18402   6.089   6.723  12.304
  163OSM   H14F18403   6.108   6.615  12.296
  163OSM   H14G18404   5.995   6.752  12.356
  163OSM   C15F18405   6.205   6.807  12.364
  163OSM   H15F18406   6.175   6.911  12.361
  163OSM   H15G18407   6.293   6.780  12.301
  163OSM   C16F18408   6.258   6.785  12.508
  163OSM   H16F18409   6.179   6.775  12.580
  163OSM   H16G18410   6.314   6.858  12.565
  163OSM   C17F18411   6.331   6.657  12.503
  163OSM   H17F18412   6.275   6.615  12.420
  163OSM   H17G18413   6.331   6.606  12.602
  163OSM   C18F18414   6.469   6.621  12.460
  163OSM   H18F18415   6.521   6.668  12.385
  163OSM   H18G18416   6.516   6.531  12.508
  163OSM   H18H18417   6.475   6.703  12.519
  164OSM      N18418   1.020   0.435  10.724
  164OSM    C1518419   0.992   0.553  10.638
  164OSM   H15A18420   0.942   0.524  10.547
  164OSM   H15B18421   1.086   0.602  10.613
  164OSM   H15C18422   0.931   0.626  10.689
  164OSM    C1418423   1.111   0.339  10.655
  164OSM   H14A18424   1.213   0.375  10.653
  164OSM   H14B18425   1.076   0.325  10.553
  164OSM   H14C18426   1.111   0.241  10.701
  164OSM    C1318427   1.089   0.480  10.842
  164OSM   H13A18428   1.175   0.542  10.817
  164OSM   H13B18429   1.137   0.396  10.893
  164OSM   H13C18430   1.031   0.531  10.914
  164OSM    C1218431   0.896   0.368  10.777
  164OSM   H12A18432   0.856   0.428  10.857
  164OSM   H12B18433   0.926   0.272  10.817
  164OSM    C1118434   0.783   0.345  10.680
  164OSM   H11A18435   0.744   0.443  10.644
  164OSM   H11B18436   0.700   0.288  10.728
  164OSM      P18437   0.845   0.129  10.557
  164OSM    O1318438   0.720   0.084  10.494
  164OSM    O1418439   0.974   0.111  10.490
  164OSM    O1118440   0.854   0.070  10.708
  164OSM    O1218441   0.834   0.280  10.569
  164OSM    C1S18442   0.828  -0.055  10.780
  164OSM    H1S18443   0.830  -0.147  10.721
  164OSM    H1T18444   0.728  -0.070  10.825
  164OSM     NF18445   0.886   0.049  10.990
  164OSM    HNF18446   0.967   0.085  11.033
  164OSM    C2S18447   0.903  -0.072  10.912
  164OSM    H2S18448   0.847  -0.157  10.961
  164OSM    C3S18449   1.055  -0.108  10.908
  164OSM    H3S18450   1.112  -0.023  10.865
  164OSM     O318451   1.095  -0.227  10.841
  164OSM    HO318452   1.013  -0.261  10.805
  164OSM    C4S18453   1.085  -0.116  11.047
  164OSM    H4S18454   1.140  -0.040  11.101
  164OSM    C5S18455   1.045  -0.222  11.110
  164OSM    H5S18456   1.033  -0.318  11.064
  164OSM    C6S18457   1.064  -0.236  11.244
  164OSM    H6S18458   1.145  -0.282  11.258
  164OSM    H6T18459   1.005  -0.316  11.272
  164OSM    C7S18460   1.077  -0.133  11.340
  164OSM    H7S18461   1.155  -0.060  11.312
  164OSM    H7T18462   1.101  -0.180  11.436
  164OSM    C8S18463   0.945  -0.091  11.362
  164OSM    H8S18464   0.886  -0.184  11.381
  164OSM    H8T18465   0.925  -0.049  11.261
  164OSM    C9S18466   0.967   0.009  11.470
  164OSM    H9S18467   0.891   0.077  11.436
  164OSM    H9T18468   1.060   0.067  11.454
  164OSM   C10S18469   0.962  -0.040  11.615
  164OSM   H10S18470   1.065  -0.062  11.650
  164OSM   H10T18471   0.900  -0.131  11.630
  164OSM   C11S18472   0.920   0.067  11.715
  164OSM   H11S18473   0.812   0.088  11.702
  164OSM   H11T18474   0.976   0.158  11.685
  164OSM   C12S18475   0.951   0.025  11.860
  164OSM   H12S18476   1.061   0.006  11.868
  164OSM   H12T18477   0.898  -0.068  11.887
  164OSM   C13S18478   0.909   0.130  11.962
  164OSM   H13S18479   0.804   0.165  11.954
  164OSM   H13T18480   0.966   0.213  11.927
  164OSM   C14S18481   0.963   0.120  12.105
  164OSM   H14S18482   0.978   0.223  12.144
  164OSM   H14T18483   1.062   0.070  12.106
  164OSM   C15S18484   0.869   0.052  12.201
  164OSM   H15S18485   0.933   0.023  12.286
  164OSM   H15T18486   0.823  -0.038  12.153
  164OSM   C16S18487   0.761   0.146  12.255
  164OSM   H16S18488   0.697   0.168  12.166
  164OSM   H16T18489   0.799   0.241  12.295
  164OSM   C17S18490   0.675   0.085  12.365
  164OSM   H17S18491   0.629   0.014  12.308
  164OSM   H17T18492   0.576   0.121  12.379
  164OSM   C18S18493   0.728   0.014  12.488
  164OSM   H18S18494   0.643  -0.027  12.548
  164OSM   H18T18495   0.782   0.089  12.548
  164OSM   H18U18496   0.798  -0.067  12.459
  164OSM    C1F18497   0.775   0.114  11.016
  164OSM     OF18498   0.671   0.100  10.956
  164OSM    C2F18499   0.787   0.203  11.133
  164OSM    H2F18500   0.889   0.210  11.174
  164OSM    H2G18501   0.734   0.149  11.211
  164OSM    C3F18502   0.724   0.337  11.097
  164OSM    H3F18503   0.618   0.327  11.065
  164OSM    H3G18504   0.779   0.381  11.010
  164OSM    C4F18505   0.739   0.444  11.205
  164OSM    H4F18506   0.689   0.532  11.159
  164OSM    H4G18507   0.848   0.454  11.220
  164OSM    C5F18508   0.685   0.423  11.348
  164OSM    H5F18509   0.740   0.331  11.375
  164OSM    H5G18510   0.576   0.428  11.345
  164OSM    C6F18511   0.700   0.504  11.478
  164OSM    H6F18512   0.641   0.485  11.569
  164OSM    H6G18513   0.644   0.590  11.444
  164OSM    C7F18514   0.849   0.511  11.506
  164OSM    H7F18515   0.908   0.534  11.416
  164OSM    H7G18516   0.887   0.409  11.526
  164OSM    C8F18517   0.893   0.617  11.600
  164OSM    H8F18518   0.854   0.716  11.611
  164OSM    H8G18519   0.998   0.645  11.565
  164OSM    C9F18520   0.838   0.603  11.737
  164OSM    H9F18521   0.742   0.577  11.749
  164OSM   C10F18522   0.891   0.576  11.851
  164OSM   H10F18523   0.861   0.508  11.933
  164OSM   C11F18524   1.014   0.559  11.810
  164OSM   H11F18525   1.070   0.607  11.723
  164OSM   H11G18526   0.985   0.451  11.782
  164OSM   C12F18527   1.080   0.616  11.926
  164OSM   H12F18528   1.127   0.713  11.888
  164OSM   H12G18529   1.174   0.611  11.863
  164OSM   C13F18530   1.078   0.542  12.099
  164OSM   H13F18531   0.979   0.557  12.130
  164OSM   H13G18532   1.125   0.592  12.182
  164OSM   C14F18533   1.191   0.433  12.193
  164OSM   H14F18534   1.303   0.416  12.166
  164OSM   H14G18535   1.174   0.324  12.170
  164OSM   C15F18536   1.195   0.424  12.330
  164OSM   H15F18537   1.242   0.524  12.343
  164OSM   H15G18538   1.264   0.335  12.342
  164OSM   C16F18539   1.048   0.402  12.343
  164OSM   H16F18540   1.029   0.301  12.381
  164OSM   H16G18541   0.977   0.415  12.257
  164OSM   C17F18542   1.013   0.498  12.443
  164OSM   H17F18543   1.050   0.596  12.414
  164OSM   H17G18544   1.073   0.474  12.533
  164OSM   C18F18545   0.868   0.500  12.469
  164OSM   H18F18546   0.792   0.522  12.391
  164OSM   H18G18547   0.871   0.598  12.509
  164OSM   H18H18548   0.836   0.430  12.549
  165SAPS     N18549   4.886   4.385  14.827
  165SAPS   HN118550   4.810   4.442  14.871
  165SAPS   HN218551   4.855   4.347  14.736
  165SAPS   HN318552   4.920   4.308  14.889
  165SAPS   C1218553   5.002   4.475  14.799
  165SAPS  H12A18554   5.041   4.505  14.893
  165SAPS   C1318555   5.120   4.407  14.726
  165SAPS  O13A18556   5.122   4.281  14.719
  165SAPS  O13B18557   5.208   4.482  14.677
  165SAPS   C1118558   4.960   4.605  14.727
  165SAPS  H11A18559   4.934   4.585  14.621
  165SAPS  H11B18560   5.050   4.672  14.730
  165SAPS     P18561   4.821   4.818  14.752
  165SAPS   O1318562   4.685   4.856  14.796
  165SAPS   O1418563   4.935   4.897  14.801
  165SAPS   O1218564   4.848   4.665  14.794
  165SAPS   O1118565   4.826   4.817  14.593
  165SAPS    C118566   4.823   4.946  14.531
  165SAPS    HA18567   4.737   5.007  14.569
  165SAPS    HB18568   4.917   5.004  14.552
  165SAPS    C218569   4.809   4.933  14.377
  165SAPS    HS18570   4.721   4.871  14.352
  165SAPS   O2118571   4.933   4.879  14.324
  165SAPS   C2118572   4.941   4.746  14.324
  165SAPS   O2218573   4.849   4.669  14.350
  165SAPS   C2218574   5.081   4.696  14.282
  165SAPS   H2R18575   5.138   4.782  14.242
  165SAPS   H2S18576   5.130   4.660  14.375
  165SAPS    C318577   4.780   5.075  14.320
  165SAPS    HX18578   4.878   5.126  14.330
  165SAPS    HY18579   4.718   5.127  14.396
  165SAPS   O3118580   4.715   5.085  14.189
  165SAPS   C3118581   4.779   5.037  14.081
  165SAPS   O3218582   4.888   4.984  14.083
  165SAPS   C3218583   4.706   5.066  13.948
  165SAPS   H2X18584   4.676   5.172  13.937
  165SAPS   H2Y18585   4.619   4.998  13.954
  165SAPS   C2318586   5.068   4.579  14.180
  165SAPS   H3R18587   5.029   4.619  14.083
  165SAPS   H3S18588   4.993   4.512  14.219
  165SAPS   C2418589   5.176   4.474  14.154
  165SAPS   H4R18590   5.146   4.400  14.079
  165SAPS   H4S18591   5.216   4.418  14.241
  165SAPS   C2518592   5.273   4.540  14.076
  165SAPS   H5R18593   5.360   4.561  14.141
  165SAPS   C2618594   5.260   4.578  13.945
  165SAPS   H6R18595   5.324   4.655  13.906
  165SAPS   C2718596   5.161   4.574  13.836
  165SAPS   H7R18597   5.144   4.682  13.813
  165SAPS   H7S18598   5.078   4.524  13.884
  165SAPS   C2818599   5.202   4.501  13.709
  165SAPS   H8R18600   5.279   4.424  13.731
  165SAPS   C2918601   5.205   4.550  13.582
  165SAPS   H9R18602   5.253   4.488  13.506
  165SAPS  C21018603   5.171   4.685  13.525
  165SAPS  H10R18604   5.102   4.737  13.593
  165SAPS  H10S18605   5.113   4.666  13.432
  165SAPS  C21118606   5.286   4.775  13.482
  165SAPS  H11R18607   5.382   4.729  13.453
  165SAPS  C21218608   5.276   4.908  13.477
  165SAPS  H12R18609   5.362   4.965  13.437
  165SAPS  C21318610   5.152   4.986  13.513
  165SAPS  H13R18611   5.172   5.046  13.604
  165SAPS  H13S18612   5.064   4.923  13.537
  165SAPS  C21418613   5.112   5.080  13.406
  165SAPS  H14R18614   5.189   5.094  13.331
  165SAPS  C21518615   4.993   5.128  13.374
  165SAPS  H15R18616   4.989   5.210  13.300
  165SAPS  C21618617   4.865   5.095  13.443
  165SAPS  H16R18618   4.823   5.184  13.492
  165SAPS  H16S18619   4.880   5.017  13.521
  165SAPS  C21718620   4.770   5.043  13.333
  165SAPS  H17R18621   4.747   5.127  13.263
  165SAPS  H17S18622   4.673   5.020  13.383
  165SAPS  C21818623   4.826   4.925  13.249
  165SAPS  H18R18624   4.748   4.851  13.227
  165SAPS  H18S18625   4.906   4.874  13.308
  165SAPS  C21918626   4.879   4.965  13.111
  165SAPS  H19R18627   4.957   5.042  13.129
  165SAPS  H19S18628   4.796   5.013  13.055
  165SAPS  C22018629   4.939   4.854  13.024
  165SAPS  H20R18630   4.999   4.905  12.945
  165SAPS  H20S18631   4.863   4.790  12.975
  165SAPS  H20T18632   5.008   4.788  13.081
  165SAPS   C3318633   4.786   5.034  13.818
  165SAPS   H3X18634   4.874   5.097  13.797
  165SAPS   H3Y18635   4.723   5.052  13.729
  165SAPS   C3418636   4.842   4.894  13.818
  165SAPS   H4X18637   4.877   4.859  13.916
  165SAPS   H4Y18638   4.931   4.884  13.751
  165SAPS   C3518639   4.741   4.795  13.780
  165SAPS   H5X18640   4.660   4.833  13.714
  165SAPS   H5Y18641   4.691   4.756  13.871
  165SAPS   C3618642   4.822   4.691  13.711
  165SAPS   H6X18643   4.876   4.623  13.783
  165SAPS   H6Y18644   4.886   4.722  13.626
  165SAPS   C3718645   4.723   4.617  13.640
  165SAPS   H7X18646   4.661   4.586  13.723
  165SAPS   H7Y18647   4.774   4.526  13.631
  165SAPS   C3818648   4.628   4.674  13.532
  165SAPS   H8X18649   4.558   4.748  13.571
  165SAPS   H8Y18650   4.535   4.620  13.537
  165SAPS   C3918651   4.674   4.693  13.381
  165SAPS   H9X18652   4.744   4.776  13.405
  165SAPS   H9Y18653   4.589   4.704  13.314
  165SAPS  C31018654   4.753   4.593  13.288
  165SAPS  H10X18655   4.765   4.493  13.267
  165SAPS  H10Y18656   4.792   4.599  13.382
  165SAPS  C31118657   4.836   4.573  13.161
  165SAPS  H11X18658   4.922   4.635  13.182
  165SAPS  H11Y18659   4.748   4.599  13.097
  165SAPS  C31218660   4.882   4.425  13.111
  165SAPS  H12X18661   4.909   4.441  13.006
  165SAPS  H12Y18662   4.793   4.355  13.119
  165SAPS  C31318663   5.008   4.343  13.159
  165SAPS  H13X18664   5.045   4.245  13.136
  165SAPS  H13Y18665   4.937   4.279  13.221
  165SAPS  C31418666   5.145   4.411  13.210
  165SAPS  H14X18667   5.213   4.361  13.285
  165SAPS  H14Y18668   5.133   4.504  13.269
  165SAPS  C31518669   5.236   4.445  13.109
  165SAPS  H15X18670   5.158   4.472  13.033
  165SAPS  H15Y18671   5.288   4.348  13.096
  165SAPS  C31618672   5.314   4.565  13.161
  165SAPS  H16X18673   5.395   4.537  13.231
  165SAPS  H16Y18674   5.251   4.640  13.216
  165SAPS  C31718675   5.359   4.638  13.038
  165SAPS  H17X18676   5.300   4.595  12.953
  165SAPS  H17Y18677   5.466   4.617  13.022
  165SAPS  C31818678   5.334   4.787  13.049
  165SAPS  H18X18679   5.354   4.835  12.951
  165SAPS  H18Y18680   5.402   4.826  13.128
  165SAPS  H18Z18681   5.230   4.812  13.080
  166SAPS     N18682   2.017   4.734  14.721
  166SAPS   HN118683   2.111   4.728  14.765
  166SAPS   HN218684   1.984   4.646  14.676
  166SAPS   HN318685   2.016   4.809  14.649
  166SAPS   C1218686   1.924   4.777  14.831
  166SAPS  H12A18687   1.900   4.692  14.891
  166SAPS   C1318688   1.989   4.878  14.925
  166SAPS  O13A18689   2.111   4.904  14.907
  166SAPS  O13B18690   1.922   4.918  15.023
  166SAPS   C1118691   1.796   4.838  14.770
  166SAPS  H11A18692   1.820   4.934  14.718
  166SAPS  H11B18693   1.726   4.862  14.854
  166SAPS     P18694   1.606   4.779  14.603
  166SAPS   O1318695   1.495   4.726  14.683
  166SAPS   O1418696   1.607   4.922  14.568
  166SAPS   O1218697   1.742   4.741  14.680
  166SAPS   O1118698   1.616   4.696  14.474
  166SAPS    C118699   1.642   4.557  14.481
  166SAPS    HA18700   1.613   4.510  14.576
  166SAPS    HB18701   1.563   4.515  14.418
  166SAPS    C218702   1.789   4.532  14.442
  166SAPS    HS18703   1.846   4.524  14.536
  166SAPS   O2118704   1.828   4.647  14.369
  166SAPS   C2118705   1.951   4.660  14.356
  166SAPS   O2218706   2.040   4.608  14.424
  166SAPS   C2218707   1.966   4.767  14.261
  166SAPS   H2R18708   1.966   4.734  14.155
  166SAPS   H2S18709   1.882   4.840  14.276
  166SAPS    C318710   1.828   4.411  14.356
  166SAPS    HX18711   1.764   4.327  14.393
  166SAPS    HY18712   1.931   4.375  14.368
  166SAPS   O3118713   1.819   4.461  14.218
  166SAPS   C3118714   1.819   4.371  14.125
  166SAPS   O3218715   1.874   4.262  14.147
  166SAPS   C3218716   1.743   4.416  13.976
  166SAPS   H2X18717   1.637   4.406  13.969
  166SAPS   H2Y18718   1.757   4.327  13.914
  166SAPS   C2318719   2.097   4.828  14.290
  166SAPS   H3R18720   2.183   4.758  14.280
  166SAPS   H3S18721   2.109   4.889  14.383
  166SAPS   C2418722   2.099   4.924  14.181
  166SAPS   H4R18723   2.134   4.875  14.086
  166SAPS   H4S18724   2.193   4.963  14.218
  166SAPS   C2518725   1.976   5.023  14.173
  166SAPS   H5R18726   1.985   5.121  14.219
  166SAPS   C2618727   1.894   5.050  14.071
  166SAPS   H6R18728   1.855   5.155  14.072
  166SAPS   C2718729   1.905   4.985  13.934
  166SAPS   H7R18730   1.950   4.885  13.943
  166SAPS   H7S18731   1.971   5.033  13.855
  166SAPS   C2818732   1.764   4.992  13.892
  166SAPS   H8R18733   1.694   4.985  13.976
  166SAPS   C2918734   1.715   5.002  13.769
  166SAPS   H9R18735   1.606   4.998  13.763
  166SAPS  C21018736   1.795   5.007  13.642
  166SAPS  H10R18737   1.840   4.907  13.629
  166SAPS  H10S18738   1.881   5.078  13.648
  166SAPS  C21118739   1.714   5.039  13.520
  166SAPS  H11R18740   1.658   5.134  13.523
  166SAPS  C21218741   1.686   4.957  13.417
  166SAPS  H12R18742   1.624   5.004  13.340
  166SAPS  C21318743   1.725   4.813  13.387
  166SAPS  H13R18744   1.812   4.778  13.446
  166SAPS  H13S18745   1.758   4.804  13.281
  166SAPS  C21418746   1.614   4.712  13.412
  166SAPS  H14R18747   1.643   4.626  13.475
  166SAPS  C21518748   1.485   4.721  13.376
  166SAPS  H15R18749   1.415   4.641  13.406
  166SAPS  C21618750   1.422   4.835  13.300
  166SAPS  H16R18751   1.497   4.896  13.245
  166SAPS  H16S18752   1.367   4.901  13.370
  166SAPS  C21718753   1.321   4.788  13.198
  166SAPS  H17R18754   1.309   4.876  13.130
  166SAPS  H17S18755   1.220   4.775  13.240
  166SAPS  C21818756   1.370   4.660  13.130
  166SAPS  H18R18757   1.358   4.566  13.187
  166SAPS  H18S18758   1.478   4.672  13.102
  166SAPS  C21918759   1.301   4.634  13.005
  166SAPS  H19R18760   1.190   4.644  13.000
  166SAPS  H19S18761   1.328   4.531  12.974
  166SAPS  C22018762   1.361   4.740  12.921
  166SAPS  H20R18763   1.366   4.833  12.967
  166SAPS  H20S18764   1.280   4.767  12.851
  166SAPS  H20T18765   1.455   4.716  12.865
  166SAPS   C3318766   1.790   4.537  13.891
  166SAPS   H3X18767   1.801   4.620  13.963
  166SAPS   H3Y18768   1.712   4.542  13.811
  166SAPS   C3418769   1.915   4.542  13.804
  166SAPS   H4X18770   1.950   4.455  13.757
  166SAPS   H4Y18771   2.010   4.535  13.849
  166SAPS   C3518772   1.911   4.628  13.691
  166SAPS   H5X18773   1.919   4.724  13.746
  166SAPS   H5Y18774   1.823   4.603  13.631
  166SAPS   C3618775   2.028   4.592  13.608
  166SAPS   H6X18776   2.098   4.601  13.678
  166SAPS   H6Y18777   2.060   4.679  13.552
  166SAPS   C3718778   2.065   4.451  13.561
  166SAPS   H7X18779   2.077   4.370  13.629
  166SAPS   H7Y18780   2.166   4.421  13.554
  166SAPS   C3818781   2.012   4.453  13.427
  166SAPS   H8X18782   1.906   4.474  13.458
  166SAPS   H8Y18783   2.031   4.353  13.380
  166SAPS   C3918784   2.039   4.575  13.334
  166SAPS   H9X18785   2.139   4.547  13.294
  166SAPS   H9Y18786   2.032   4.676  13.374
  166SAPS  C31018787   1.921   4.589  13.236
  166SAPS  H10X18788   1.822   4.573  13.282
  166SAPS  H10Y18789   1.966   4.494  13.216
  166SAPS  C31118790   1.905   4.667  13.099
  166SAPS  H11X18791   1.990   4.690  13.037
  166SAPS  H11Y18792   1.909   4.771  13.122
  166SAPS  C31218793   1.827   4.604  12.980
  166SAPS  H12X18794   1.724   4.585  13.014
  166SAPS  H12Y18795   1.868   4.508  12.935
  166SAPS  C31318796   1.821   4.692  12.860
  166SAPS  H13X18797   1.758   4.639  12.785
  166SAPS  H13Y18798   1.925   4.700  12.824
  166SAPS  C31418799   1.764   4.827  12.898
  166SAPS  H14X18800   1.833   4.881  12.967
  166SAPS  H14Y18801   1.665   4.814  12.948
  166SAPS  C31518802   1.752   4.911  12.773
  166SAPS  H15X18803   1.702   5.008  12.793
  166SAPS  H15Y18804   1.676   4.854  12.716
  166SAPS  C31618805   1.892   4.940  12.710
  166SAPS  H16X18806   1.966   4.861  12.729
  166SAPS  H16Y18807   1.924   5.040  12.744
  166SAPS  C31718808   1.900   4.975  12.564
  166SAPS  H17X18809   1.841   5.062  12.536
  166SAPS  H17Y18810   1.866   4.891  12.517
  166SAPS  C31818811   2.004   4.965  12.468
  166SAPS  H18X18812   2.052   5.060  12.489
  166SAPS  H18Y18813   1.984   4.958  12.360
  166SAPS  H18Z18814   2.059   4.870  12.474
  167SAPS     N18815   4.666   6.731  14.870
  167SAPS   HN118816   4.710   6.825  14.890
  167SAPS   HN218817   4.702   6.661  14.936
  167SAPS   HN318818   4.687   6.703  14.772
  167SAPS   C1218819   4.518   6.756  14.884
  167SAPS  H12A18820   4.483   6.694  14.965
  167SAPS   C1318821   4.486   6.901  14.921
  167SAPS  O13A18822   4.582   6.970  14.964
  167SAPS  O13B18823   4.365   6.937  14.924
  167SAPS   C1118824   4.438   6.720  14.757
  167SAPS  H11A18825   4.461   6.793  14.675
  167SAPS  H11B18826   4.330   6.731  14.780
  167SAPS     P18827   4.427   6.551  14.568
  167SAPS   O1318828   4.434   6.410  14.547
  167SAPS   O1418829   4.329   6.641  14.507
  167SAPS   O1218830   4.462   6.585  14.719
  167SAPS   O1118831   4.556   6.567  14.503
  167SAPS    C118832   4.672   6.585  14.570
  167SAPS    HA18833   4.667   6.675  14.633
  167SAPS    HB18834   4.720   6.497  14.618
  167SAPS    C218835   4.746   6.630  14.458
  167SAPS    HS18836   4.838   6.657  14.512
  167SAPS   O2118837   4.679   6.715  14.361
  167SAPS   C2118838   4.619   6.822  14.397
  167SAPS   O2218839   4.641   6.880  14.502
  167SAPS   C2218840   4.526   6.875  14.288
  167SAPS   H2R18841   4.570   6.909  14.192
  167SAPS   H2S18842   4.460   6.792  14.259
  167SAPS    C318843   4.806   6.539  14.372
  167SAPS    HX18844   4.879   6.480  14.432
  167SAPS    HY18845   4.862   6.589  14.294
  167SAPS   O3118846   4.700   6.475  14.311
  167SAPS   C3118847   4.667   6.506  14.187
  167SAPS   O3218848   4.721   6.577  14.105
  167SAPS   C3218849   4.577   6.403  14.152
  167SAPS   H2X18850   4.500   6.439  14.215
  167SAPS   H2Y18851   4.619   6.304  14.188
  167SAPS   C2318852   4.455   6.999  14.343
  167SAPS   H3R18853   4.528   7.083  14.343
  167SAPS   H3S18854   4.427   6.979  14.449
  167SAPS   C2418855   4.334   7.035  14.258
  167SAPS   H4R18856   4.357   7.026  14.150
  167SAPS   H4S18857   4.301   7.139  14.279
  167SAPS   C2518858   4.232   6.934  14.299
  167SAPS   H5R18859   4.188   6.951  14.398
  167SAPS   C2618860   4.173   6.846  14.218
  167SAPS   H6R18861   4.096   6.778  14.256
  167SAPS   C2718862   4.190   6.827  14.075
  167SAPS   H7R18863   4.181   6.923  14.021
  167SAPS   H7S18864   4.104   6.768  14.046
  167SAPS   C2818865   4.308   6.744  14.050
  167SAPS   H8R18866   4.321   6.662  14.122
  167SAPS   C2918867   4.395   6.766  13.954
  167SAPS   H9R18868   4.486   6.704  13.947
  167SAPS  C21018869   4.383   6.880  13.861
  167SAPS  H10R18870   4.293   6.942  13.866
  167SAPS  H10S18871   4.374   6.835  13.758
  167SAPS  C21118872   4.487   6.981  13.902
  167SAPS  H11R18873   4.535   6.983  13.998
  167SAPS  C21218874   4.560   7.054  13.826
  167SAPS  H12R18875   4.666   7.056  13.856
  167SAPS  C21318876   4.547   7.040  13.686
  167SAPS  H13R18877   4.450   6.998  13.631
  167SAPS  H13S18878   4.522   6.921  13.687
  167SAPS  C21418879   4.703   7.115  13.632
  167SAPS  H14R18880   4.623   7.188  13.607
  167SAPS  C21518881   4.812   7.066  13.513
  167SAPS  H15R18882   4.856   7.141  13.452
  167SAPS  C21618883   4.811   6.916  13.387
  167SAPS  H16R18884   4.832   6.811  13.427
  167SAPS  H16S18885   4.882   6.872  13.341
  167SAPS  C21718886   4.702   6.797  13.313
  167SAPS  H17R18887   4.592   6.798  13.314
  167SAPS  H17S18888   4.734   6.685  13.324
  167SAPS  C21818889   4.688   6.808  13.167
  167SAPS  H18R18890   4.671   6.705  13.126
  167SAPS  H18S18891   4.793   6.765  13.174
  167SAPS  C21918892   4.655   6.952  13.055
  167SAPS  H19R18893   4.715   6.991  13.126
  167SAPS  H19S18894   4.554   6.982  13.049
  167SAPS  C22018895   4.731   7.046  12.913
  167SAPS  H20R18896   4.846   7.051  12.910
  167SAPS  H20S18897   4.724   7.147  12.892
  167SAPS  H20T18898   4.726   6.992  12.818
  167SAPS   C3318899   4.485   6.435  14.034
  167SAPS   H3X18900   4.550   6.428  13.949
  167SAPS   H3Y18901   4.464   6.540  14.052
  167SAPS   C3418902   4.349   6.365  14.019
  167SAPS   H4X18903   4.302   6.345  14.118
  167SAPS   H4Y18904   4.355   6.271  13.962
  167SAPS   C3518905   4.241   6.418  13.934
  167SAPS   H5X18906   4.202   6.505  13.989
  167SAPS   H5Y18907   4.162   6.338  13.930
  167SAPS   C3618908   4.297   6.451  13.797
  167SAPS   H6X18909   4.294   6.361  13.732
  167SAPS   H6Y18910   4.393   6.505  13.795
  167SAPS   C3718911   4.202   6.536  13.731
  167SAPS   H7X18912   4.182   6.629  13.786
  167SAPS   H7Y18913   4.130   6.451  13.747
  167SAPS   C3818914   4.214   6.556  13.583
  167SAPS   H8X18915   4.167   6.462  13.545
  167SAPS   H8Y18916   4.321   6.566  13.559
  167SAPS   C3918917   4.142   6.680  13.531
  167SAPS   H9X18918   4.165   6.765  13.597
  167SAPS   H9Y18919   4.037   6.677  13.536
  167SAPS  C31018920   4.155   6.707  13.383
  167SAPS  H10X18921   4.074   6.775  13.350
  167SAPS  H10Y18922   4.132   6.613  13.332
  167SAPS  C31118923   4.295   6.757  13.352
  167SAPS  H11X18924   4.358   6.667  13.346
  167SAPS  H11Y18925   4.330   6.815  13.441
  167SAPS  C31218926   4.315   6.833  13.220
  167SAPS  H12X18927   4.417   6.818  13.183
  167SAPS  H12Y18928   4.293   6.942  13.237
  167SAPS  C31318929   4.232   6.794  13.098
  167SAPS  H13X18930   4.233   6.875  13.024
  167SAPS  H13Y18931   4.135   6.794  13.143
  167SAPS  C31418932   4.255   6.661  13.025
  167SAPS  H14X18933   4.177   6.597  13.063
  167SAPS  H14Y18934   4.358   6.625  13.035
  167SAPS  C31518935   4.203   6.639  12.884
  167SAPS  H15X18936   4.105   6.680  12.867
  167SAPS  H15Y18937   4.190   6.530  12.861
  167SAPS  C31618938   4.291   6.720  12.798
  167SAPS  H16X18939   4.380   6.657  12.776
  167SAPS  H16Y18940   4.315   6.815  12.848
  167SAPS  C31718941   4.226   6.782  12.680
  167SAPS  H17X18942   4.121   6.815  12.680
  167SAPS  H17Y18943   4.225   6.692  12.634
  167SAPS  C31818944   4.313   6.845  12.579
  167SAPS  H18X18945   4.337   6.946  12.605
  167SAPS  H18Y18946   4.257   6.849  12.484
  167SAPS  H18Z18947   4.404   6.782  12.566
  168SAPS     N18948   2.945   7.371  14.824
  168SAPS   HN118949   2.893   7.372  14.915
  168SAPS   HN218950   3.025   7.437  14.827
  168SAPS   HN318951   2.882   7.392  14.745
  168SAPS   C1218952   2.993   7.228  14.813
  168SAPS  H12A18953   3.086   7.225  14.757
  168SAPS   C1318954   3.021   7.158  14.948
  168SAPS  O13A18955   3.000   7.221  15.056
  168SAPS  O13B18956   3.078   7.046  14.946
  168SAPS   C1118957   2.886   7.146  14.738
  168SAPS  H11A18958   2.847   7.196  14.647
  168SAPS  H11B18959   2.799   7.132  14.806
  168SAPS     P18960   3.018   6.973  14.581
  168SAPS   O1318961   3.123   7.072  14.547
  168SAPS   O1418962   3.054   6.830  14.594
  168SAPS   O1218963   2.937   7.018  14.706
  168SAPS   O1118964   2.909   6.987  14.470
  168SAPS    C118965   2.775   6.942  14.491
  168SAPS    HA18966   2.769   6.840  14.535
  168SAPS    HB18967   2.721   7.013  14.557
  168SAPS    C218968   2.699   6.954  14.360
  168SAPS    HS18969   2.604   6.893  14.369
  168SAPS   O2118970   2.778   6.918  14.250
  168SAPS   C2118971   2.778   6.796  14.239
  168SAPS   O2218972   2.716   6.718  14.308
  168SAPS   C2218973   2.849   6.771  14.112
  168SAPS   H2R18974   2.935   6.703  14.129
  168SAPS   H2S18975   2.770   6.726  14.053
  168SAPS    C318976   2.662   7.095  14.334
  168SAPS    HX18977   2.604   7.130  14.423
  168SAPS    HY18978   2.609   7.116  14.245
  168SAPS   O3118979   2.778   7.164  14.292
  168SAPS   C3118980   2.790   7.272  14.351
  168SAPS   O3218981   2.713   7.326  14.430
  168SAPS   C3218982   2.918   7.330  14.298
  168SAPS   H2X18983   2.966   7.270  14.218
  168SAPS   H2Y18984   2.985   7.352  14.383
  168SAPS   C2318985   2.858   6.892  14.020
  168SAPS   H3R18986   2.761   6.943  14.013
  168SAPS   H3S18987   2.867   6.851  13.916
  168SAPS   C2418988   2.965   6.990  14.067
  168SAPS   H4R18989   3.056   6.944  14.097
  168SAPS   H4S18990   2.970   7.011  14.177
  168SAPS   C2518991   3.015   7.076  13.955
  168SAPS   H5R18992   3.036   7.175  13.996
  168SAPS   C2618993   3.043   7.059  13.821
  168SAPS   H6R18994   3.100   7.145  13.784
  168SAPS   C2718995   3.046   6.964  13.701
  168SAPS   H7R18996   3.058   6.853  13.683
  168SAPS   H7S18997   3.140   7.006  13.664
  168SAPS   C2818998   2.958   6.941  13.597
  168SAPS   H8R18999   2.870   6.887  13.635
  168SAPS   C2919000   3.010   6.947  13.474
  168SAPS   H9R19001   2.936   6.935  13.398
  168SAPS  C21019002   3.156   6.979  13.438
  168SAPS  H10R19003   3.165   6.906  13.361
  168SAPS  H10S19004   3.241   6.948  13.506
  168SAPS  C21119005   3.171   7.129  13.412
  168SAPS  H11R19006   3.130   7.185  13.498
  168SAPS  C21219007   3.230   7.208  13.319
  168SAPS  H12R19008   3.213   7.316  13.327
  168SAPS  C21319009   3.311   7.183  13.197
  168SAPS  H13R19010   3.363   7.092  13.219
  168SAPS  H13S19011   3.407   7.232  13.180
  168SAPS  C21419012   3.243   7.199  13.065
  168SAPS  H14R19013   3.137   7.225  13.066
  168SAPS  C21519014   3.307   7.170  12.951
  168SAPS  H15R19015   3.252   7.170  12.859
  168SAPS  C21619016   3.445   7.120  12.926
  168SAPS  H16R19017   3.493   7.085  13.020
  168SAPS  H16S19018   3.514   7.196  12.889
  168SAPS  C21719019   3.444   7.015  12.815
  168SAPS  H17R19020   3.405   7.043  12.716
  168SAPS  H17S19021   3.379   6.938  12.840
  168SAPS  C21819022   3.578   6.948  12.820
  168SAPS  H18R19023   3.609   6.902  12.914
  168SAPS  H18S19024   3.623   7.037  12.816
  168SAPS  C21919025   3.623   6.859  12.713
  168SAPS  H19R19026   3.530   6.806  12.750
  168SAPS  H19S19027   3.710   6.794  12.724
  168SAPS  C22019028   3.617   6.886  12.563
  168SAPS  H20R19029   3.636   6.809  12.485
  168SAPS  H20S19030   3.619   6.990  12.528
  168SAPS  H20T19031   3.514   6.863  12.562
  168SAPS   C3319032   2.871   7.455  14.238
  168SAPS   H3X19033   2.942   7.541  14.233
  168SAPS   H3Y19034   2.824   7.501  14.327
  168SAPS   C3419035   2.785   7.428  14.108
  168SAPS   H4X19036   2.787   7.511  14.033
  168SAPS   H4Y19037   2.681   7.410  14.139
  168SAPS   C3519038   2.822   7.345  13.990
  168SAPS   H5X19039   2.835   7.243  14.024
  168SAPS   H5Y19040   2.914   7.386  13.948
  168SAPS   C3619041   2.726   7.367  13.870
  168SAPS   H6X19042   2.738   7.470  13.830
  168SAPS   H6Y19043   2.620   7.353  13.896
  168SAPS   C3719044   2.773   7.276  13.761
  168SAPS   H7X19045   2.753   7.171  13.792
  168SAPS   H7Y19046   2.884   7.290  13.756
  168SAPS   C3819047   2.718   7.303  13.622
  168SAPS   H8X19048   2.710   7.411  13.595
  168SAPS   H8Y19049   2.618   7.257  13.615
  168SAPS   C3919050   2.813   7.244  13.519
  168SAPS   H9X19051   2.829   7.137  13.544
  168SAPS   H9Y19052   2.911   7.296  13.525
  168SAPS  C31019053   2.753   7.252  13.381
  168SAPS  H10X19054   2.733   7.358  13.355
  168SAPS  H10Y19055   2.657   7.196  13.383
  168SAPS  C31119056   2.848   7.196  13.278
  168SAPS  H11X19057   2.877   7.091  13.297
  168SAPS  H11Y19058   2.942   7.256  13.277
  168SAPS  C31219059   2.796   7.199  13.138
  168SAPS  H12X19060   2.809   7.301  13.097
  168SAPS  H12Y19061   2.689   7.172  13.121
  168SAPS  C31319062   2.885   7.098  13.069
  168SAPS  H13X19063   2.987   7.088  13.108
  168SAPS  H13Y19064   2.928   7.138  12.982
  168SAPS  C31419065   2.808   6.974  13.032
  168SAPS  H14X19066   2.698   6.994  13.020
  168SAPS  H14Y19067   2.828   6.900  13.111
  168SAPS  C31519068   2.842   6.923  12.897
  168SAPS  H15X19069   2.847   7.003  12.820
  168SAPS  H15Y19070   2.780   6.834  12.879
  168SAPS  C31619071   2.961   6.841  12.878
  168SAPS  H16X19072   2.977   6.841  12.986
  168SAPS  H16Y19073   3.031   6.925  12.885
  168SAPS  C31719074   2.977   6.694  12.767
  168SAPS  H17X19075   3.065   6.740  12.720
  168SAPS  H17Y19076   2.908   6.700  12.686
  168SAPS  C31819077   3.029   6.518  12.782
  168SAPS  H18X19078   2.977   6.447  12.847
  168SAPS  H18Y19079   3.099   6.492  12.867
  168SAPS  H18Z19080   3.126   6.475  12.754
  169SAPS     N19081   6.620   1.977  14.765
  169SAPS   HN119082   6.520   1.961  14.743
  169SAPS   HN219083   6.683   1.937  14.692
  169SAPS   HN319084   6.644   1.926  14.851
  169SAPS   C1219085   6.656   2.122  14.775
  169SAPS  H12A19086   6.617   2.170  14.687
  169SAPS   C1319087   6.605   2.196  14.900
  169SAPS  O13A19088   6.535   2.133  14.983
  169SAPS  O13B19089   6.638   2.315  14.914
  169SAPS   C1119090   6.809   2.142  14.768
  169SAPS  H11A19091   6.855   2.090  14.856
  169SAPS  H11B19092   6.834   2.250  14.776
  169SAPS     P19093   6.942   1.970  14.623
  169SAPS   O1319094   7.082   2.009  14.651
  169SAPS   O1419095   6.873   1.869  14.706
  169SAPS   O1219096   6.856   2.100  14.641
  169SAPS   O1119097   6.914   1.940  14.471
  169SAPS    C119098   6.967   2.029  14.373
  169SAPS    HA19099   7.045   2.098  14.413
  169SAPS    HB19100   7.014   1.968  14.292
  169SAPS    C219101   6.862   2.117  14.301
  169SAPS    HS19102   6.830   2.199  14.370
  169SAPS   O2119103   6.752   2.037  14.253
  169SAPS   C2119104   6.629   2.084  14.263
  169SAPS   O2219105   6.593   2.183  14.325
  169SAPS   C2219106   6.535   1.995  14.182
  169SAPS   H2R19107   6.557   1.890  14.210
  169SAPS   H2S19108   6.432   2.021  14.212
  169SAPS    C319109   6.939   2.179  14.181
  169SAPS    HX19110   6.988   2.099  14.121
  169SAPS    HY19111   7.022   2.242  14.220
  169SAPS   O3119112   6.852   2.254  14.099
  169SAPS   C3119113   6.811   2.366  14.162
  169SAPS   O3219114   6.856   2.408  14.265
  169SAPS   C3219115   6.709   2.438  14.085
  169SAPS   H2X19116   6.740   2.544  14.076
  169SAPS   H2Y19117   6.609   2.437  14.133
  169SAPS   C2319118   6.553   2.024  14.031
  169SAPS   H3R19119   6.662   2.021  14.004
  169SAPS   H3S19120   6.515   2.126  14.011
  169SAPS   C2419121   6.473   1.935  13.936
  169SAPS   H4R19122   6.494   1.969  13.832
  169SAPS   H4S19123   6.364   1.941  13.952
  169SAPS   C2519124   6.529   1.800  13.966
  169SAPS   H5R19125   6.482   1.747  14.050
  169SAPS   C2619126   6.622   1.739  13.893
  169SAPS   H6R19127   6.651   1.637  13.920
  169SAPS   C2719128   6.685   1.790  13.767
  169SAPS   H7R19129   6.625   1.866  13.710
  169SAPS   H7S19130   6.694   1.700  13.705
  169SAPS   C2819131   6.826   1.825  13.787
  169SAPS   H8R19132   6.877   1.747  13.845
  169SAPS   C2919133   6.892   1.932  13.740
  169SAPS   H9R19134   7.000   1.936  13.760
  169SAPS  C21019135   6.841   2.046  13.654
  169SAPS  H10R19136   6.919   2.125  13.649
  169SAPS  H10S19137   6.753   2.095  13.702
  169SAPS  C21119138   6.803   2.005  13.515
  169SAPS  H11R19139   6.704   1.956  13.510
  169SAPS  C21219140   6.876   2.015  13.402
  169SAPS  H12R19141   6.831   1.974  13.311
  169SAPS  C21319142   7.017   2.070  13.381
  169SAPS  H13R19143   7.043   2.149  13.455
  169SAPS  H13S19144   7.023   2.124  13.283
  169SAPS  C21419145   7.122   1.962  13.387
  169SAPS  H14R19146   7.189   1.967  13.475
  169SAPS  C21519147   7.140   1.861  13.300
  169SAPS  H15R19148   7.212   1.781  13.324
  169SAPS  C21619149   7.058   1.838  13.176
  169SAPS  H16R19150   6.994   1.925  13.152
  169SAPS  H16S19151   6.988   1.753  13.193
  169SAPS  C21719152   7.142   1.805  13.054
  169SAPS  H17R19153   7.195   1.707  13.062
  169SAPS  H17S19154   7.221   1.882  13.033
  169SAPS  C21819155   7.053   1.801  12.933
  169SAPS  H18R19156   7.025   1.906  12.908
  169SAPS  H18S19157   6.958   1.744  12.946
  169SAPS  C21919158   7.135   1.749  12.820
  169SAPS  H19R19159   7.164   1.641  12.824
  169SAPS  H19S19160   7.219   1.815  12.790
  169SAPS  C22019161   7.052   1.758  12.707
  169SAPS  H20R19162   7.013   1.860  12.681
  169SAPS  H20S19163   6.962   1.709  12.721
  169SAPS  H20T19164   7.103   1.699  12.627
  169SAPS   C3319165   6.703   2.365  13.957
  169SAPS   H3X19166   6.640   2.276  13.967
  169SAPS   H3Y19167   6.797   2.349  13.897
  169SAPS   C3419168   6.633   2.449  13.876
  169SAPS   H4X19169   6.712   2.525  13.838
  169SAPS   H4Y19170   6.530   2.480  13.913
  169SAPS   C3519171   6.601   2.382  13.760
  169SAPS   H5X19172   6.683   2.394  13.686
  169SAPS   H5Y19173   6.566   2.486  13.729
  169SAPS   C3619174   6.508   2.233  13.761
  169SAPS   H6X19175   6.445   2.235  13.849
  169SAPS   H6Y19176   6.593   2.177  13.787
  169SAPS   C3719177   6.414   2.141  13.636
  169SAPS   H7X19178   6.338   2.188  13.572
  169SAPS   H7Y19179   6.328   2.084  13.671
  169SAPS   C3819180   6.430   2.148  13.480
  169SAPS   H8X19181   6.530   2.112  13.480
  169SAPS   H8Y19182   6.406   2.245  13.416
  169SAPS   C3919183   6.347   2.123  13.370
  169SAPS   H9X19184   6.247   2.178  13.381
  169SAPS   H9Y19185   6.353   2.026  13.416
  169SAPS  C31019186   6.451   2.128  13.252
  169SAPS  H10X19187   6.379   2.063  13.199
  169SAPS  H10Y19188   6.533   2.064  13.280
  169SAPS  C31119189   6.517   2.260  13.178
  169SAPS  H11X19190   6.580   2.332  13.220
  169SAPS  H11Y19191   6.446   2.340  13.170
  169SAPS  C31219192   6.613   2.258  13.056
  169SAPS  H12X19193   6.607   2.337  12.982
  169SAPS  H12Y19194   6.616   2.172  12.988
  169SAPS  C31319195   6.746   2.230  13.100
  169SAPS  H13X19196   6.731   2.136  13.160
  169SAPS  H13Y19197   6.765   2.322  13.160
  169SAPS  C31419198   6.819   2.211  12.970
  169SAPS  H14X19199   6.788   2.291  12.898
  169SAPS  H14Y19200   6.795   2.113  12.920
  169SAPS  C31519201   6.962   2.218  13.009
  169SAPS  H15X19202   6.984   2.124  13.063
  169SAPS  H15Y19203   6.970   2.304  13.079
  169SAPS  C31619204   7.046   2.240  12.886
  169SAPS  H16X19205   7.006   2.177  12.804
  169SAPS  H16Y19206   7.149   2.205  12.909
  169SAPS  C31719207   7.046   2.390  12.853
  169SAPS  H17X19208   7.115   2.444  12.921
  169SAPS  H17Y19209   6.943   2.431  12.868
  169SAPS  C31819210   7.088   2.424  12.713
  169SAPS  H18X19211   7.086   2.535  12.697
  169SAPS  H18Y19212   7.014   2.376  12.644
  169SAPS  H18Z19213   7.190   2.390  12.688
  170SAPS     N19214   6.391   6.047  14.943
  170SAPS   HN119215   6.352   6.098  15.025
  170SAPS   HN219216   6.325   6.045  14.862
  170SAPS   HN319217   6.412   5.951  14.974
  170SAPS   C1219218   6.518   6.108  14.895
  170SAPS  H12A19219   6.505   6.215  14.893
  170SAPS   C1319220   6.640   6.084  14.987
  170SAPS  O13A19221   6.622   6.033  15.101
  170SAPS  O13B19222   6.746   6.139  14.950
  170SAPS   C1119223   6.550   6.058  14.751
  170SAPS  H11A19224   6.560   5.947  14.755
  170SAPS  H11B19225   6.649   6.099  14.718
  170SAPS     P19226   6.443   6.024  14.516
  170SAPS   O1319227   6.579   5.988  14.474
  170SAPS   O1419228   6.345   5.913  14.530
  170SAPS   O1219229   6.449   6.099  14.658
  170SAPS   O1119230   6.389   6.138  14.417
  170SAPS    C119231   6.478   6.243  14.374
  170SAPS    HA19232   6.541   6.279  14.458
  170SAPS    HB19233   6.544   6.202  14.293
  170SAPS    C219234   6.403   6.372  14.325
  170SAPS    HS19235   6.342   6.405  14.412
  170SAPS   O2119236   6.319   6.336  14.213
  170SAPS   C2119237   6.226   6.425  14.189
  170SAPS   O2219238   6.210   6.529  14.251
  170SAPS   C2219239   6.153   6.379  14.063
  170SAPS   H2R19240   6.171   6.272  14.048
  170SAPS   H2S19241   6.047   6.395  14.081
  170SAPS    C319242   6.497   6.492  14.285
  170SAPS    HX19243   6.553   6.520  14.377
  170SAPS    HY19244   6.436   6.582  14.260
  170SAPS   O3119245   6.590   6.457  14.181
  170SAPS   C3119246   6.576   6.514  14.064
  170SAPS   O3219247   6.511   6.613  14.038
  170SAPS   C3219248   6.642   6.432  13.958
  170SAPS   H2X19249   6.745   6.463  13.951
  170SAPS   H2Y19250   6.591   6.456  13.862
  170SAPS   C2319251   6.207   6.460  13.942
  170SAPS   H3R19252   6.316   6.466  13.929
  170SAPS   H3S19253   6.209   6.549  13.993
  170SAPS   C2419254   6.120   6.492  13.823
  170SAPS   H4R19255   6.085   6.586  13.773
  170SAPS   H4S19256   6.029   6.450  13.846
  170SAPS   C2519257   6.196   6.407  13.744
  170SAPS   H5R19258   6.220   6.310  13.785
  170SAPS   C2619259   6.189   6.424  13.620
  170SAPS   H6R19260   6.237   6.335  13.575
  170SAPS   C2719261   6.111   6.528  13.529
  170SAPS   H7R19262   6.040   6.598  13.574
  170SAPS   H7S19263   6.090   6.520  13.420
  170SAPS   C2819264   6.240   6.584  13.528
  170SAPS   H8R19265   6.230   6.693  13.548
  170SAPS   C2919266   6.343   6.552  13.452
  170SAPS   H9R19267   6.408   6.614  13.507
  170SAPS  C21019268   6.405   6.452  13.358
  170SAPS  H10R19269   6.404   6.473  13.244
  170SAPS  H10S19270   6.325   6.408  13.385
  170SAPS  C21119271   6.501   6.357  13.400
  170SAPS  H11R19272   6.516   6.372  13.507
  170SAPS  C21219273   6.564   6.266  13.331
  170SAPS  H12R19274   6.660   6.244  13.377
  170SAPS  C21319275   6.543   6.240  13.185
  170SAPS  H13R19276   6.452   6.288  13.144
  170SAPS  H13S19277   6.522   6.133  13.190
  170SAPS  C21419278   6.652   6.262  13.087
  170SAPS  H14R19279   6.730   6.190  13.101
  170SAPS  C21519280   6.661   6.328  12.971
  170SAPS  H15R19281   6.757   6.334  12.917
  170SAPS  C21619282   6.557   6.404  12.903
  170SAPS  H16R19283   6.462   6.371  12.944
  170SAPS  H16S19284   6.563   6.370  12.797
  170SAPS  C21719285   6.581   6.554  12.921
  170SAPS  H17R19286   6.672   6.582  12.863
  170SAPS  H17S19287   6.590   6.589  13.025
  170SAPS  C21819288   6.467   6.640  12.876
  170SAPS  H18R19289   6.457   6.744  12.911
  170SAPS  H18S19290   6.369   6.587  12.867
  170SAPS  C21919291   6.499   6.668  12.739
  170SAPS  H19R19292   6.399   6.717  12.722
  170SAPS  H19S19293   6.514   6.565  12.697
  170SAPS  C22019294   6.594   6.775  12.690
  170SAPS  H20R19295   6.555   6.830  12.600
  170SAPS  H20S19296   6.686   6.726  12.652
  170SAPS  H20T19297   6.597   6.860  12.757
  170SAPS   C3319298   6.644   6.283  13.990
  170SAPS   H3X19299   6.541   6.258  14.023
  170SAPS   H3Y19300   6.713   6.265  14.076
  170SAPS   C3419301   6.688   6.201  13.869
  170SAPS   H4X19302   6.799   6.202  13.865
  170SAPS   H4Y19303   6.650   6.251  13.777
  170SAPS   C3519304   6.645   6.054  13.868
  170SAPS   H5X19305   6.702   5.999  13.948
  170SAPS   H5Y19306   6.678   6.014  13.769
  170SAPS   C3619307   6.496   6.017  13.875
  170SAPS   H6X19308   6.457   6.028  13.979
  170SAPS   H6Y19309   6.491   5.908  13.849
  170SAPS   C3719310   6.401   6.090  13.779
  170SAPS   H7X19311   6.400   6.199  13.801
  170SAPS   H7Y19312   6.299   6.049  13.798
  170SAPS   C3819313   6.433   6.075  13.630
  170SAPS   H8X19314   6.538   6.100  13.605
  170SAPS   H8Y19315   6.367   6.148  13.576
  170SAPS   C3919316   6.405   5.937  13.575
  170SAPS   H9X19317   6.303   5.917  13.608
  170SAPS   H9Y19318   6.470   5.856  13.615
  170SAPS  C31019319   6.411   5.938  13.425
  170SAPS  H10X19320   6.435   5.843  13.380
  170SAPS  H10Y19321   6.486   6.012  13.390
  170SAPS  C31119322   6.279   5.979  13.373
  170SAPS  H11X19323   6.280   6.087  13.400
  170SAPS  H11Y19324   6.188   5.928  13.408
  170SAPS  C31219325   6.274   5.966  13.223
  170SAPS  H12X19326   6.204   5.894  13.187
  170SAPS  H12Y19327   6.371   5.984  13.168
  170SAPS  C31319328   6.156   6.025  13.150
  170SAPS  H13X19329   6.223   6.083  13.214
  170SAPS  H13Y19330   6.065   6.050  13.209
  170SAPS  C31419331   6.168   6.065  12.988
  170SAPS  H14X19332   6.110   5.978  12.960
  170SAPS  H14Y19333   6.274   6.062  12.971
  170SAPS  C31519334   6.143   6.199  12.878
  170SAPS  H15X19335   6.038   6.158  12.908
  170SAPS  H15Y19336   6.155   6.198  12.778
  170SAPS  C31619337   6.198   6.394  12.872
  170SAPS  H16X19338   6.291   6.423  12.907
  170SAPS  H16Y19339   6.147   6.437  12.952
  170SAPS  C31719340   6.123   6.537  12.911
  170SAPS  H17X19341   6.008   6.558  12.940
  170SAPS  H17Y19342   6.149   6.573  12.810
  170SAPS  C31819343   6.172   6.591  13.041
  170SAPS  H18X19344   6.142   6.665  12.965
  170SAPS  H18Y19345   6.272   6.597  13.076
  170SAPS  H18Z19346   6.090   6.571  13.116
  171SAPS     N19347   0.142   6.103  14.788
  171SAPS   HN119348   0.157   6.034  14.710
  171SAPS   HN219349   0.159   6.197  14.750
  171SAPS   HN319350   0.222   6.084  14.853
  171SAPS   C1219351   0.009   6.093  14.854
  171SAPS  H12A19352   0.014   6.002  14.912
  171SAPS   C1319353  -0.048   6.213  14.940
  171SAPS  O13A19354   0.018   6.320  14.938
  171SAPS  O13B19355  -0.101   6.175  15.047
  171SAPS   C1119356  -0.098   6.090  14.748
  171SAPS  H11A19357  -0.080   6.173  14.675
  171SAPS  H11B19358  -0.198   6.106  14.795
  171SAPS     P19359  -0.020   5.925  14.565
  171SAPS   O1319360   0.079   5.820  14.601
  171SAPS   O1419361  -0.114   5.909  14.458
  171SAPS   O1219362  -0.099   5.962  14.693
  171SAPS   O1119363   0.056   6.056  14.531
  171SAPS    C119364   0.188   6.052  14.481
  171SAPS    HA19365   0.254   6.033  14.568
  171SAPS    HB19366   0.207   5.971  14.407
  171SAPS    C219367   0.219   6.191  14.420
  171SAPS    HS19368   0.197   6.269  14.497
  171SAPS   O2119369   0.154   6.210  14.295
  171SAPS   C2119370   0.045   6.274  14.302
  171SAPS   O2219371  -0.003   6.327  14.402
  171SAPS   C2219372  -0.009   6.290  14.164
  171SAPS   H2R19373   0.072   6.317  14.093
  171SAPS   H2S19374  -0.062   6.200  14.130
  171SAPS    C319375   0.364   6.200  14.393
  171SAPS    HX19376   0.403   6.154  14.487
  171SAPS    HY19377   0.412   6.299  14.384
  171SAPS   O3119378   0.388   6.117  14.278
  171SAPS   C3119379   0.392   6.181  14.165
  171SAPS   O3219380   0.378   6.301  14.146
  171SAPS   C3219381   0.451   6.094  14.062
  171SAPS   H2X19382   0.551   6.054  14.070
  171SAPS   H2Y19383   0.478   6.168  13.985
  171SAPS   C2319384  -0.110   6.399  14.172
  171SAPS   H3R19385  -0.077   6.494  14.223
  171SAPS   H3S19386  -0.202   6.367  14.226
  171SAPS   C2419387  -0.150   6.426  14.033
  171SAPS   H4R19388  -0.240   6.478  14.070
  171SAPS   H4S19389  -0.184   6.352  13.961
  171SAPS   C2519390  -0.052   6.511  13.968
  171SAPS   H5R19391  -0.068   6.612  13.982
  171SAPS   C2619392   0.007   6.504  13.855
  171SAPS   H6R19393   0.078   6.579  13.831
  171SAPS   C2719394   0.001   6.412  13.748
  171SAPS   H7R19395   0.013   6.475  13.657
  171SAPS   H7S19396  -0.096   6.364  13.757
  171SAPS   C2819397   0.118   6.342  13.806
  171SAPS   H8R19398   0.103   6.287  13.898
  171SAPS   C2919399   0.237   6.354  13.756
  171SAPS   H9R19400   0.316   6.302  13.813
  171SAPS  C21019401   0.270   6.429  13.636
  171SAPS  H10R19402   0.372   6.473  13.664
  171SAPS  H10S19403   0.206   6.509  13.596
  171SAPS  C21119404   0.304   6.356  13.515
  171SAPS  H11R19405   0.391   6.323  13.569
  171SAPS  C21219406   0.257   6.271  13.424
  171SAPS  H12R19407   0.313   6.190  13.382
  171SAPS  C21319408   0.109   6.285  13.398
  171SAPS  H13R19409   0.064   6.259  13.497
  171SAPS  H13S19410   0.086   6.204  13.325
  171SAPS  C21419411   0.088   6.420  13.349
  171SAPS  H14R19412   0.069   6.492  13.429
  171SAPS  C21519413   0.113   6.465  13.224
  171SAPS  H15R19414   0.107   6.572  13.205
  171SAPS  C21619415   0.164   6.388  13.108
  171SAPS  H16R19416   0.092   6.402  13.024
  171SAPS  H16S19417   0.166   6.280  13.131
  171SAPS  C21719418   0.307   6.431  13.071
  171SAPS  H17R19419   0.376   6.449  13.154
  171SAPS  H17S19420   0.304   6.529  13.023
  171SAPS  C21819421   0.372   6.339  12.971
  171SAPS  H18R19422   0.374   6.230  12.987
  171SAPS  H18S19423   0.475   6.377  12.946
  171SAPS  C21919424   0.296   6.355  12.849
  171SAPS  H19R19425   0.272   6.462  12.850
  171SAPS  H19S19426   0.197   6.304  12.838
  171SAPS  C22019427   0.395   6.317  12.745
  171SAPS  H20R19428   0.404   6.208  12.730
  171SAPS  H20S19429   0.478   6.378  12.708
  171SAPS  H20T19430   0.335   6.351  12.665
  171SAPS   C3319431   0.384   5.961  14.041
  171SAPS   H3X19432   0.374   5.899  14.130
  171SAPS   H3Y19433   0.438   5.894  13.975
  171SAPS   C3419434   0.255   5.983  13.981
  171SAPS   H4X19435   0.253   5.984  13.870
  171SAPS   H4Y19436   0.212   6.074  14.027
  171SAPS   C3519437   0.173   5.870  14.011
  171SAPS   H5X19438   0.188   5.828  14.114
  171SAPS   H5Y19439   0.201   5.788  13.940
  171SAPS   C3619440   0.038   5.941  14.002
  171SAPS   H6X19441  -0.006   5.991  14.087
  171SAPS   H6Y19442  -0.006   5.851  14.034
  171SAPS   C3719443  -0.004   6.009  13.865
  171SAPS   H7X19444   0.046   5.955  13.780
  171SAPS   H7Y19445   0.046   6.105  13.857
  171SAPS   C3819446  -0.159   6.036  13.842
  171SAPS   H8X19447  -0.209   6.071  13.933
  171SAPS   H8Y19448  -0.230   5.953  13.838
  171SAPS   C3919449  -0.199   6.099  13.705
  171SAPS   H9X19450  -0.113   6.155  13.664
  171SAPS   H9Y19451  -0.280   6.169  13.736
  171SAPS  C31019452  -0.262   6.009  13.594
  171SAPS  H10X19453  -0.359   5.966  13.627
  171SAPS  H10Y19454  -0.199   5.927  13.557
  171SAPS  C31119455  -0.270   6.073  13.457
  171SAPS  H11X19456  -0.281   5.998  13.375
  171SAPS  H11Y19457  -0.170   6.120  13.438
  171SAPS  C31219458  -0.384   6.172  13.461
  171SAPS  H12X19459  -0.378   6.229  13.556
  171SAPS  H12Y19460  -0.482   6.119  13.462
  171SAPS  C31319461  -0.369   6.272  13.348
  171SAPS  H13X19462  -0.264   6.309  13.346
  171SAPS  H13Y19463  -0.438   6.357  13.368
  171SAPS  C31419464  -0.405   6.208  13.216
  171SAPS  H14X19465  -0.506   6.172  13.243
  171SAPS  H14Y19466  -0.352   6.115  13.188
  171SAPS  C31519467  -0.397   6.305  13.096
  171SAPS  H15X19468  -0.455   6.399  13.116
  171SAPS  H15Y19469  -0.444   6.251  13.011
  171SAPS  C31619470  -0.259   6.332  13.037
  171SAPS  H16X19471  -0.204   6.236  13.035
  171SAPS  H16Y19472  -0.206   6.400  13.107
  171SAPS  C31719473  -0.264   6.396  12.896
  171SAPS  H17X19474  -0.174   6.461  12.888
  171SAPS  H17Y19475  -0.352   6.465  12.890
  171SAPS  C31819476  -0.270   6.302  12.774
  171SAPS  H18X19477  -0.353   6.229  12.781
  171SAPS  H18Y19478  -0.174   6.248  12.757
  171SAPS  H18Z19479  -0.288   6.363  12.682
  172SAPS     N19480   6.989   6.704  14.985
  172SAPS   HN119481   6.903   6.651  15.001
  172SAPS   HN219482   7.066   6.640  14.959
  172SAPS   HN319483   7.024   6.759  15.067
  172SAPS   C1219484   6.968   6.799  14.873
  172SAPS  H12A19485   6.892   6.870  14.902
  172SAPS   C1319486   7.092   6.879  14.845
  172SAPS  O13A19487   7.200   6.845  14.901
  172SAPS  O13B19488   7.079   6.973  14.766
  172SAPS   C1119489   6.930   6.727  14.741
  172SAPS  H11A19490   7.015   6.661  14.713
  172SAPS  H11B19491   6.919   6.802  14.658
  172SAPS     P19492   6.737   6.593  14.632
  172SAPS   O1319493   6.836   6.526  14.545
  172SAPS   O1419494   6.616   6.520  14.674
  172SAPS   O1219495   6.810   6.652  14.761
  172SAPS   O1119496   6.698   6.722  14.552
  172SAPS    C119497   6.625   6.831  14.606
  172SAPS    HA19498   6.524   6.795  14.635
  172SAPS    HB19499   6.678   6.870  14.695
  172SAPS    C219500   6.613   6.945  14.502
  172SAPS    HS19501   6.533   7.014  14.534
  172SAPS   O2119502   6.578   6.885  14.376
  172SAPS   C2119503   6.551   6.971  14.284
  172SAPS   O2219504   6.551   7.093  14.300
  172SAPS   C2219505   6.521   6.897  14.155
  172SAPS   H2R19506   6.496   6.792  14.169
  172SAPS   H2S19507   6.421   6.925  14.136
  172SAPS    C319508   6.745   7.029  14.491
  172SAPS    HX19509   6.777   7.059  14.592
  172SAPS    HY19510   6.730   7.124  14.435
  172SAPS   O3119511   6.848   6.950  14.436
  172SAPS   C3119512   6.915   6.996  14.336
  172SAPS   O3219513   6.900   7.102  14.277
  172SAPS   C3219514   7.011   6.889  14.299
  172SAPS   H2X19515   6.963   6.789  14.306
  172SAPS   H2Y19516   7.096   6.892  14.371
  172SAPS   C2319517   6.631   6.929  14.050
  172SAPS   H3R19518   6.717   6.870  14.090
  172SAPS   H3S19519   6.661   7.037  14.051
  172SAPS   C2419520   6.623   6.869  13.909
  172SAPS   H4R19521   6.574   6.772  13.908
  172SAPS   H4S19522   6.713   6.877  13.848
  172SAPS   C2519523   6.525   6.923  13.826
  172SAPS   H5R19524   6.446   6.938  13.897
  172SAPS   C2619525   6.530   6.999  13.720
  172SAPS   H6R19526   6.436   7.039  13.704
  172SAPS   C2719527   6.622   7.071  13.635
  172SAPS   H7R19528   6.574   7.078  13.535
  172SAPS   H7S19529   6.700   7.007  13.649
  172SAPS   C2819530   6.666   7.207  13.672
  172SAPS   H8R19531   6.587   7.263  13.645
  172SAPS   C2919532   6.751   7.270  13.752
  172SAPS   H9R19533   6.746   7.379  13.768
  172SAPS  C21019534   6.840   7.191  13.837
  172SAPS  H10R19535   6.813   7.084  13.820
  172SAPS  H10S19536   6.826   7.212  13.945
  172SAPS  C21119537   6.973   7.234  13.785
  172SAPS  H11R19538   6.991   7.342  13.778
  172SAPS  C21219539   7.072   7.149  13.762
  172SAPS  H12R19540   7.161   7.181  13.705
  172SAPS  C21319541   7.051   7.005  13.790
  172SAPS  H13R19542   6.954   6.966  13.822
  172SAPS  H13S19543   7.126   6.974  13.864
  172SAPS  C21419544   7.075   6.930  13.670
  172SAPS  H14R19545   7.173   6.904  13.694
  172SAPS  C21519546   7.018   6.886  13.556
  172SAPS  H15R19547   7.069   6.832  13.476
  172SAPS  C21619548   6.890   6.897  13.503
  172SAPS  H16R19549   6.833   6.930  13.584
  172SAPS  H16S19550   6.861   6.801  13.459
  172SAPS  C21719551   6.887   6.991  13.395
  172SAPS  H17R19552   6.929   7.091  13.425
  172SAPS  H17S19553   6.780   6.972  13.365
  172SAPS  C21819554   6.943   6.970  13.261
  172SAPS  H18R19555   6.930   6.876  13.207
  172SAPS  H18S19556   7.051   7.001  13.257
  172SAPS  C21919557   6.848   7.063  13.191
  172SAPS  H19R19558   6.841   7.146  13.270
  172SAPS  H19S19559   6.749   7.095  13.170
  172SAPS  C22019560   6.862   7.036  13.041
  172SAPS  H20R19561   6.809   6.954  12.996
  172SAPS  H20S19562   6.962   6.989  13.032
  172SAPS  H20T19563   6.858   7.123  12.974
  172SAPS   C3319564   7.043   6.926  14.157
  172SAPS   H3X19565   7.090   7.026  14.144
  172SAPS   H3Y19566   6.956   6.912  14.089
  172SAPS   C3419567   7.146   6.839  14.110
  172SAPS   H4X19568   7.226   6.833  14.188
  172SAPS   H4Y19569   7.189   6.879  14.017
  172SAPS   C3519570   7.090   6.707  14.082
  172SAPS   H5X19571   7.022   6.663  14.156
  172SAPS   H5Y19572   7.175   6.652  14.121
  172SAPS   C3619573   7.042   6.692  13.935
  172SAPS   H6X19574   7.118   6.694  13.855
  172SAPS   H6Y19575   6.979   6.781  13.916
  172SAPS   C3719576   6.956   6.568  13.918
  172SAPS   H7X19577   6.891   6.565  14.006
  172SAPS   H7Y19578   7.005   6.471  13.919
  172SAPS   C3819579   6.906   6.537  13.780
  172SAPS   H8X19580   6.877   6.428  13.782
  172SAPS   H8Y19581   6.988   6.547  13.705
  172SAPS   C3919582   6.788   6.624  13.750
  172SAPS   H9X19583   6.819   6.730  13.746
  172SAPS   H9Y19584   6.716   6.623  13.833
  172SAPS  C31019585   6.726   6.573  13.622
  172SAPS  H10X19586   6.687   6.469  13.642
  172SAPS  H10Y19587   6.805   6.562  13.545
  172SAPS  C31119588   6.618   6.667  13.565
  172SAPS  H11X19589   6.638   6.773  13.581
  172SAPS  H11Y19590   6.532   6.641  13.632
  172SAPS  C31219591   6.603   6.654  13.408
  172SAPS  H12X19592   6.606   6.549  13.431
  172SAPS  H12Y19593   6.691   6.648  13.344
  172SAPS  C31319594   6.478   6.714  13.320
  172SAPS  H13X19595   6.383   6.736  13.375
  172SAPS  H13Y19596   6.439   6.660  13.231
  172SAPS  C31419597   6.448   6.849  13.317
  172SAPS  H14X19598   6.472   6.880  13.425
  172SAPS  H14Y19599   6.340   6.874  13.278
  172SAPS  C31519600   6.558   6.884  13.234
  172SAPS  H15X19601   6.551   6.810  13.145
  172SAPS  H15Y19602   6.644   6.855  13.295
  172SAPS  C31619603   6.550   7.033  13.201
  172SAPS  H16X19604   6.504   6.971  13.139
  172SAPS  H16Y19605   6.507   7.090  13.285
  172SAPS  C31719606   6.472   7.072  13.068
  172SAPS  H17X19607   6.372   7.014  13.048
  172SAPS  H17Y19608   6.528   7.049  12.975
  172SAPS  C31819609   6.460   7.219  13.056
  172SAPS  H18X19610   6.480   7.283  13.143
  172SAPS  H18Y19611   6.365   7.247  13.087
  172SAPS  H18Z19612   6.419   7.245  12.958
  173SAPS     N19613   4.981   3.814  10.936
  173SAPS   HN119614   5.009   3.728  10.987
  173SAPS   HN219615   5.031   3.894  10.979
  173SAPS   HN319616   4.878   3.826  10.940
  173SAPS   C1219617   5.018   3.799  10.791
  173SAPS  H12A19618   4.941   3.846  10.732
  173SAPS   C1319619   5.149   3.864  10.749
  173SAPS  O13A19620   5.223   3.911  10.841
  173SAPS  O13B19621   5.177   3.867  10.626
  173SAPS   C1119622   5.029   3.649  10.751
  173SAPS  H11A19623   5.114   3.603  10.806
  173SAPS  H11B19624   5.055   3.645  10.642
  173SAPS     P19625   4.782   3.596  10.692
  173SAPS   O1319626   4.804   3.701  10.591
  173SAPS   O1419627   4.719   3.468  10.652
  173SAPS   O1219628   4.912   3.573  10.779
  173SAPS   O1119629   4.697   3.661  10.808
  173SAPS    C119630   4.678   3.581  10.927
  173SAPS    HA19631   4.645   3.478  10.903
  173SAPS    HB19632   4.768   3.582  10.992
  173SAPS    C219633   4.564   3.640  11.005
  173SAPS    HS19634   4.489   3.647  10.928
  173SAPS   O2119635   4.621   3.763  11.044
  173SAPS   C2119636   4.535   3.837  11.087
  173SAPS   O2219637   4.417   3.815  11.106
  173SAPS   C2219638   4.612   3.966  11.082
  173SAPS   H2R19639   4.571   4.057  11.036
  173SAPS   H2S19640   4.535   3.993  11.137
  173SAPS    C319641   4.503   3.565  11.126
  173SAPS    HX19642   4.471   3.466  11.091
  173SAPS    HY19643   4.410   3.609  11.170
  173SAPS   O3119644   4.602   3.572  11.227
  173SAPS   C3119645   4.624   3.461  11.287
  173SAPS   O3219646   4.566   3.355  11.276
  173SAPS   C3219647   4.734   3.487  11.384
  173SAPS   H2X19648   4.697   3.482  11.487
  173SAPS   H2Y19649   4.787   3.581  11.363
  173SAPS   C2319650   4.730   3.968  11.185
  173SAPS   H3R19651   4.798   3.903  11.129
  173SAPS   H3S19652   4.700   3.919  11.281
  173SAPS   C2419653   4.796   4.105  11.220
  173SAPS   H4R19654   4.731   4.187  11.252
  173SAPS   H4S19655   4.792   4.172  11.141
  173SAPS   C2519656   4.932   4.118  11.285
  173SAPS   H5R19657   5.012   4.109  11.212
  173SAPS   C2619658   4.969   4.132  11.415
  173SAPS   H6R19659   5.073   4.139  11.444
  173SAPS   C2719660   4.891   4.141  11.541
  173SAPS   H7R19661   4.922   4.081  11.630
  173SAPS   H7S19662   4.828   4.059  11.502
  173SAPS   C2819663   4.831   4.283  11.573
  173SAPS   H8R19664   4.797   4.338  11.487
  173SAPS   C2919665   4.768   4.324  11.684
  173SAPS   H9R19666   4.680   4.392  11.694
  173SAPS  C21019667   4.753   4.230  11.783
  173SAPS  H10R19668   4.769   4.134  11.736
  173SAPS  H10S19669   4.645   4.223  11.744
  173SAPS  C21119670   4.778   4.235  11.944
  173SAPS  H11R19671   4.810   4.340  11.929
  173SAPS  C21219672   4.712   4.172  12.078
  173SAPS  H12R19673   4.693   4.238  12.163
  173SAPS  C21319674   4.585   4.066  12.123
  173SAPS  H13R19675   4.608   3.958  12.112
  173SAPS  H13S19676   4.492   4.066  12.060
  173SAPS  C21419677   4.470   4.072  12.217
  173SAPS  H14R19678   4.379   4.127  12.200
  173SAPS  C21519679   4.488   4.068  12.339
  173SAPS  H15R19680   4.426   4.110  12.414
  173SAPS  C21619681   4.608   4.058  12.386
  173SAPS  H16R19682   4.619   4.163  12.397
  173SAPS  H16S19683   4.677   4.028  12.308
  173SAPS  C21719684   4.635   3.976  12.506
  173SAPS  H17R19685   4.740   3.950  12.513
  173SAPS  H17S19686   4.612   3.899  12.434
  173SAPS  C21819687   4.604   3.993  12.667
  173SAPS  H18R19688   4.511   4.048  12.685
  173SAPS  H18S19689   4.694   4.029  12.725
  173SAPS  C21919690   4.577   3.908  12.774
  173SAPS  H19R19691   4.651   3.837  12.789
  173SAPS  H19S19692   4.474   3.877  12.750
  173SAPS  C22019693   4.567   3.957  12.890
  173SAPS  H20R19694   4.644   4.028  12.913
  173SAPS  H20S19695   4.557   3.869  12.958
  173SAPS  H20T19696   4.474   4.012  12.875
  173SAPS   C3319697   4.824   3.373  11.368
  173SAPS   H3X19698   4.761   3.281  11.361
  173SAPS   H3Y19699   4.884   3.352  11.459
  173SAPS   C3419700   4.915   3.407  11.250
  173SAPS   H4X19701   4.873   3.390  11.149
  173SAPS   H4Y19702   4.981   3.323  11.274
  173SAPS   C3519703   4.992   3.541  11.254
  173SAPS   H5X19704   4.935   3.624  11.213
  173SAPS   H5Y19705   5.084   3.545  11.191
  173SAPS   C3619706   5.031   3.579  11.395
  173SAPS   H6X19707   5.088   3.492  11.405
  173SAPS   H6Y19708   4.968   3.550  11.480
  173SAPS   C3719709   5.102   3.716  11.398
  173SAPS   H7X19710   5.015   3.774  11.365
  173SAPS   H7Y19711   5.184   3.718  11.323
  173SAPS   C3819712   5.152   3.780  11.531
  173SAPS   H8X19713   5.180   3.885  11.516
  173SAPS   H8Y19714   5.254   3.755  11.566
  173SAPS   C3919715   5.053   3.753  11.644
  173SAPS   H9X19716   5.048   3.646  11.675
  173SAPS   H9Y19717   4.953   3.777  11.604
  173SAPS  C31019718   5.088   3.839  11.764
  173SAPS  H10X19719   5.083   3.945  11.732
  173SAPS  H10Y19720   5.192   3.820  11.799
  173SAPS  C31119721   4.993   3.814  11.880
  173SAPS  H11X19722   4.970   3.705  11.887
  173SAPS  H11Y19723   4.899   3.869  11.859
  173SAPS  C31219724   5.053   3.848  12.015
  173SAPS  H12X19725   5.105   3.948  12.013
  173SAPS  H12Y19726   5.127   3.772  12.045
  173SAPS  C31319727   4.944   3.859  12.120
  173SAPS  H13X19728   4.873   3.932  12.073
  173SAPS  H13Y19729   4.991   3.897  12.214
  173SAPS  C31419730   4.844   3.750  12.150
  173SAPS  H14X19731   4.791   3.727  12.056
  173SAPS  H14Y19732   4.770   3.793  12.222
  173SAPS  C31519733   4.908   3.625  12.206
  173SAPS  H15X19734   4.966   3.574  12.126
  173SAPS  H15Y19735   4.828   3.557  12.241
  173SAPS  C31619736   5.011   3.654  12.312
  173SAPS  H16X19737   5.101   3.709  12.278
  173SAPS  H16Y19738   5.034   3.558  12.362
  173SAPS  C31719739   4.963   3.732  12.426
  173SAPS  H17X19740   4.880   3.658  12.441
  173SAPS  H17Y19741   4.921   3.832  12.402
  173SAPS  C31819742   5.067   3.735  12.536
  173SAPS  H18X19743   5.057   3.807  12.611
  173SAPS  H18Y19744   5.157   3.793  12.525
  173SAPS  H18Z19745   5.044   3.669  12.619
  174SAPS     N19746   1.705   3.112  10.592
  174SAPS   HN119747   1.784   3.180  10.593
  174SAPS   HN219748   1.726   3.024  10.542
  174SAPS   HN319749   1.626   3.163  10.548
  174SAPS   C1219750   1.672   3.079  10.734
  174SAPS  H12A19751   1.737   2.999  10.768
  174SAPS   C1319752   1.695   3.199  10.829
  174SAPS  O13A19753   1.744   3.303  10.778
  174SAPS  O13B19754   1.707   3.170  10.951
  174SAPS   C1119755   1.525   3.031  10.747
  174SAPS  H11A19756   1.456   3.113  10.722
  174SAPS  H11B19757   1.507   3.012  10.856
  174SAPS     P19758   1.524   2.774  10.694
  174SAPS   O1319759   1.394   2.706  10.722
  174SAPS   O1419760   1.619   2.707  10.603
  174SAPS   O1219761   1.497   2.922  10.657
  174SAPS   O1119762   1.601   2.810  10.826
  174SAPS    C119763   1.619   2.709  10.915
  174SAPS    HA19764   1.527   2.646  10.910
  174SAPS    HB19765   1.698   2.646  10.871
  174SAPS    C219766   1.643   2.756  11.064
  174SAPS    HS19767   1.624   2.692  11.148
  174SAPS   O2119768   1.566   2.873  11.090
  174SAPS   C2119769   1.432   2.865  11.085
  174SAPS   O2219770   1.367   2.780  11.027
  174SAPS   C2219771   1.382   2.999  11.152
  174SAPS   H2R19772   1.472   3.057  11.173
  174SAPS   H2S19773   1.346   3.044  11.057
  174SAPS    C319774   1.795   2.776  11.094
  174SAPS    HX19775   1.837   2.805  10.996
  174SAPS    HY19776   1.845   2.678  11.122
  174SAPS   O3119777   1.818   2.879  11.193
  174SAPS   C3119778   1.805   2.847  11.321
  174SAPS   O3219779   1.801   2.736  11.368
  174SAPS   C3219780   1.801   2.971  11.411
  174SAPS   H2X19781   1.727   3.042  11.369
  174SAPS   H2Y19782   1.902   3.016  11.402
  174SAPS   C2319783   1.275   3.038  11.271
  174SAPS   H3R19784   1.168   3.075  11.235
  174SAPS   H3S19785   1.293   3.122  11.219
  174SAPS   C2419786   1.309   2.967  11.406
  174SAPS   H4R19787   1.419   2.975  11.403
  174SAPS   H4S19788   1.301   2.857  11.424
  174SAPS   C2519789   1.233   3.029  11.520
  174SAPS   H5R19790   1.130   2.999  11.538
  174SAPS   C2619791   1.243   3.142  11.580
  174SAPS   H6R19792   1.165   3.211  11.591
  174SAPS   C2719793   1.315   3.250  11.576
  174SAPS   H7R19794   1.423   3.193  11.562
  174SAPS   H7S19795   1.401   3.204  11.648
  174SAPS   C2819796   1.265   3.442  11.585
  174SAPS   H8R19797   1.224   3.478  11.494
  174SAPS   C2919798   1.365   3.556  11.676
  174SAPS   H9R19799   1.381   3.658  11.672
  174SAPS  C21019800   1.524   3.497  11.772
  174SAPS  H10R19801   1.630   3.492  11.724
  174SAPS  H10S19802   1.561   3.382  11.758
  174SAPS  C21119803   1.517   3.484  11.916
  174SAPS  H11R19804   1.463   3.577  11.919
  174SAPS  C21219805   1.517   3.403  12.023
  174SAPS  H12R19806   1.486   3.452  12.117
  174SAPS  C21319807   1.535   3.256  12.036
  174SAPS  H13R19808   1.555   3.236  12.142
  174SAPS  H13S19809   1.615   3.222  11.968
  174SAPS  C21419810   1.412   3.179  12.011
  174SAPS  H14R19811   1.358   3.186  11.921
  174SAPS  C21519812   1.359   3.075  12.055
  174SAPS  H15R19813   1.266   3.063  12.003
  174SAPS  C21619814   1.398   2.979  12.156
  174SAPS  H16R19815   1.480   3.031  12.204
  174SAPS  H16S19816   1.433   2.888  12.102
  174SAPS  C21719817   1.292   2.932  12.255
  174SAPS  H17R19818   1.213   2.870  12.206
  174SAPS  H17S19819   1.244   3.021  12.304
  174SAPS  C21819820   1.341   2.833  12.355
  174SAPS  H18R19821   1.345   2.732  12.312
  174SAPS  H18S19822   1.266   2.830  12.436
  174SAPS  C21919823   1.483   2.858  12.394
  174SAPS  H19R19824   1.555   2.895  12.318
  174SAPS  H19S19825   1.514   2.786  12.469
  174SAPS  C22019826   1.495   2.961  12.484
  174SAPS  H20R19827   1.581   3.027  12.479
  174SAPS  H20S19828   1.491   2.924  12.590
  174SAPS  H20T19829   1.402   3.016  12.450
  174SAPS   C3319830   1.768   2.939  11.560
  174SAPS   H3X19831   1.827   2.851  11.597
  174SAPS   H3Y19832   1.661   2.914  11.569
  174SAPS   C3419833   1.789   3.059  11.652
  174SAPS   H4X19834   1.723   3.142  11.620
  174SAPS   H4Y19835   1.890   3.090  11.627
  174SAPS   C3519836   1.773   3.040  11.804
  174SAPS   H5X19837   1.671   3.002  11.827
  174SAPS   H5Y19838   1.786   3.137  11.856
  174SAPS   C3619839   1.870   2.939  11.865
  174SAPS   H6X19840   1.976   2.957  11.833
  174SAPS   H6Y19841   1.840   2.839  11.828
  174SAPS   C3719842   1.853   2.934  12.017
  174SAPS   H7X19843   1.877   2.832  12.054
  174SAPS   H7Y19844   1.749   2.957  12.048
  174SAPS   C3819845   1.943   3.033  12.084
  174SAPS   H8X19846   1.897   3.135  12.085
  174SAPS   H8Y19847   2.039   3.042  12.028
  174SAPS   C3919848   1.979   2.987  12.225
  174SAPS   H9X19849   1.982   3.086  12.264
  174SAPS   H9Y19850   2.081   2.942  12.234
  174SAPS  C31019851   1.875   2.958  12.332
  174SAPS  H10X19852   1.889   2.850  12.348
  174SAPS  H10Y19853   1.776   2.982  12.286
  174SAPS  C31119854   1.890   3.032  12.469
  174SAPS  H11X19855   1.860   3.140  12.469
  174SAPS  H11Y19856   1.997   3.032  12.499
  174SAPS  C31219857   1.810   2.960  12.579
  174SAPS  H12X19858   1.758   2.873  12.533
  174SAPS  H12Y19859   1.734   3.028  12.621
  174SAPS  C31319860   1.899   2.909  12.693
  174SAPS  H13X19861   1.994   2.875  12.649
  174SAPS  H13Y19862   1.853   2.821  12.745
  174SAPS  C31419863   1.935   3.021  12.789
  174SAPS  H14X19864   1.902   3.120  12.748
  174SAPS  H14Y19865   2.044   3.024  12.803
  174SAPS  C31519866   1.882   3.002  12.927
  174SAPS  H15X19867   1.897   3.092  12.992
  174SAPS  H15Y19868   1.916   2.913  12.981
  174SAPS  C31619869   1.738   2.994  12.919
  174SAPS  H16X19870   1.736   2.973  13.030
  174SAPS  H16Y19871   1.676   2.920  12.867
  174SAPS  C31719872   1.693   3.126  12.870
  174SAPS  H17X19873   1.723   3.171  12.777
  174SAPS  H17Y19874   1.734   3.202  12.940
  174SAPS  C31819875   1.552   3.121  12.829
  174SAPS  H18X19876   1.467   3.133  12.893
  174SAPS  H18Y19877   1.492   3.030  12.842
  174SAPS  H18Z19878   1.521   3.219  12.796
  175SAPS     N19879   5.310   1.946  10.544
  175SAPS   HN119880   5.213   1.964  10.577
  175SAPS   HN219881   5.345   2.014  10.472
  175SAPS   HN319882   5.319   1.851  10.503
  175SAPS   C1219883   5.408   1.963  10.658
  175SAPS  H12A19884   5.382   1.893  10.736
  175SAPS   C1319885   5.553   1.936  10.608
  175SAPS  O13A19886   5.565   1.908  10.485
  175SAPS  O13B19887   5.651   1.940  10.684
  175SAPS   C1119888   5.391   2.110  10.706
  175SAPS  H11A19889   5.284   2.129  10.730
  175SAPS  H11B19890   5.419   2.176  10.622
  175SAPS     P19891   5.476   2.270  10.901
  175SAPS   O1319892   5.571   2.258  11.012
  175SAPS   O1419893   5.488   2.389  10.814
  175SAPS   O1219894   5.475   2.135  10.818
  175SAPS   O1119895   5.332   2.269  10.964
  175SAPS    C119896   5.300   2.193  11.081
  175SAPS    HA19897   5.203   2.145  11.060
  175SAPS    HB19898   5.373   2.110  11.101
  175SAPS    C219899   5.281   2.283  11.207
  175SAPS    HS19900   5.204   2.358  11.177
  175SAPS   O2119901   5.406   2.346  11.239
  175SAPS   C2119902   5.401   2.440  11.331
  175SAPS   O2219903   5.301   2.478  11.390
  175SAPS   C2219904   5.538   2.494  11.354
  175SAPS   H2R19905   5.615   2.440  11.296
  175SAPS   H2S19906   5.541   2.601  11.327
  175SAPS    C319907   5.227   2.205  11.331
  175SAPS    HX19908   5.126   2.167  11.302
  175SAPS    HY19909   5.205   2.269  11.419
  175SAPS   O3119910   5.315   2.094  11.364
  175SAPS   C3119911   5.417   2.101  11.447
  175SAPS   O3219912   5.450   2.199  11.510
  175SAPS   C3219913   5.482   1.961  11.462
  175SAPS   H2X19914   5.470   1.904  11.367
  175SAPS   H2Y19915   5.429   1.906  11.543
  175SAPS   C2319916   5.554   2.476  11.504
  175SAPS   H3R19917   5.576   2.375  11.541
  175SAPS   H3S19918   5.479   2.531  11.565
  175SAPS   C2419919   5.664   2.548  11.560
  175SAPS   H4R19920   5.664   2.542  11.661
  175SAPS   H4S19921   5.679   2.643  11.501
  175SAPS   C2519922   5.794   2.494  11.529
  175SAPS   H5R19923   5.781   2.516  11.427
  175SAPS   C2619924   5.892   2.422  11.601
  175SAPS   H6R19925   5.992   2.389  11.559
  175SAPS   C2719926   5.892   2.334  11.711
  175SAPS   H7R19927   5.906   2.427  11.732
  175SAPS   H7S19928   5.995   2.304  11.752
  175SAPS   C2819929   5.768   2.267  11.742
  175SAPS   H8R19930   5.767   2.192  11.661
  175SAPS   C2919931   5.653   2.313  11.793
  175SAPS   H9R19932   5.580   2.235  11.806
  175SAPS  C21019933   5.609   2.434  11.873
  175SAPS  H10R19934   5.511   2.468  11.826
  175SAPS  H10S19935   5.657   2.528  11.846
  175SAPS  C21119936   5.596   2.410  12.019
  175SAPS  H11R19937   5.684   2.424  12.082
  175SAPS  C21219938   5.485   2.373  12.080
  175SAPS  H12R19939   5.486   2.361  12.190
  175SAPS  C21319940   5.357   2.354  12.007
  175SAPS  H13R19941   5.329   2.249  12.025
  175SAPS  H13S19942   5.365   2.366  11.897
  175SAPS  C21419943   5.262   2.455  12.061
  175SAPS  H14R19944   5.281   2.557  12.026
  175SAPS  C21519945   5.162   2.433  12.146
  175SAPS  H15R19946   5.111   2.521  12.183
  175SAPS  C21619947   5.118   2.304  12.211
  175SAPS  H16R19948   5.170   2.216  12.166
  175SAPS  H16S19949   5.008   2.290  12.200
  175SAPS  C21719950   5.157   2.309  12.358
  175SAPS  H17R19951   5.267   2.318  12.360
  175SAPS  H17S19952   5.131   2.214  12.412
  175SAPS  C21819953   5.093   2.425  12.435
  175SAPS  H18R19954   4.985   2.415  12.424
  175SAPS  H18S19955   5.119   2.526  12.398
  175SAPS  C21919956   5.139   2.422  12.577
  175SAPS  H19R19957   5.162   2.315  12.599
  175SAPS  H19S19958   5.059   2.453  12.650
  175SAPS  C22019959   5.259   2.515  12.593
  175SAPS  H20R19960   5.316   2.526  12.500
  175SAPS  H20S19961   5.343   2.479  12.653
  175SAPS  H20T19962   5.226   2.609  12.640
  175SAPS   C3319963   5.630   1.970  11.503
  175SAPS   H3X19964   5.642   2.049  11.580
  175SAPS   H3Y19965   5.684   2.002  11.412
  175SAPS   C3419966   5.700   1.842  11.551
  175SAPS   H4X19967   5.810   1.856  11.544
  175SAPS   H4Y19968   5.666   1.752  11.495
  175SAPS   C3519969   5.681   1.809  11.695
  175SAPS   H5X19970   5.727   1.712  11.726
  175SAPS   H5Y19971   5.571   1.799  11.697
  175SAPS   C3619972   5.724   1.920  11.793
  175SAPS   H6X19973   5.635   1.988  11.805
  175SAPS   H6Y19974   5.812   1.974  11.756
  175SAPS   C3719975   5.782   1.876  11.928
  175SAPS   H7X19976   5.855   1.796  11.939
  175SAPS   H7Y19977   5.731   1.791  11.960
  175SAPS   C3819978   5.772   1.985  12.037
  175SAPS   H8X19979   5.675   2.043  12.026
  175SAPS   H8Y19980   5.858   2.049  12.019
  175SAPS   C3919981   5.786   1.930  12.180
  175SAPS   H9X19982   5.826   1.829  12.191
  175SAPS   H9Y19983   5.693   1.922  12.234
  175SAPS  C31019984   5.815   2.032  12.276
  175SAPS  H10X19985   5.915   2.070  12.246
  175SAPS  H10Y19986   5.823   1.975  12.372
  175SAPS  C31119987   5.695   2.136  12.282
  175SAPS  H11X19988   5.598   2.093  12.316
  175SAPS  H11Y19989   5.691   2.206  12.196
  175SAPS  C31219990   5.716   2.215  12.402
  175SAPS  H12X19991   5.819   2.211  12.371
  175SAPS  H12Y19992   5.706   2.140  12.478
  175SAPS  C31319993   5.658   2.348  12.453
  175SAPS  H13X19994   5.656   2.420  12.370
  175SAPS  H13Y19995   5.719   2.398  12.537
  175SAPS  C31419996   5.526   2.340  12.502
  175SAPS  H14X19997   5.478   2.299  12.410
  175SAPS  H14Y19998   5.498   2.445  12.521
  175SAPS  C31519999   5.530   2.254  12.624
  175SAPS  H15X20000   5.569   2.153  12.601
  175SAPS  H15Y20001   5.424   2.243  12.645
  175SAPS  C31620002   5.599   2.317  12.746
  175SAPS  H16X20003   5.555   2.417  12.760
  175SAPS  H16Y20004   5.709   2.331  12.731
  175SAPS  C31720005   5.567   2.241  12.874
  175SAPS  H17X20006   5.611   2.141  12.854
  175SAPS  H17Y20007   5.464   2.207  12.889
  175SAPS  C31820008   5.618   2.306  13.005
  175SAPS  H18X20009   5.593   2.395  13.058
  175SAPS  H18Y20010   5.716   2.358  12.990
  175SAPS  H18Z20011   5.618   2.221  13.075
  176SAPS     N20012   3.727   1.145  10.618
  176SAPS   HN120013   3.785   1.061  10.603
  176SAPS   HN220014   3.638   1.136  10.565
  176SAPS   HN320015   3.777   1.232  10.586
  176SAPS   C1220016   3.698   1.163  10.762
  176SAPS  H12A20017   3.785   1.132  10.819
  176SAPS   C1320018   3.670   1.308  10.798
  176SAPS  O13A20019   3.635   1.389  10.709
  176SAPS  O13B20020   3.680   1.334  10.921
  176SAPS   C1120021   3.574   1.083  10.805
  176SAPS  H11A20022   3.490   1.113  10.738
  176SAPS  H11B20023   3.542   1.109  10.909
  176SAPS     P20024   3.525   0.846  10.709
  176SAPS   O1320025   3.528   0.900  10.571
  176SAPS   O1420026   3.573   0.708  10.731
  176SAPS   O1220027   3.606   0.944  10.801
  176SAPS   O1120028   3.379   0.869  10.762
  176SAPS    C120029   3.263   0.804  10.713
  176SAPS    HA20030   3.207   0.876  10.651
  176SAPS    HB20031   3.286   0.723  10.642
  176SAPS    C220032   3.175   0.754  10.832
  176SAPS    HS20033   3.074   0.729  10.790
  176SAPS   O2120034   3.168   0.848  10.939
  176SAPS   C2120035   3.129   0.964  10.916
  176SAPS   O2220036   3.073   1.006  10.822
  176SAPS   C2220037   3.138   1.068  11.010
  176SAPS   H2R20038   3.244   1.079  11.034
  176SAPS   H2S20039   3.099   1.162  10.958
  176SAPS    C320040   3.229   0.628  10.900
  176SAPS    HX20041   3.244   0.547  10.833
  176SAPS    HY20042   3.163   0.587  10.976
  176SAPS   O3120043   3.353   0.656  10.953
  176SAPS   C3120044   3.363   0.647  11.079
  176SAPS   O3220045   3.293   0.603  11.164
  176SAPS   C3220046   3.495   0.669  11.114
  176SAPS   H2X20047   3.545   0.599  11.040
  176SAPS   H2Y20048   3.493   0.636  11.222
  176SAPS   C2320049   3.039   1.028  11.114
  176SAPS   H3R20050   2.946   0.972  11.084
  176SAPS   H3S20051   2.981   1.118  11.117
  176SAPS   C2420052   3.126   1.004  11.242
  176SAPS   H4R20053   3.229   1.033  11.242
  176SAPS   H4S20054   3.165   0.899  11.206
  176SAPS   C2520055   3.026   0.970  11.366
  176SAPS   H5R20056   2.931   0.942  11.371
  176SAPS   C2620057   3.041   1.004  11.505
  176SAPS   H6R20058   2.968   0.928  11.563
  176SAPS   C2720059   3.165   1.005  11.587
  176SAPS   H7R20060   3.238   0.995  11.488
  176SAPS   H7S20061   3.184   0.972  11.661
  176SAPS   C2820062   3.058   1.148  11.585
  176SAPS   H8R20063   3.096   1.216  11.579
  176SAPS   C2920064   3.015   1.220  11.711
  176SAPS   H9R20065   3.015   1.344  11.651
  176SAPS  C21020066   3.113   1.233  11.813
  176SAPS  H10R20067   3.093   1.324  11.870
  176SAPS  H10S20068   3.207   1.198  11.808
  176SAPS  C21120069   3.023   1.123  11.880
  176SAPS  H11R20070   2.917   1.110  11.843
  176SAPS  C21220071   3.085   1.034  11.949
  176SAPS  H12R20072   3.018   0.952  11.969
  176SAPS  C21320073   3.235   1.027  11.979
  176SAPS  H13R20074   3.246   1.064  12.082
  176SAPS  H13S20075   3.302   1.093  11.922
  176SAPS  C21420076   3.303   0.897  11.964
  176SAPS  H14R20077   3.330   0.879  11.860
  176SAPS  C21520078   3.330   0.801  12.053
  176SAPS  H15R20079   3.378   0.709  12.015
  176SAPS  C21620080   3.295   0.805  12.197
  176SAPS  H16R20081   3.276   0.909  12.228
  176SAPS  H16S20082   3.381   0.772  12.257
  176SAPS  C21720083   3.174   0.719  12.234
  176SAPS  H17R20084   3.205   0.614  12.247
  176SAPS  H17S20085   3.093   0.721  12.159
  176SAPS  C21820086   3.116   0.770  12.364
  176SAPS  H18R20087   3.193   0.792  12.441
  176SAPS  H18S20088   3.053   0.692  12.410
  176SAPS  C21920089   3.027   0.888  12.337
  176SAPS  H19R20090   2.952   0.871  12.257
  176SAPS  H19S20091   3.081   0.982  12.307
  176SAPS  C22020092   2.948   0.908  12.462
  176SAPS  H20R20093   2.886   0.826  12.500
  176SAPS  H20S20094   2.869   0.968  12.423
  176SAPS  H20T20095   3.007   0.956  12.543
  176SAPS   C3320096   3.570   0.791  11.087
  176SAPS   H3X20097   3.582   0.785  10.977
  176SAPS   H3Y20098   3.672   0.784  11.131
  176SAPS   C3420099   3.496   0.904  11.150
  176SAPS   H4X20100   3.400   0.909  11.094
  176SAPS   H4Y20101   3.561   0.990  11.128
  176SAPS   C3520102   3.467   0.892  11.301
  176SAPS   H5X20103   3.400   0.805  11.323
  176SAPS   H5Y20104   3.413   0.984  11.330
  176SAPS   C3620105   3.588   0.885  11.394
  176SAPS   H6X20106   3.680   0.929  11.352
  176SAPS   H6Y20107   3.607   0.781  11.395
  176SAPS   C3720108   3.564   0.927  11.539
  176SAPS   H7X20109   3.643   0.887  11.606
  176SAPS   H7Y20110   3.466   0.890  11.577
  176SAPS   C3820111   3.574   1.078  11.544
  176SAPS   H8X20112   3.497   1.120  11.475
  176SAPS   H8Y20113   3.673   1.111  11.505
  176SAPS   C3920114   3.567   1.132  11.684
  176SAPS   H9X20115   3.648   1.097  11.750
  176SAPS   H9Y20116   3.480   1.086  11.736
  176SAPS  C31020117   3.579   1.284  11.679
  176SAPS  H10X20118   3.495   1.342  11.645
  176SAPS  H10Y20119   3.626   1.330  11.591
  176SAPS  C31120120   3.596   1.335  11.819
  176SAPS  H11X20121   3.575   1.443  11.801
  176SAPS  H11Y20122   3.698   1.352  11.851
  176SAPS  C31220123   3.512   1.254  11.931
  176SAPS  H12X20124   3.524   1.149  11.947
  176SAPS  H12Y20125   3.403   1.248  11.936
  176SAPS  C31320126   3.489   1.333  12.053
  176SAPS  H13X20127   3.481   1.409  11.969
  176SAPS  H13Y20128   3.567   1.369  12.118
  176SAPS  C31420129   3.363   1.315  12.148
  176SAPS  H14X20130   3.264   1.301  12.097
  176SAPS  H14Y20131   3.345   1.403  12.216
  176SAPS  C31520132   3.383   1.221  12.256
  176SAPS  H15X20133   3.454   1.151  12.207
  176SAPS  H15Y20134   3.281   1.178  12.274
  176SAPS  C31620135   3.435   1.294  12.380
  176SAPS  H16X20136   3.361   1.369  12.416
  176SAPS  H16Y20137   3.530   1.349  12.357
  176SAPS  C31720138   3.459   1.190  12.486
  176SAPS  H17X20139   3.394   1.102  12.462
  176SAPS  H17Y20140   3.426   1.233  12.583
  176SAPS  C31820141   3.605   1.151  12.492
  176SAPS  H18X20142   3.641   1.103  12.399
  176SAPS  H18Y20143   3.619   1.083  12.578
  176SAPS  H18Z20144   3.667   1.242  12.508
  177SAPS     N20145   0.249   2.858  10.644
  177SAPS   HN120146   0.152   2.892  10.648
  177SAPS   HN220147   0.297   2.865  10.736
  177SAPS   HN320148   0.306   2.909  10.574
  177SAPS   C1220149   0.247   2.709  10.621
  177SAPS  H12A20150   0.198   2.690  10.528
  177SAPS   C1320151   0.387   2.646  10.616
  177SAPS  O13A20152   0.481   2.719  10.653
  177SAPS  O13B20153   0.398   2.521  10.599
  177SAPS   C1120154   0.170   2.641  10.738
  177SAPS  H11A20155   0.227   2.656  10.833
  177SAPS  H11B20156   0.168   2.531  10.717
  177SAPS     P20157  -0.058   2.673  10.871
  177SAPS   O1320158  -0.012   2.761  10.979
  177SAPS   O1420159  -0.196   2.687  10.821
  177SAPS   O1220160   0.037   2.693  10.747
  177SAPS   O1120161  -0.029   2.527  10.911
  177SAPS    C120162  -0.109   2.425  10.855
  177SAPS    HA20163  -0.212   2.419  10.901
  177SAPS    HB20164  -0.116   2.423  10.743
  177SAPS    C220165  -0.040   2.298  10.885
  177SAPS    HS20166  -0.092   2.220  10.835
  177SAPS   O2120167  -0.004   2.285  11.029
  177SAPS   C2120168  -0.088   2.269  11.138
  177SAPS   O2220169  -0.202   2.296  11.145
  177SAPS   C2220170  -0.035   2.198  11.260
  177SAPS   H2R20171   0.012   2.106  11.225
  177SAPS   H2S20172   0.031   2.274  11.301
  177SAPS    C320173   0.086   2.263  10.797
  177SAPS    HX20174   0.062   2.285  10.691
  177SAPS    HY20175   0.110   2.155  10.788
  177SAPS   O3120176   0.200   2.323  10.845
  177SAPS   C3120177   0.263   2.260  10.940
  177SAPS   O3220178   0.241   2.151  10.991
  177SAPS   C3220179   0.359   2.352  10.983
  177SAPS   H2X20180   0.390   2.425  10.904
  177SAPS   H2Y20181   0.449   2.299  11.022
  177SAPS   C2320182  -0.145   2.149  11.365
  177SAPS   H3R20183  -0.101   2.109  11.457
  177SAPS   H3S20184  -0.179   2.056  11.318
  177SAPS   C2420185  -0.256   2.243  11.422
  177SAPS   H4R20186  -0.318   2.200  11.503
  177SAPS   H4S20187  -0.344   2.277  11.372
  177SAPS   C2520188  -0.194   2.371  11.433
  177SAPS   H5R20189  -0.175   2.426  11.339
  177SAPS   C2620190  -0.214   2.438  11.540
  177SAPS   H6R20191  -0.175   2.534  11.527
  177SAPS   C2720192  -0.294   2.409  11.663
  177SAPS   H7R20193  -0.404   2.411  11.646
  177SAPS   H7S20194  -0.278   2.481  11.740
  177SAPS   C2820195  -0.251   2.293  11.732
  177SAPS   H8R20196  -0.312   2.216  11.688
  177SAPS   C2920197  -0.152   2.275  11.821
  177SAPS   H9R20198  -0.134   2.174  11.859
  177SAPS  C21020199  -0.058   2.380  11.870
  177SAPS  H10R20200  -0.041   2.370  11.979
  177SAPS  H10S20201  -0.102   2.479  11.861
  177SAPS  C21120202   0.066   2.378  11.784
  177SAPS  H11R20203   0.053   2.405  11.679
  177SAPS  C21220204   0.184   2.332  11.821
  177SAPS  H12R20205   0.270   2.334  11.753
  177SAPS  C21320206   0.204   2.274  11.955
  177SAPS  H13R20207   0.177   2.338  12.041
  177SAPS  H13S20208   0.306   2.271  11.966
  177SAPS  C21420209   0.143   2.140  11.954
  177SAPS  H14R20210   0.169   2.071  11.871
  177SAPS  C21520211   0.083   2.092  12.059
  177SAPS  H15R20212   0.068   1.982  12.049
  177SAPS  C21620213   0.070   2.164  12.196
  177SAPS  H16R20214   0.148   2.240  12.218
  177SAPS  H16S20215   0.113   2.124  12.290
  177SAPS  C21720216  -0.060   2.127  12.261
  177SAPS  H17R20217  -0.077   2.016  12.255
  177SAPS  H17S20218  -0.125   2.179  12.190
  177SAPS  C21820219  -0.070   2.176  12.407
  177SAPS  H18R20220  -0.024   2.274  12.419
  177SAPS  H18S20221  -0.024   2.119  12.487
  177SAPS  C21920222  -0.203   2.157  12.468
  177SAPS  H19R20223  -0.281   2.202  12.403
  177SAPS  H19S20224  -0.205   2.185  12.575
  177SAPS  C22020225  -0.241   2.018  12.477
  177SAPS  H20R20226  -0.269   2.003  12.372
  177SAPS  H20S20227  -0.339   2.012  12.526
  177SAPS  H20T20228  -0.171   1.939  12.518
  177SAPS   C3320229   0.271   2.422  11.084
  177SAPS   H3X20230   0.230   2.371  11.174
  177SAPS   H3Y20231   0.199   2.498  11.041
  177SAPS   C3420232   0.369   2.501  11.141
  177SAPS   H4X20233   0.361   2.599  11.087
  177SAPS   H4Y20234   0.473   2.467  11.111
  177SAPS   C3520235   0.363   2.500  11.292
  177SAPS   H5X20236   0.473   2.501  11.302
  177SAPS   H5Y20237   0.373   2.414  11.359
  177SAPS   C3620238   0.263   2.609  11.348
  177SAPS   H6X20239   0.162   2.587  11.313
  177SAPS   H6Y20240   0.279   2.713  11.308
  177SAPS   C3720241   0.270   2.625  11.503
  177SAPS   H7X20242   0.365   2.660  11.552
  177SAPS   H7Y20243   0.249   2.532  11.555
  177SAPS   C3820244   0.183   2.736  11.545
  177SAPS   H8X20245   0.089   2.736  11.486
  177SAPS   H8Y20246   0.238   2.826  11.511
  177SAPS   C3920247   0.167   2.722  11.697
  177SAPS   H9X20248   0.262   2.746  11.746
  177SAPS   H9Y20249   0.144   2.619  11.724
  177SAPS  C31020250   0.047   2.798  11.742
  177SAPS  H10X20251  -0.001   2.754  11.660
  177SAPS  H10Y20252   0.022   2.895  11.700
  177SAPS  C31120253   0.007   2.846  11.887
  177SAPS  H11X20254  -0.038   2.948  11.869
  177SAPS  H11Y20255   0.085   2.866  11.959
  177SAPS  C31220256  -0.032   2.762  11.999
  177SAPS  H12X20257   0.008   2.663  11.984
  177SAPS  H12Y20258  -0.107   2.779  11.926
  177SAPS  C31320259  -0.051   2.822  12.145
  177SAPS  H13X20260  -0.089   2.926  12.131
  177SAPS  H13Y20261   0.045   2.850  12.188
  177SAPS  C31420262  -0.135   2.738  12.255
  177SAPS  H14X20263  -0.241   2.707  12.247
  177SAPS  H14Y20264  -0.174   2.795  12.340
  177SAPS  C31520265  -0.117   2.587  12.239
  177SAPS  H15X20266  -0.018   2.578  12.284
  177SAPS  H15Y20267  -0.109   2.554  12.133
  177SAPS  C31620268  -0.233   2.500  12.294
  177SAPS  H16X20269  -0.200   2.394  12.285
  177SAPS  H16Y20270  -0.332   2.503  12.243
  177SAPS  C31720271  -0.281   2.538  12.432
  177SAPS  H17X20272  -0.211   2.609  12.483
  177SAPS  H17Y20273  -0.281   2.439  12.477
  177SAPS  C31820274  -0.422   2.591  12.448
  177SAPS  H18X20275  -0.404   2.697  12.466
  177SAPS  H18Y20276  -0.467   2.582  12.547
  177SAPS  H18Z20277  -0.492   2.574  12.362
  178SAPS     N20278   4.538   0.042  10.524
  178SAPS   HN120279   4.439   0.009  10.537
  178SAPS   HN220280   4.540   0.070  10.423
  178SAPS   HN320281   4.596  -0.044  10.539
  178SAPS   C1220282   4.564   0.154  10.619
  178SAPS  H12A20283   4.668   0.179  10.608
  178SAPS   C1320284   4.476   0.273  10.583
  178SAPS  O13A20285   4.386   0.262  10.496
  178SAPS  O13B20286   4.504   0.379  10.645
  178SAPS   C1120287   4.535   0.130  10.774
  178SAPS  H11A20288   4.424   0.139  10.791
  178SAPS  H11B20289   4.573   0.215  10.833
  178SAPS     P20290   4.680  -0.016  10.944
  178SAPS   O1320291   4.602   0.014  11.065
  178SAPS   O1420292   4.750  -0.145  10.930
  178SAPS   O1220293   4.579   0.000  10.822
  178SAPS   O1120294   4.770   0.099  10.886
  178SAPS    C120295   4.910   0.086  10.867
  178SAPS    HA20296   4.945  -0.019  10.867
  178SAPS    HB20297   4.938   0.132  10.769
  178SAPS    C220298   4.983   0.165  10.977
  178SAPS    HS20299   5.092   0.158  10.954
  178SAPS   O2120300   4.953   0.108  11.106
  178SAPS   C2120301   5.038   0.134  11.204
  178SAPS   O2220302   5.138   0.203  11.194
  178SAPS   C2220303   4.997   0.053  11.328
  178SAPS   H2R20304   4.910   0.098  11.378
  178SAPS   H2S20305   4.974  -0.050  11.296
  178SAPS    C320306   4.938   0.315  10.964
  178SAPS    HX20307   4.964   0.347  10.863
  178SAPS    HY20308   5.016   0.372  11.024
  178SAPS   O3120309   4.791   0.342  10.979
  178SAPS   C3120310   4.773   0.385  11.106
  178SAPS   O3220311   4.868   0.393  11.176
  178SAPS   C3220312   4.638   0.414  11.169
  178SAPS   H2X20313   4.568   0.444  11.090
  178SAPS   H2Y20314   4.641   0.496  11.246
  178SAPS   C2320315   5.108   0.045  11.433
  178SAPS   H3R20316   5.133   0.144  11.474
  178SAPS   H3S20317   5.196   0.010  11.376
  178SAPS   C2420318   5.060  -0.042  11.551
  178SAPS   H4R20319   5.140  -0.092  11.608
  178SAPS   H4S20320   5.012  -0.130  11.506
  178SAPS   C2520321   4.964   0.039  11.639
  178SAPS   H5R20322   4.869   0.062  11.595
  178SAPS   C2620323   4.984   0.111  11.749
  178SAPS   H6R20324   4.914   0.165  11.811
  178SAPS   C2720325   5.105   0.130  11.811
  178SAPS   H7R20326   5.151   0.187  11.736
  178SAPS   H7S20327   5.155   0.038  11.788
  178SAPS   C2820328   5.125   0.190  11.949
  178SAPS   H8R20329   5.189   0.116  11.975
  178SAPS   C2920330   5.180   0.309  11.985
  178SAPS   H9R20331   5.230   0.317  12.084
  178SAPS  C21020332   5.228   0.404  11.876
  178SAPS  H10R20333   5.185   0.381  11.778
  178SAPS  H10S20334   5.338   0.424  11.865
  178SAPS  C21120335   5.164   0.527  11.920
  178SAPS  H11R20336   5.216   0.619  11.901
  178SAPS  C21220337   5.040   0.553  11.940
  178SAPS  H12R20338   5.020   0.652  11.983
  178SAPS  C21320339   4.935   0.455  11.913
  178SAPS  H13R20340   4.955   0.353  11.933
  178SAPS  H13S20341   4.951   0.450  11.807
  178SAPS  C21420342   4.799   0.490  11.957
  178SAPS  H14R20343   4.739   0.536  11.878
  178SAPS  C21520344   4.728   0.453  12.058
  178SAPS  H15R20345   4.638   0.512  12.079
  178SAPS  C21620346   4.782   0.356  12.152
  178SAPS  H16R20347   4.810   0.270  12.088
  178SAPS  H16S20348   4.698   0.328  12.217
  178SAPS  C21720349   4.902   0.390  12.240
  178SAPS  H17R20350   4.883   0.484  12.293
  178SAPS  H17S20351   4.994   0.405  12.180
  178SAPS  C21820352   4.917   0.275  12.339
  178SAPS  H18R20353   4.914   0.178  12.283
  178SAPS  H18S20354   4.835   0.276  12.414
  178SAPS  C21920355   5.042   0.277  12.421
  178SAPS  H19R20356   5.057   0.378  12.460
  178SAPS  H19S20357   5.124   0.265  12.347
  178SAPS  C22020358   5.037   0.170  12.532
  178SAPS  H20R20359   5.044   0.073  12.479
  178SAPS  H20S20360   4.953   0.171  12.599
  178SAPS  H20T20361   5.116   0.172  12.609
  178SAPS   C3320362   4.606   0.287  11.249
  178SAPS   H3X20363   4.651   0.200  11.196
  178SAPS   H3Y20364   4.497   0.270  11.252
  178SAPS   C3420365   4.659   0.278  11.395
  178SAPS   H4X20366   4.769   0.292  11.394
  178SAPS   H4Y20367   4.639   0.172  11.424
  178SAPS   C3520368   4.590   0.370  11.498
  178SAPS   H5X20369   4.480   0.358  11.495
  178SAPS   H5Y20370   4.603   0.476  11.473
  178SAPS   C3620371   4.632   0.346  11.645
  178SAPS   H6X20372   4.605   0.437  11.703
  178SAPS   H6Y20373   4.742   0.332  11.655
  178SAPS   C3720374   4.564   0.224  11.706
  178SAPS   H7X20375   4.617   0.132  11.671
  178SAPS   H7Y20376   4.460   0.219  11.669
  178SAPS   C3820377   4.564   0.230  11.859
  178SAPS   H8X20378   4.534   0.331  11.895
  178SAPS   H8Y20379   4.669   0.211  11.891
  178SAPS   C3920380   4.473   0.129  11.926
  178SAPS   H9X20381   4.366   0.131  11.892
  178SAPS   H9Y20382   4.475   0.126  12.036
  178SAPS  C31020383   4.521  -0.005  11.887
  178SAPS  H10X20384   4.487  -0.005  11.781
  178SAPS  H10Y20385   4.450  -0.063  11.947
  178SAPS  C31120386   4.670  -0.051  11.913
  178SAPS  H11X20387   4.704   0.013  11.996
  178SAPS  H11Y20388   4.734  -0.035  11.823
  178SAPS  C31220389   4.704  -0.199  11.955
  178SAPS  H12X20390   4.678  -0.275  11.879
  178SAPS  H12Y20391   4.651  -0.224  12.050
  178SAPS  C31320392   4.846  -0.243  11.959
  178SAPS  H13X20393   4.887  -0.256  11.856
  178SAPS  H13Y20394   4.843  -0.345  12.006
  178SAPS  C31420395   4.926  -0.148  12.039
  178SAPS  H14X20396   4.937  -0.048  11.989
  178SAPS  H14Y20397   5.022  -0.202  12.039
  178SAPS  C31520398   4.877  -0.126  12.183
  178SAPS  H15X20399   4.777  -0.078  12.186
  178SAPS  H15Y20400   4.944  -0.050  12.226
  178SAPS  C31620401   4.874  -0.253  12.267
  178SAPS  H16X20402   4.976  -0.297  12.272
  178SAPS  H16Y20403   4.810  -0.328  12.215
  178SAPS  C31720404   4.814  -0.235  12.408
  178SAPS  H17X20405   4.818  -0.334  12.459
  178SAPS  H17Y20406   4.707  -0.206  12.398
  178SAPS  C31820407   4.877  -0.129  12.500
  178SAPS  H18X20408   4.842  -0.027  12.475
  178SAPS  H18Y20409   4.988  -0.132  12.494
  178SAPS  H18Z20410   4.846  -0.148  12.605
  179SAPS     N20411   0.826   1.003  10.508
  179SAPS   HN120412   0.761   0.989  10.427
  179SAPS   HN220413   0.904   1.063  10.472
  179SAPS   HN320414   0.860   0.913  10.546
  179SAPS   C1220415   0.757   1.072  10.621
  179SAPS  H12A20416   0.831   1.084  10.698
  179SAPS   C1320417   0.697   1.210  10.584
  179SAPS  O13A20418   0.709   1.245  10.463
  179SAPS  O13B20419   0.634   1.278  10.668
  179SAPS   C1120420   0.651   0.979  10.684
  179SAPS  H11A20421   0.687   0.874  10.683
  179SAPS  H11B20422   0.557   0.982  10.625
  179SAPS     P20423   0.687   0.959  10.944
  179SAPS   O1320424   0.702   1.058  11.052
  179SAPS   O1420425   0.611   0.835  10.970
  179SAPS   O1220426   0.624   1.024  10.816
  179SAPS   O1120427   0.830   0.920  10.885
  179SAPS    C120428   0.878   0.785  10.885
  179SAPS    HA20429   0.796   0.711  10.867
  179SAPS    HB20430   0.952   0.773  10.804
  179SAPS    C220431   0.950   0.746  11.014
  179SAPS    HS20432   0.999   0.649  11.003
  179SAPS   O2120433   0.842   0.726  11.097
  179SAPS   C2120434   0.877   0.704  11.212
  179SAPS   O2220435   0.981   0.648  11.250
  179SAPS   C2220436   0.751   0.729  11.288
  179SAPS   H2R20437   0.652   0.704  11.249
  179SAPS   H2S20438   0.778   0.635  11.324
  179SAPS    C320439   1.055   0.845  11.075
  179SAPS    HX20440   1.133   0.862  11.000
  179SAPS    HY20441   1.107   0.804  11.165
  179SAPS   O3120442   0.987   0.960  11.121
  179SAPS   C3120443   1.050   1.072  11.121
  179SAPS   O3220444   1.164   1.091  11.081
  179SAPS   C3220445   0.958   1.172  11.190
  179SAPS   H2X20446   0.876   1.119  11.242
  179SAPS   H2Y20447   0.915   1.238  11.113
  179SAPS   C2320448   0.759   0.819  11.408
  179SAPS   H3R20449   0.796   0.913  11.367
  179SAPS   H3S20450   0.851   0.789  11.455
  179SAPS   C2420451   0.632   0.827  11.496
  179SAPS   H4R20452   0.581   0.735  11.528
  179SAPS   H4S20453   0.557   0.876  11.429
  179SAPS   C2520454   0.653   0.906  11.622
  179SAPS   H5R20455   0.693   1.005  11.602
  179SAPS   C2620456   0.637   0.864  11.750
  179SAPS   H6R20457   0.649   0.936  11.831
  179SAPS   C2720458   0.595   0.730  11.801
  179SAPS   H7R20459   0.667   0.704  11.883
  179SAPS   H7S20460   0.607   0.666  11.711
  179SAPS   C2820461   0.466   0.665  11.820
  179SAPS   H8R20462   0.399   0.684  11.736
  179SAPS   C2920463   0.430   0.584  11.920
  179SAPS   H9R20464   0.328   0.545  11.917
  179SAPS  C21020465   0.514   0.542  12.038
  179SAPS  H10R20466   0.469   0.598  12.123
  179SAPS  H10S20467   0.619   0.578  12.037
  179SAPS  C21120468   0.523   0.392  12.055
  179SAPS  H11R20469   0.577   0.329  11.986
  179SAPS  C21220470   0.513   0.336  12.172
  179SAPS  H12R20471   0.484   0.231  12.189
  179SAPS  C21320472   0.492   0.415  12.288
  179SAPS  H13R20473   0.396   0.386  12.259
  179SAPS  H13S20474   0.469   0.522  12.296
  179SAPS  C21420475   0.535   0.362  12.415
  179SAPS  H14R20476   0.495   0.259  12.429
  179SAPS  C21520477   0.489   0.417  12.520
  179SAPS  H15R20478   0.514   0.335  12.586
  179SAPS  C21620479   0.390   0.531  12.572
  179SAPS  H16R20480   0.317   0.513  12.658
  179SAPS  H16S20481   0.303   0.564  12.511
  179SAPS  C21720482   0.461   0.630  12.648
  179SAPS  H17R20483   0.545   0.637  12.577
  179SAPS  H17S20484   0.486   0.599  12.752
  179SAPS  C21820485   0.391   0.756  12.665
  179SAPS  H18R20486   0.466   0.823  12.714
  179SAPS  H18S20487   0.304   0.748  12.733
  179SAPS  C21920488   0.353   0.799  12.529
  179SAPS  H19R20489   0.267   0.744  12.483
  179SAPS  H19S20490   0.436   0.798  12.454
  179SAPS  C22020491   0.312   0.934  12.542
  179SAPS  H20R20492   0.402   0.999  12.544
  179SAPS  H20S20493   0.242   0.965  12.623
  179SAPS  H20T20494   0.261   0.940  12.443
  179SAPS   C3320495   1.039   1.248  11.294
  179SAPS   H3X20496   1.106   1.306  11.232
  179SAPS   H3Y20497   1.092   1.182  11.366
  179SAPS   C3420498   0.963   1.351  11.372
  179SAPS   H4X20499   0.881   1.383  11.309
  179SAPS   H4Y20500   1.031   1.433  11.402
  179SAPS   C3520501   0.882   1.300  11.486
  179SAPS   H5X20502   0.953   1.272  11.565
  179SAPS   H5Y20503   0.825   1.214  11.446
  179SAPS   C3620504   0.784   1.408  11.527
  179SAPS   H6X20505   0.736   1.443  11.433
  179SAPS   H6Y20506   0.839   1.491  11.577
  179SAPS   C3720507   0.671   1.354  11.612
  179SAPS   H7X20508   0.617   1.287  11.541
  179SAPS   H7Y20509   0.601   1.435  11.642
  179SAPS   C3820510   0.717   1.270  11.731
  179SAPS   H8X20511   0.770   1.180  11.690
  179SAPS   H8Y20512   0.629   1.234  11.787
  179SAPS   C3920513   0.815   1.340  11.826
  179SAPS   H9X20514   0.769   1.428  11.876
  179SAPS   H9Y20515   0.899   1.377  11.762
  179SAPS  C31020516   0.874   1.246  11.931
  179SAPS  H10X20517   0.961   1.295  11.980
  179SAPS  H10Y20518   0.912   1.154  11.880
  179SAPS  C31120519   0.776   1.213  12.044
  179SAPS  H11X20520   0.685   1.159  12.009
  179SAPS  H11Y20521   0.745   1.306  12.096
  179SAPS  C31220522   0.834   1.122  12.149
  179SAPS  H12X20523   0.938   1.152  12.177
  179SAPS  H12Y20524   0.841   1.029  12.089
  179SAPS  C31320525   0.733   1.107  12.266
  179SAPS  H13X20526   0.657   1.031  12.237
  179SAPS  H13Y20527   0.688   1.202  12.299
  179SAPS  C31420528   0.796   1.056  12.391
  179SAPS  H14X20529   0.888   1.119  12.407
  179SAPS  H14Y20530   0.817   0.952  12.355
  179SAPS  C31520531   0.729   1.038  12.531
  179SAPS  H15X20532   0.628   1.001  12.510
  179SAPS  H15Y20533   0.733   1.135  12.584
  179SAPS  C31620534   0.788   0.937  12.636
  179SAPS  H16X20535   0.755   0.955  12.740
  179SAPS  H16Y20536   0.896   0.956  12.652
  179SAPS  C31720537   0.743   0.798  12.589
  179SAPS  H17X20538   0.803   0.774  12.498
  179SAPS  H17Y20539   0.643   0.793  12.552
  179SAPS  C31820540   0.739   0.685  12.689
  179SAPS  H18X20541   0.739   0.709  12.796
  179SAPS  H18Y20542   0.839   0.687  12.656
  179SAPS  H18Z20543   0.742   0.576  12.671
  180SAPS     N20544   6.553   0.188  10.788
  180SAPS   HN120545   6.581   0.162  10.885
  180SAPS   HN220546   6.549   0.290  10.774
  180SAPS   HN320547   6.466   0.139  10.760
  180SAPS   C1220548   6.662   0.136  10.705
  180SAPS  H12A20549   6.698   0.049  10.755
  180SAPS   C1320550   6.628   0.099  10.560
  180SAPS  O13A20551   6.507   0.098  10.525
  180SAPS  O13B20552   6.710   0.008  10.529
  180SAPS   C1120553   6.787   0.220  10.693
  180SAPS  H11A20554   6.755   0.314  10.650
  180SAPS  H11B20555   6.859   0.172  10.621
  180SAPS     P20556   6.930   0.141  10.895
  180SAPS   O1320557   6.832   0.068  10.979
  180SAPS   O1420558   7.020   0.069  10.802
  180SAPS   O1220559   6.846   0.249  10.817
  180SAPS   O1120560   7.019   0.231  10.988
  180SAPS    C120561   7.088   0.349  10.950
  180SAPS    HA20562   7.197   0.333  10.964
  180SAPS    HB20563   7.067   0.382  10.846
  180SAPS    C220564   7.051   0.469  11.039
  180SAPS    HS20565   7.120   0.553  11.016
  180SAPS   O2120566   7.065   0.426  11.175
  180SAPS   C2120567   7.031   0.515  11.263
  180SAPS   O2220568   7.005   0.632  11.240
  180SAPS   C2220569   7.041   0.448  11.401
  180SAPS   H2R20570   6.936   0.436  11.428
  180SAPS   H2S20571   7.103   0.357  11.400
  180SAPS    C320572   6.907   0.518  11.006
  180SAPS    HX20573   6.915   0.533  10.897
  180SAPS    HY20574   6.889   0.619  11.049
  180SAPS   O3120575   6.802   0.421  11.029
  180SAPS   C3120576   6.746   0.435  11.147
  180SAPS   O3220577   6.770   0.525  11.224
  180SAPS   C3220578   6.648   0.321  11.175
  180SAPS   H2X20579   6.635   0.267  11.079
  180SAPS   H2Y20580   6.550   0.363  11.207
  180SAPS   C2320581   7.091   0.524  11.520
  180SAPS   H3R20582   7.053   0.629  11.503
  180SAPS   H3S20583   7.201   0.523  11.524
  180SAPS   C2420584   7.088   0.467  11.656
  180SAPS   H4R20585   7.153   0.504  11.738
  180SAPS   H4S20586   7.143   0.374  11.661
  180SAPS   C2520587   6.951   0.507  11.692
  180SAPS   H5R20588   6.911   0.607  11.665
  180SAPS   C2620589   6.899   0.433  11.783
  180SAPS   H6R20590   6.795   0.450  11.809
  180SAPS   C2720591   6.979   0.320  11.840
  180SAPS   H7R20592   6.933   0.304  11.937
  180SAPS   H7S20593   7.085   0.347  11.863
  180SAPS   C2820594   6.977   0.194  11.756
  180SAPS   H8R20595   6.983   0.202  11.647
  180SAPS   C2920596   6.980   0.075  11.815
  180SAPS   H9R20597   6.970  -0.016  11.755
  180SAPS  C21020598   6.985   0.062  11.964
  180SAPS  H10R20599   6.884   0.074  12.008
  180SAPS  H10S20600   7.045   0.143  12.012
  180SAPS  C21120601   7.046  -0.072  11.988
  180SAPS  H11R20602   7.147  -0.087  11.950
  180SAPS  C21220603   7.000  -0.159  12.075
  180SAPS  H12R20604   7.067  -0.240  12.112
  180SAPS  C21320605   6.881  -0.122  12.157
  180SAPS  H13R20606   6.788  -0.113  12.096
  180SAPS  H13S20607   6.890  -0.028  12.217
  180SAPS  C21420608   6.871  -0.232  12.250
  180SAPS  H14R20609   6.794  -0.299  12.213
  180SAPS  C21520610   6.940  -0.259  12.363
  180SAPS  H15R20611   6.900  -0.328  12.438
  180SAPS  C21620612   7.047  -0.174  12.416
  180SAPS  H16R20613   7.053  -0.091  12.349
  180SAPS  H16S20614   7.141  -0.234  12.422
  180SAPS  C21720615   7.023  -0.103  12.543
  180SAPS  H17R20616   6.929  -0.044  12.551
  180SAPS  H17S20617   7.110  -0.035  12.561
  180SAPS  C21820618   7.027  -0.207  12.644
  180SAPS  H18R20619   7.075  -0.303  12.614
  180SAPS  H18S20620   6.923  -0.231  12.679
  180SAPS  C21920621   7.105  -0.151  12.753
  180SAPS  H19R20622   7.051  -0.053  12.770
  180SAPS  H19S20623   7.212  -0.121  12.753
  180SAPS  C22020624   7.097  -0.278  12.834
  180SAPS  H20R20625   6.990  -0.304  12.839
  180SAPS  H20S20626   7.170  -0.340  12.779
  180SAPS  H20T20627   7.133  -0.292  12.936
  180SAPS   C3320628   6.704   0.217  11.276
  180SAPS   H3X20629   6.816   0.212  11.267
  180SAPS   H3Y20630   6.665   0.118  11.243
  180SAPS   C3420631   6.671   0.239  11.425
  180SAPS   H4X20632   6.691   0.346  11.447
  180SAPS   H4Y20633   6.741   0.178  11.487
  180SAPS   C3520634   6.527   0.204  11.467
  180SAPS   H5X20635   6.498   0.103  11.428
  180SAPS   H5Y20636   6.461   0.278  11.416
  180SAPS   C3620637   6.494   0.211  11.619
  180SAPS   H6X20638   6.384   0.195  11.628
  180SAPS   H6Y20639   6.517   0.313  11.658
  180SAPS   C3720640   6.561   0.110  11.714
  180SAPS   H7X20641   6.668   0.136  11.726
  180SAPS   H7Y20642   6.555   0.009  11.666
  180SAPS   C3820643   6.486   0.096  11.851
  180SAPS   H8X20644   6.511  -0.002  11.898
  180SAPS   H8Y20645   6.378   0.090  11.824
  180SAPS   C3920646   6.497   0.207  11.959
  180SAPS   H9X20647   6.430   0.177  12.043
  180SAPS   H9Y20648   6.460   0.304  11.919
  180SAPS  C31020649   6.635   0.227  12.024
  180SAPS  H10X20650   6.707   0.268  11.950
  180SAPS  H10Y20651   6.673   0.128  12.058
  180SAPS  C31120652   6.640   0.319  12.148
  180SAPS  H11X20653   6.598   0.262  12.234
  180SAPS  H11Y20654   6.579   0.412  12.137
  180SAPS  C31220655   6.789   0.353  12.172
  180SAPS  H12X20656   6.820   0.439  12.110
  180SAPS  H12Y20657   6.847   0.260  12.156
  180SAPS  C31320658   6.821   0.396  12.309
  180SAPS  H13X20659   6.795   0.309  12.377
  180SAPS  H13Y20660   6.766   0.494  12.318
  180SAPS  C31420661   6.953   0.439  12.362
  180SAPS  H14X20662   6.951   0.468  12.470
  180SAPS  H14Y20663   6.983   0.527  12.303
  180SAPS  C31520664   7.039   0.321  12.346
  180SAPS  H15X20665   7.079   0.338  12.243
  180SAPS  H15Y20666   6.983   0.224  12.346
  180SAPS  C31620667   7.142   0.319  12.455
  180SAPS  H16X20668   7.190   0.419  12.458
  180SAPS  H16Y20669   7.216   0.241  12.429
  180SAPS  C31720670   7.096   0.274  12.591
  180SAPS  H17X20671   7.019   0.196  12.580
  180SAPS  H17Y20672   7.053   0.362  12.643
  180SAPS  C31820673   7.214   0.217  12.666
  180SAPS  H18X20674   7.184   0.175  12.764
  180SAPS  H18Y20675   7.290   0.297  12.681
  180SAPS  H18Z20676   7.267   0.136  12.610
  181POPC     N20677   5.596   2.692  14.786
  181POPC   C1220678   5.475   2.609  14.822
  181POPC  H12A20679   5.450   2.627  14.925
  181POPC  H12B20680   5.502   2.504  14.811
  181POPC   C1320681   5.670   2.623  14.674
  181POPC  H13A20682   5.668   2.516  14.690
  181POPC  H13B20683   5.614   2.635  14.581
  181POPC  H13C20684   5.771   2.657  14.660
  181POPC   C1420685   5.563   2.835  14.755
  181POPC  H14A20686   5.508   2.847  14.662
  181POPC  H14B20687   5.504   2.876  14.835
  181POPC  H14C20688   5.652   2.898  14.750
  181POPC   C1520689   5.684   2.700  14.906
  181POPC  H15A20690   5.772   2.758  14.884
  181POPC  H15B20691   5.712   2.602  14.941
  181POPC  H15C20692   5.629   2.750  14.986
  181POPC   C1120693   5.350   2.618  14.735
  181POPC  H11A20694   5.306   2.720  14.734
  181POPC  H11B20695   5.272   2.550  14.778
  181POPC     P20696   5.314   2.622  14.479
  181POPC   O1320697   5.385   2.570  14.360
  181POPC   O1420698   5.295   2.769  14.493
  181POPC   O1220699   5.390   2.572  14.607
  181POPC   O1120700   5.176   2.549  14.500
  181POPC    C120701   5.158   2.412  14.534
  181POPC    HA20702   5.104   2.403  14.631
  181POPC    HB20703   5.253   2.355  14.546
  181POPC    C220704   5.069   2.342  14.429
  181POPC    HS20705   5.069   2.239  14.459
  181POPC   O2120706   5.117   2.349  14.295
  181POPC   C2120707   5.225   2.284  14.276
  181POPC   O2220708   5.293   2.224  14.358
  181POPC   C2220709   5.241   2.269  14.128
  181POPC   H2R20710   5.165   2.325  14.069
  181POPC   H2S20711   5.244   2.163  14.095
  181POPC    C320712   4.924   2.394  14.425
  181POPC    HX20713   4.879   2.384  14.526
  181POPC    HY20714   4.863   2.330  14.357
  181POPC   O3120715   4.925   2.531  14.387
  181POPC   C3120716   4.924   2.554  14.257
  181POPC   O3220717   4.900   2.470  14.171
  181POPC   C3220718   4.950   2.701  14.231
  181POPC   H2X20719   4.980   2.751  14.324
  181POPC   H2Y20720   4.864   2.761  14.201
  181POPC   C2320721   5.374   2.325  14.107
  181POPC   H3R20722   5.443   2.270  14.177
  181POPC   H3S20723   5.385   2.434  14.127
  181POPC   C2420724   5.408   2.300  13.963
  181POPC   H4R20725   5.399   2.196  13.927
  181POPC   H4S20726   5.509   2.315  13.988
  181POPC   C2520727   5.378   2.406  13.858
  181POPC   H5R20728   5.272   2.430  13.870
  181POPC   H5S20729   5.377   2.359  13.757
  181POPC   C2620730   5.460   2.537  13.864
  181POPC   H6R20731   5.565   2.539  13.889
  181POPC   H6S20732   5.418   2.593  13.949
  181POPC   C2720733   5.459   2.620  13.736
  181POPC   H7R20734   5.355   2.634  13.705
  181POPC   H7S20735   5.508   2.563  13.655
  181POPC   C2820736   5.522   2.757  13.765
  181POPC   H8R20737   5.461   2.811  13.839
  181POPC   H8S20738   5.518   2.819  13.672
  181POPC   C2920739   5.658   2.754  13.823
  181POPC   H9120740   5.685   2.816  13.910
  181POPC  C21020741   5.755   2.714  13.748
  181POPC  H10120742   5.853   2.726  13.801
  181POPC  C21120743   5.743   2.665  13.600
  181POPC  H11R20744   5.673   2.584  13.586
  181POPC  H11S20745   5.830   2.610  13.567
  181POPC  C21220746   5.711   2.739  13.471
  181POPC  H12R20747   5.799   2.805  13.448
  181POPC  H12S20748   5.617   2.788  13.495
  181POPC  C21320749   5.695   2.656  13.346
  181POPC  H13R20750   5.661   2.552  13.359
  181POPC  H13S20751   5.791   2.634  13.311
  181POPC  C21420752   5.698   2.734  13.215
  181POPC  H14R20753   5.759   2.827  13.225
  181POPC  H14S20754   5.591   2.760  13.210
  181POPC  C21520755   5.758   2.655  13.096
  181POPC  H15R20756   5.742   2.546  13.110
  181POPC  H15S20757   5.865   2.670  13.071
  181POPC  C21620758   5.676   2.694  12.979
  181POPC  H16R20759   5.663   2.805  12.976
  181POPC  H16S20760   5.584   2.642  13.014
  181POPC  C21720761   5.711   2.640  12.842
  181POPC  H17R20762   5.619   2.593  12.801
  181POPC  H17S20763   5.783   2.557  12.842
  181POPC  C21820764   5.754   2.759  12.755
  181POPC  H18R20765   5.852   2.801  12.782
  181POPC  H18S20766   5.678   2.840  12.752
  181POPC  H18T20767   5.769   2.728  12.653
  181POPC   C3320768   5.051   2.708  14.118
  181POPC   H3X20769   5.102   2.611  14.098
  181POPC   H3Y20770   5.128   2.783  14.146
  181POPC   C3420771   4.987   2.743  13.985
  181POPC   H4X20772   5.076   2.753  13.918
  181POPC   H4Y20773   4.931   2.836  14.006
  181POPC   C3520774   4.888   2.646  13.924
  181POPC   H5X20775   4.799   2.658  13.988
  181POPC   H5Y20776   4.927   2.544  13.940
  181POPC   C3620777   4.851   2.666  13.776
  181POPC   H6X20778   4.832   2.773  13.753
  181POPC   H6Y20779   4.756   2.612  13.756
  181POPC   C3720780   4.960   2.611  13.682
  181POPC   H7X20781   4.993   2.510  13.714
  181POPC   H7Y20782   5.048   2.678  13.689
  181POPC   C3820783   4.913   2.604  13.536
  181POPC   H8X20784   4.846   2.691  13.518
  181POPC   H8Y20785   4.852   2.511  13.526
  181POPC   C3920786   5.031   2.598  13.436
  181POPC   H9X20787   5.091   2.691  13.447
  181POPC   H9Y20788   4.990   2.593  13.332
  181POPC  C31020789   5.124   2.478  13.461
  181POPC  H10X20790   5.071   2.385  13.431
  181POPC  H10Y20791   5.145   2.475  13.570
  181POPC  C31120792   5.262   2.475  13.393
  181POPC  H11X20793   5.313   2.383  13.430
  181POPC  H11Y20794   5.323   2.563  13.423
  181POPC  C31220795   5.256   2.470  13.241
  181POPC  H12X20796   5.223   2.570  13.204
  181POPC  H12Y20797   5.183   2.393  13.210
  181POPC  C31320798   5.387   2.429  13.174
  181POPC  H13X20799   5.401   2.321  13.198
  181POPC  H13Y20800   5.474   2.485  13.214
  181POPC  C31420801   5.368   2.446  13.023
  181POPC  H14X20802   5.450   2.437  12.953
  181POPC  H14Y20803   5.355   2.551  12.996
  181POPC  C31520804   5.263   2.347  12.975
  181POPC  H15X20805   5.167   2.389  13.011
  181POPC  H15Y20806   5.281   2.241  13.003
  181POPC  C31620807   5.244   2.345  12.832
  181POPC  H16X20808   5.298   2.270  12.772
  181POPC  H16Y20809   5.277   2.448  12.815
  181POPC  H16Z20810   5.137   2.338  12.805
  182POPC     N20811   2.913   1.463  14.706
  182POPC   C1220812   3.060   1.433  14.689
  182POPC  H12A20813   3.120   1.499  14.751
  182POPC  H12B20814   3.082   1.455  14.586
  182POPC   C1320815   2.837   1.365  14.622
  182POPC  H13A20816   2.887   1.354  14.525
  182POPC  H13B20817   2.844   1.266  14.666
  182POPC  H13C20818   2.735   1.396  14.609
  182POPC   C1420819   2.882   1.453  14.850
  182POPC  H14A20820   2.924   1.362  14.891
  182POPC  H14B20821   2.925   1.539  14.901
  182POPC  H14C20822   2.776   1.458  14.870
  182POPC   C1520823   2.875   1.601  14.663
  182POPC  H15A20824   2.942   1.676  14.703
  182POPC  H15B20825   2.774   1.626  14.696
  182POPC  H15C20826   2.875   1.609  14.555
  182POPC   C1120827   3.120   1.294  14.703
  182POPC  H11A20828   3.098   1.249  14.801
  182POPC  H11B20829   3.231   1.310  14.696
  182POPC     P20830   3.114   1.064  14.593
  182POPC   O1320831   2.998   0.979  14.567
  182POPC   O1420832   3.203   1.030  14.707
  182POPC   O1220833   3.074   1.217  14.593
  182POPC   O1120834   3.203   1.067  14.465
  182POPC    C120835   3.341   1.076  14.487
  182POPC    HA20836   3.378   0.974  14.513
  182POPC    HB20837   3.375   1.148  14.565
  182POPC    C220838   3.402   1.111  14.355
  182POPC    HS20839   3.508   1.124  14.386
  182POPC   O2120840   3.371   1.232  14.290
  182POPC   C2120841   3.457   1.266  14.194
  182POPC   O2220842   3.562   1.213  14.165
  182POPC   C2220843   3.398   1.389  14.136
  182POPC   H2R20844   3.378   1.459  14.219
  182POPC   H2S20845   3.304   1.363  14.085
  182POPC    C320846   3.359   0.986  14.269
  182POPC    HX20847   3.381   0.888  14.318
  182POPC    HY20848   3.429   1.004  14.197
  182POPC   O3120849   3.240   0.981  14.192
  182POPC   C3120850   3.253   0.952  14.061
  182POPC   O3220851   3.356   0.946  13.997
  182POPC   C3220852   3.116   0.917  14.013
  182POPC   H2X20853   3.047   0.992  14.056
  182POPC   H2Y20854   3.092   0.817  14.054
  182POPC   C2320855   3.497   1.453  14.045
  182POPC   H3R20856   3.594   1.448  14.098
  182POPC   H3S20857   3.459   1.559  14.039
  182POPC   C2420858   3.519   1.390  13.908
  182POPC   H4R20859   3.603   1.319  13.903
  182POPC   H4S20860   3.558   1.465  13.839
  182POPC   C2520861   3.391   1.339  13.844
  182POPC   H5R20862   3.314   1.423  13.853
  182POPC   H5S20863   3.358   1.247  13.891
  182POPC   C2620864   3.417   1.300  13.700
  182POPC   H6R20865   3.518   1.282  13.659
  182POPC   H6S20866   3.436   1.402  13.697
  182POPC   C2720867   3.299   1.238  13.616
  182POPC   H7R20868   3.265   1.160  13.686
  182POPC   H7S20869   3.349   1.201  13.525
  182POPC   C2820870   3.164   1.302  13.564
  182POPC   H8R20871   3.138   1.375  13.645
  182POPC   H8S20872   3.074   1.242  13.559
  182POPC   C2920873   3.163   1.352  13.421
  182POPC   H9120874   3.252   1.381  13.357
  182POPC  C21020875   3.067   1.413  13.374
  182POPC  H10120876   3.122   1.503  13.361
  182POPC  C21120877   2.935   1.451  13.414
  182POPC  H11R20878   2.897   1.552  13.429
  182POPC  H11S20879   2.915   1.417  13.512
  182POPC  C21220880   2.880   1.373  13.299
  182POPC  H12R20881   2.779   1.354  13.325
  182POPC  H12S20882   2.922   1.271  13.285
  182POPC  C21320883   2.881   1.448  13.168
  182POPC  H13R20884   2.978   1.406  13.163
  182POPC  H13S20885   2.886   1.559  13.171
  182POPC  C21420886   2.802   1.394  13.052
  182POPC  H14R20887   2.822   1.431  12.954
  182POPC  H14S20888   2.699   1.426  13.064
  182POPC  C21520889   2.830   1.248  13.036
  182POPC  H15R20890   2.794   1.205  13.131
  182POPC  H15S20891   2.940   1.228  13.026
  182POPC  C21620892   2.756   1.197  12.914
  182POPC  H16R20893   2.804   1.244  12.826
  182POPC  H16S20894   2.655   1.242  12.913
  182POPC  C21720895   2.756   1.044  12.905
  182POPC  H17R20896   2.738   1.005  13.007
  182POPC  H17S20897   2.859   1.010  12.878
  182POPC  C21820898   2.651   0.981  12.813
  182POPC  H18R20899   2.663   0.870  12.813
  182POPC  H18S20900   2.652   1.016  12.708
  182POPC  H18T20901   2.551   1.005  12.855
  182POPC   C3320902   3.109   0.916  13.860
  182POPC   H3X20903   3.204   0.880  13.815
  182POPC   H3Y20904   3.093   1.020  13.825
  182POPC   C3420905   2.998   0.823  13.810
  182POPC   H4X20906   2.901   0.847  13.859
  182POPC   H4Y20907   3.017   0.718  13.840
  182POPC   C3520908   2.984   0.826  13.657
  182POPC   H5X20909   2.902   0.757  13.631
  182POPC   H5Y20910   3.076   0.788  13.611
  182POPC   C3620911   2.949   0.965  13.600
  182POPC   H6X20912   3.027   1.041  13.621
  182POPC   H6Y20913   2.853   0.996  13.645
  182POPC   C3720914   2.923   0.966  13.449
  182POPC   H7X20915   2.872   1.058  13.419
  182POPC   H7Y20916   2.859   0.878  13.426
  182POPC   C3820917   3.052   0.962  13.369
  182POPC   H8X20918   3.056   0.853  13.373
  182POPC   H8Y20919   3.139   1.007  13.423
  182POPC   C3920920   3.037   1.004  13.222
  182POPC   H9X20921   2.974   1.093  13.219
  182POPC   H9Y20922   2.985   0.920  13.171
  182POPC  C31020923   3.165   1.027  13.139
  182POPC  H10X20924   3.147   1.022  13.029
  182POPC  H10Y20925   3.211   0.934  13.160
  182POPC  C31120926   3.260   1.146  13.168
  182POPC  H11X20927   3.319   1.146  13.263
  182POPC  H11Y20928   3.193   1.229  13.188
  182POPC  C31220929   3.363   1.170  13.056
  182POPC  H12X20930   3.305   1.184  12.962
  182POPC  H12Y20931   3.431   1.085  13.040
  182POPC  C31320932   3.465   1.282  13.083
  182POPC  H13X20933   3.534   1.294  12.997
  182POPC  H13Y20934   3.519   1.263  13.177
  182POPC  C31420935   3.402   1.415  13.098
  182POPC  H14X20936   3.456   1.494  13.154
  182POPC  H14Y20937   3.323   1.384  13.168
  182POPC  C31520938   3.351   1.466  12.964
  182POPC  H15X20939   3.303   1.567  12.979
  182POPC  H15Y20940   3.290   1.390  12.911
  182POPC  C31620941   3.435   1.519  12.861
  182POPC  H16X20942   3.521   1.538  12.928
  182POPC  H16Y20943   3.380   1.607  12.817
  182POPC  H16Z20944   3.456   1.447  12.784
  183POPC     N20945   3.879   7.331  14.777
  183POPC   C1220946   3.959   7.310  14.653
  183POPC  H12A20947   4.042   7.244  14.678
  183POPC  H12B20948   4.002   7.407  14.628
  183POPC   C1320949   3.822   7.210  14.846
  183POPC  H13A20950   3.760   7.238  14.931
  183POPC  H13B20951   3.758   7.156  14.775
  183POPC  H13C20952   3.898   7.140  14.878
  183POPC   C1420953   3.979   7.390  14.863
  183POPC  H14A20954   4.058   7.325  14.899
  183POPC  H14B20955   4.017   7.487  14.833
  183POPC  H14C20956   3.915   7.398  14.948
  183POPC   C1520957   3.763   7.422  14.753
  183POPC  H15A20958   3.736   7.415  14.648
  183POPC  H15B20959   3.786   7.525  14.775
  183POPC  H15C20960   3.674   7.387  14.806
  183POPC   C1120961   3.886   7.260  14.531
  183POPC  H11A20962   3.964   7.242  14.453
  183POPC  H11B20963   3.818   7.339  14.492
  183POPC     P20964   3.858   7.002  14.531
  183POPC   O1320965   3.773   6.909  14.608
  183POPC   O1420966   4.004   7.001  14.554
  183POPC   O1220967   3.810   7.146  14.567
  183POPC   O1120968   3.821   7.004  14.375
  183POPC    C120969   3.934   7.000  14.291
  183POPC    HA20970   3.975   6.903  14.316
  183POPC    HB20971   4.010   7.079  14.318
  183POPC    C220972   3.912   7.028  14.139
  183POPC    HS20973   4.013   7.027  14.091
  183POPC   O2120974   3.836   7.142  14.121
  183POPC   C2120975   3.909   7.244  14.117
  183POPC   O2220976   4.031   7.248  14.122
  183POPC   C2220977   3.813   7.356  14.094
  183POPC   H2R20978   3.761   7.378  14.190
  183POPC   H2S20979   3.736   7.316  14.024
  183POPC    C320980   3.837   6.931  14.057
  183POPC    HX20981   3.752   6.903  14.123
  183POPC    HY20982   3.919   6.865  14.053
  183POPC   O3120983   3.815   6.955  13.916
  183POPC   C3120984   3.926   6.937  13.839
  183POPC   O3220985   4.031   6.889  13.867
  183POPC   C3220986   3.905   6.973  13.704
  183POPC   H2X20987   3.810   7.024  13.711
  183POPC   H2Y20988   3.903   6.882  13.642
  183POPC   C2320989   3.892   7.475  14.041
  183POPC   H3R20990   3.978   7.442  13.978
  183POPC   H3S20991   3.929   7.534  14.127
  183POPC   C2420992   3.813   7.570  13.955
  183POPC   H4R20993   3.877   7.654  13.921
  183POPC   H4S20994   3.723   7.609  14.009
  183POPC   C2520995   3.767   7.506  13.831
  183POPC   H5R20996   3.712   7.416  13.859
  183POPC   H5S20997   3.844   7.467  13.761
  183POPC   C2620998   3.682   7.605  13.764
  183POPC   H6R20999   3.708   7.702  13.720
  183POPC   H6S21000   3.583   7.623  13.823
  183POPC   C2721001   3.667   7.541  13.633
  183POPC   H7R21002   3.562   7.589  13.616
  183POPC   H7S21003   3.594   7.486  13.694
  183POPC   C2821004   3.760   7.416  13.498
  183POPC   H8R21005   3.805   7.336  13.550
  183POPC   H8S21006   3.827   7.494  13.520
  183POPC   C2921007   3.690   7.358  13.332
  183POPC   H9121008   3.582   7.380  13.296
  183POPC  C21021009   3.667   7.240  13.281
  183POPC  H10121010   3.555   7.205  13.284
  183POPC  C21121011   3.728   7.158  13.379
  183POPC  H11R21012   3.665   7.142  13.466
  183POPC  H11S21013   3.825   7.194  13.414
  183POPC  C21221014   3.782   7.053  13.288
  183POPC  H12R21015   3.693   7.014  13.240
  183POPC  H12S21016   3.843   6.983  13.350
  183POPC  C21321017   3.844   7.084  13.158
  183POPC  H13R21018   3.939   7.122  13.197
  183POPC  H13S21019   3.782   7.157  13.103
  183POPC  C21421020   3.858   6.964  13.067
  183POPC  H14R21021   3.941   6.995  12.999
  183POPC  H14S21022   3.772   6.944  13.002
  183POPC  C21521023   3.896   6.839  13.142
  183POPC  H15R21024   3.818   6.792  13.204
  183POPC  H15S21025   3.978   6.872  13.209
  183POPC  C21621026   3.941   6.735  13.047
  183POPC  H16R21027   3.992   6.654  13.103
  183POPC  H16S21028   4.012   6.787  12.980
  183POPC  C21721029   3.835   6.681  12.962
  183POPC  H17R21030   3.803   6.745  12.879
  183POPC  H17S21031   3.752   6.650  13.029
  183POPC  C21821032   3.891   6.569  12.890
  183POPC  H18R21033   3.979   6.559  12.829
  183POPC  H18S21034   3.837   6.481  12.877
  183POPC  H18T21035   3.877   6.486  12.945
  183POPC   C3321036   4.024   7.053  13.655
  183POPC   H3X21037   4.024   7.043  13.545
  183POPC   H3Y21038   4.122   7.014  13.692
  183POPC   C3421039   4.006   7.197  13.696
  183POPC   H4X21040   4.021   7.204  13.806
  183POPC   H4Y21041   3.902   7.229  13.675
  183POPC   C3521042   4.107   7.289  13.626
  183POPC   H5X21043   4.210   7.252  13.646
  183POPC   H5Y21044   4.096   7.388  13.676
  183POPC   C3621045   4.090   7.306  13.474
  183POPC   H6X21046   4.012   7.383  13.457
  183POPC   H6Y21047   4.054   7.213  13.423
  183POPC   C3721048   4.218   7.356  13.406
  183POPC   H7X21049   4.302   7.283  13.411
  183POPC   H7Y21050   4.248   7.448  13.461
  183POPC   C3821051   4.206   7.391  13.259
  183POPC   H8X21052   4.230   7.302  13.197
  183POPC   H8Y21053   4.275   7.475  13.235
  183POPC   C3921054   4.072   7.438  13.209
  183POPC   H9X21055   4.043   7.527  13.270
  183POPC   H9Y21056   3.993   7.361  13.219
  183POPC  C31021057   4.101   7.475  13.065
  183POPC  H10X21058   4.149   7.392  13.007
  183POPC  H10Y21059   4.156   7.572  13.058
  183POPC  C31121060   3.990   7.481  12.971
  183POPC  H11X21061   4.025   7.550  12.891
  183POPC  H11Y21062   3.933   7.565  12.964
  183POPC  C31221063   3.875   7.377  12.990
  183POPC  H12X21064   3.774   7.408  12.961
  183POPC  H12Y21065   3.843   7.359  13.093
  183POPC  C31321066   3.896   7.266  12.893
  183POPC  H13X21067   3.972   7.200  12.934
  183POPC  H13Y21068   3.953   7.313  12.810
  183POPC  C31421069   3.769   7.200  12.839
  183POPC  H14X21070   3.686   7.263  12.796
  183POPC  H14Y21071   3.715   7.156  12.924
  183POPC  C31521072   3.810   7.102  12.723
  183POPC  H15X21073   3.720   7.070  12.671
  183POPC  H15Y21074   3.863   7.020  12.774
  183POPC  C31621075   3.872   7.143  12.593
  183POPC  H16X21076   3.795   7.204  12.535
  183POPC  H16Y21077   3.914   7.068  12.527
  183POPC  H16Z21078   3.953   7.204  12.632
  184POPC     N21079   4.641   7.484  14.731
  184POPC   C1221080   4.672   7.353  14.819
  184POPC  H12A21081   4.594   7.324  14.888
  184POPC  H12B21082   4.754   7.396  14.882
  184POPC   C1321083   4.747   7.577  14.665
  184POPC  H13A21084   4.826   7.515  14.619
  184POPC  H13B21085   4.717   7.639  14.580
  184POPC  H13C21086   4.809   7.634  14.734
  184POPC   C1421087   4.565   7.430  14.618
  184POPC  H14A21088   4.485   7.369  14.656
  184POPC  H14B21089   4.530   7.509  14.554
  184POPC  H14C21090   4.631   7.364  14.561
  184POPC   C1521091   4.559   7.582  14.809
  184POPC  H15A21092   4.606   7.610  14.903
  184POPC  H15B21093   4.464   7.537  14.829
  184POPC  H15C21094   4.550   7.674  14.751
  184POPC   C1121095   4.734   7.209  14.752
  184POPC  H11A21096   4.646   7.146  14.732
  184POPC  H11B21097   4.808   7.165  14.828
  184POPC     P21098   4.916   7.146  14.546
  184POPC   O1321099   4.960   7.197  14.416
  184POPC   O1421100   4.850   7.021  14.566
  184POPC   O1221101   4.803   7.225  14.624
  184POPC   O1121102   5.046   7.131  14.618
  184POPC    C121103   5.116   7.245  14.645
  184POPC    HA21104   5.133   7.210  14.743
  184POPC    HB21105   5.075   7.340  14.664
  184POPC    C221106   5.232   7.286  14.562
  184POPC    HS21107   5.287   7.354  14.628
  184POPC   O2121108   5.203   7.346  14.432
  184POPC   C2121109   5.101   7.428  14.419
  184POPC   O2221110   5.017   7.458  14.501
  184POPC   C2221111   5.085   7.476  14.281
  184POPC   H2R21112   5.112   7.392  14.219
  184POPC   H2S21113   5.160   7.537  14.232
  184POPC    C321114   5.328   7.172  14.542
  184POPC    HX21115   5.363   7.127  14.636
  184POPC    HY21116   5.413   7.212  14.501
  184POPC   O3121117   5.287   7.077  14.453
  184POPC   C3121118   5.283   7.105  14.330
  184POPC   O3221119   5.338   7.191  14.264
  184POPC   C3221120   5.228   6.985  14.275
  184POPC   H2X21121   5.126   6.964  14.307
  184POPC   H2Y21122   5.306   6.916  14.305
  184POPC   C2321123   4.942   7.539  14.287
  184POPC   H3R21124   4.932   7.636  14.341
  184POPC   H3S21125   4.870   7.472  14.339
  184POPC   C2421126   4.902   7.572  14.149
  184POPC   H4R21127   4.994   7.607  14.096
  184POPC   H4S21128   4.823   7.649  14.144
  184POPC   C2521129   4.860   7.443  14.090
  184POPC   H5R21130   4.788   7.390  14.154
  184POPC   H5S21131   4.955   7.389  14.096
  184POPC   C2621132   4.818   7.456  13.946
  184POPC   H6R21133   4.726   7.517  13.942
  184POPC   H6S21134   4.794   7.354  13.907
  184POPC   C2721135   4.926   7.517  13.857
  184POPC   H7R21136   5.025   7.472  13.880
  184POPC   H7S21137   4.932   7.626  13.879
  184POPC   C2821138   4.892   7.496  13.710
  184POPC   H8R21139   4.785   7.516  13.688
  184POPC   H8S21140   4.907   7.388  13.688
  184POPC   C2921141   4.975   7.589  13.628
  184POPC   H9121142   4.932   7.687  13.615
  184POPC  C21021143   5.097   7.565  13.581
  184POPC  H10121144   5.154   7.636  13.521
  184POPC  C21121145   5.163   7.437  13.606
  184POPC  H11R21146   5.168   7.413  13.715
  184POPC  H11S21147   5.265   7.446  13.569
  184POPC  C21221148   5.104   7.325  13.526
  184POPC  H12R21149   5.002   7.297  13.557
  184POPC  H12S21150   5.161   7.236  13.560
  184POPC  C21321151   5.088   7.355  13.375
  184POPC  H13R21152   5.034   7.448  13.356
  184POPC  H13S21153   5.033   7.271  13.328
  184POPC  C21421154   5.212   7.383  13.295
  184POPC  H14R21155   5.203   7.276  13.266
  184POPC  H14S21156   5.303   7.414  13.352
  184POPC  C21521157   5.215   7.437  13.154
  184POPC  H15R21158   5.317   7.441  13.110
  184POPC  H15S21159   5.178   7.539  13.168
  184POPC  C21621160   5.131   7.352  13.059
  184POPC  H16R21161   5.117   7.417  12.970
  184POPC  H16S21162   5.032   7.332  13.105
  184POPC  C21721163   5.202   7.223  13.015
  184POPC  H17R21164   5.193   7.144  13.094
  184POPC  H17S21165   5.312   7.243  13.005
  184POPC  C21821166   5.155   7.174  12.879
  184POPC  H18R21167   5.059   7.223  12.852
  184POPC  H18S21168   5.141   7.064  12.874
  184POPC  H18T21169   5.232   7.203  12.804
  184POPC   C3321170   5.215   6.994  14.134
  184POPC   H3X21171   5.320   7.003  14.102
  184POPC   H3Y21172   5.180   7.097  14.125
  184POPC   C3421173   5.111   6.896  14.066
  184POPC   H4X21174   5.036   6.850  14.129
  184POPC   H4Y21175   5.172   6.828  14.025
  184POPC   C3521176   5.035   6.910  13.933
  184POPC   H5X21177   5.121   6.925  13.870
  184POPC   H5Y21178   4.971   6.986  13.894
  184POPC   C3621179   4.912   6.816  13.925
  184POPC   H6X21180   4.837   6.825  13.996
  184POPC   H6Y21181   4.968   6.737  13.953
  184POPC   C3721182   4.815   6.779  13.810
  184POPC   H7X21183   4.772   6.689  13.769
  184POPC   H7Y21184   4.876   6.710  13.769
  184POPC   C3821185   4.771   6.886  13.721
  184POPC   H8X21186   4.841   6.977  13.746
  184POPC   H8Y21187   4.691   6.880  13.781
  184POPC   C3921188   4.675   6.864  13.573
  184POPC   H9X21189   4.661   6.768  13.543
  184POPC   H9Y21190   4.778   6.863  13.584
  184POPC  C31021191   4.587   7.000  13.442
  184POPC  H10X21192   4.620   7.120  13.441
  184POPC  H10Y21193   4.489   7.003  13.457
  184POPC  C31121194   4.616   7.087  13.309
  184POPC  H11X21195   4.531   7.163  13.304
  184POPC  H11Y21196   4.579   6.994  13.268
  184POPC  C31221197   4.753   7.159  13.258
  184POPC  H12X21198   4.820   7.078  13.248
  184POPC  H12Y21199   4.845   7.209  13.291
  184POPC  C31321200   4.746   7.209  13.126
  184POPC  H13X21201   4.655   7.164  13.084
  184POPC  H13Y21202   4.842   7.187  13.072
  184POPC  C31421203   4.678   7.328  13.123
  184POPC  H14X21204   4.764   7.382  13.165
  184POPC  H14Y21205   4.592   7.310  13.194
  184POPC  C31521206   4.634   7.336  12.979
  184POPC  H15X21207   4.552   7.266  12.949
  184POPC  H15Y21208   4.722   7.325  12.911
  184POPC  C31621209   4.598   7.469  12.972
  184POPC  H16X21210   4.700   7.517  12.975
  184POPC  H16Y21211   4.540   7.493  13.065
  184POPC  H16Z21212   4.542   7.493  12.881
  185POPC     N21213   4.436   3.064  10.623
  185POPC   C1221214   4.326   3.061  10.728
  185POPC  H12A21215   4.306   2.957  10.753
  185POPC  H12B21216   4.237   3.108  10.689
  185POPC   C1321217   4.476   3.206  10.598
  185POPC  H13A21218   4.552   3.216  10.521
  185POPC  H13B21219   4.389   3.262  10.566
  185POPC  H13C21220   4.515   3.254  10.688
  185POPC   C1421221   4.551   2.979  10.668
  185POPC  H14A21222   4.511   2.880  10.685
  185POPC  H14B21223   4.633   2.973  10.597
  185POPC  H14C21224   4.588   3.012  10.765
  185POPC   C1521225   4.388   3.003  10.495
  185POPC  H15A21226   4.473   2.982  10.430
  185POPC  H15B21227   4.323   3.071  10.442
  185POPC  H15C21228   4.336   2.910  10.515
  185POPC   C1121229   4.352   3.126  10.863
  185POPC  H11A21230   4.259   3.124  10.924
  185POPC  H11B21231   4.386   3.232  10.853
  185POPC     P21232   4.516   3.097  11.056
  185POPC   O1321233   4.446   3.222  11.090
  185POPC   O1421234   4.658   3.095  11.021
  185POPC   O1221235   4.446   3.043  10.928
  185POPC   O1121236   4.472   2.994  11.165
  185POPC    C121237   4.329   2.970  11.178
  185POPC    HA21238   4.280   2.957  11.078
  185POPC    HB21239   4.280   3.054  11.231
  185POPC    C221240   4.294   2.841  11.254
  185POPC    HS21241   4.186   2.817  11.241
  185POPC   O2121242   4.329   2.853  11.395
  185POPC   C2121243   4.247   2.936  11.459
  185POPC   O2221244   4.135   2.965  11.423
  185POPC   C2221245   4.312   2.993  11.584
  185POPC   H2R21246   4.247   3.074  11.623
  185POPC   H2S21247   4.408   3.040  11.556
  185POPC    C321248   4.371   2.731  11.185
  185POPC    HX21249   4.350   2.715  11.079
  185POPC    HY21250   4.329   2.637  11.225
  185POPC   O3121251   4.511   2.764  11.199
  185POPC   C3121252   4.563   2.675  11.272
  185POPC   O3221253   4.503   2.573  11.292
  185POPC   C3221254   4.704   2.711  11.309
  185POPC   H2X21255   4.762   2.696  11.218
  185POPC   H2Y21256   4.775   2.647  11.362
  185POPC   C2321257   4.328   2.885  11.693
  185POPC   H3R21258   4.399   2.805  11.661
  185POPC   H3S21259   4.229   2.840  11.715
  185POPC   C2421260   4.374   2.950  11.822
  185POPC   H4R21261   4.292   3.013  11.859
  185POPC   H4S21262   4.465   3.012  11.802
  185POPC   C2521263   4.402   2.851  11.931
  185POPC   H5R21264   4.316   2.787  11.960
  185POPC   H5S21265   4.440   2.905  12.021
  185POPC   C2621266   4.506   2.758  11.888
  185POPC   H6R21267   4.595   2.823  11.868
  185POPC   H6S21268   4.498   2.684  11.806
  185POPC   C2721269   4.517   2.666  11.999
  185POPC   H7R21270   4.457   2.573  12.017
  185POPC   H7S21271   4.500   2.722  12.095
  185POPC   C2821272   4.654   2.625  11.954
  185POPC   H8R21273   4.661   2.569  11.861
  185POPC   H8S21274   4.639   2.530  12.012
  185POPC   C2921275   4.771   2.730  11.982
  185POPC   H9121276   4.855   2.709  11.914
  185POPC  C21021277   4.824   2.789  12.097
  185POPC  H10121278   4.929   2.765  12.094
  185POPC  C21121279   4.813   2.812  12.254
  185POPC  H11R21280   4.901   2.779  12.319
  185POPC  H11S21281   4.769   2.752  12.329
  185POPC  C21221282   4.730   2.930  12.274
  185POPC  H12R21283   4.640   2.921  12.210
  185POPC  H12S21284   4.791   3.015  12.240
  185POPC  C21321285   4.686   2.941  12.418
  185POPC  H13R21286   4.633   2.850  12.455
  185POPC  H13S21287   4.620   3.030  12.422
  185POPC  C21421288   4.802   2.962  12.511
  185POPC  H14R21289   4.883   3.002  12.453
  185POPC  H14S21290   4.840   2.870  12.559
  185POPC  C21521291   4.770   3.071  12.610
  185POPC  H15R21292   4.750   3.168  12.561
  185POPC  H15S21293   4.869   3.088  12.648
  185POPC  C21621294   4.665   3.013  12.708
  185POPC  H16R21295   4.710   2.929  12.764
  185POPC  H16S21296   4.581   2.984  12.643
  185POPC  C21721297   4.586   3.099  12.803
  185POPC  H17R21298   4.632   3.119  12.901
  185POPC  H17S21299   4.485   3.073  12.833
  185POPC  C21821300   4.567   3.218  12.729
  185POPC  H18R21301   4.676   3.240  12.744
  185POPC  H18S21302   4.509   3.292  12.786
  185POPC  H18T21303   4.560   3.241  12.622
  185POPC   C3321304   4.694   2.844  11.379
  185POPC   H3X21305   4.616   2.864  11.455
  185POPC   H3Y21306   4.689   2.916  11.293
  185POPC   C3421307   4.815   2.855  11.462
  185POPC   H4X21308   4.868   2.854  11.366
  185POPC   H4Y21309   4.867   2.765  11.500
  185POPC   C3521310   4.818   2.976  11.559
  185POPC   H5X21311   4.779   3.066  11.508
  185POPC   H5Y21312   4.915   3.011  11.604
  185POPC   C3621313   4.761   2.945  11.692
  185POPC   H6X21314   4.820   2.861  11.737
  185POPC   H6Y21315   4.659   2.916  11.666
  185POPC   C3721316   4.768   3.068  11.782
  185POPC   H7X21317   4.875   3.092  11.806
  185POPC   H7Y21318   4.717   3.036  11.874
  185POPC   C3821319   4.693   3.190  11.726
  185POPC   H8X21320   4.593   3.154  11.692
  185POPC   H8Y21321   4.743   3.234  11.637
  185POPC   C3921322   4.670   3.301  11.830
  185POPC   H9X21323   4.631   3.390  11.777
  185POPC   H9Y21324   4.768   3.329  11.876
  185POPC  C31021325   4.563   3.262  11.934
  185POPC  H10X21326   4.583   3.160  11.976
  185POPC  H10Y21327   4.467   3.255  11.879
  185POPC  C31121328   4.543   3.361  12.050
  185POPC  H11X21329   4.516   3.460  12.007
  185POPC  H11Y21330   4.635   3.371  12.111
  185POPC  C31221331   4.428   3.322  12.142
  185POPC  H12X21332   4.335   3.326  12.080
  185POPC  H12Y21333   4.417   3.398  12.223
  185POPC  C31321334   4.439   3.181  12.201
  185POPC  H13X21335   4.538   3.165  12.249
  185POPC  H13Y21336   4.428   3.110  12.116
  185POPC  C31421337   4.326   3.161  12.302
  185POPC  H14X21338   4.229   3.181  12.250
  185POPC  H14Y21339   4.344   3.241  12.377
  185POPC  C31521340   4.310   3.028  12.377
  185POPC  H15X21341   4.406   2.990  12.416
  185POPC  H15Y21342   4.267   2.949  12.311
  185POPC  C31621343   4.219   3.055  12.497
  185POPC  H16X21344   4.230   2.975  12.573
  185POPC  H16Y21345   4.111   3.065  12.470
  185POPC  H16Z21346   4.250   3.151  12.544
  186POPC     N21347   4.730   4.299  10.856
  186POPC   C1221348   4.647   4.395  10.941
  186POPC  H12A21349   4.709   4.440  11.019
  186POPC  H12B21350   4.567   4.342  10.991
  186POPC   C1321351   4.658   4.248  10.736
  186POPC  H13A21352   4.721   4.172  10.691
  186POPC  H13B21353   4.564   4.201  10.763
  186POPC  H13C21354   4.645   4.329  10.667
  186POPC   C1421355   4.856   4.367  10.812
  186POPC  H14A21356   4.829   4.452  10.748
  186POPC  H14B21357   4.911   4.408  10.896
  186POPC  H14C21358   4.919   4.299  10.758
  186POPC   C1521359   4.767   4.178  10.924
  186POPC  H15A21360   4.678   4.135  10.968
  186POPC  H15B21361   4.834   4.204  11.005
  186POPC  H15C21362   4.819   4.105  10.866
  186POPC   C1121363   4.579   4.510  10.862
  186POPC  H11A21364   4.524   4.578  10.933
  186POPC  H11B21365   4.503   4.463  10.796
  186POPC     P21366   4.738   4.715  10.820
  186POPC   O1321367   4.636   4.818  10.849
  186POPC   O1421368   4.848   4.740  10.725
  186POPC   O1221369   4.668   4.580  10.777
  186POPC   O1121370   4.799   4.660  10.956
  186POPC    C121371   4.872   4.747  11.041
  186POPC    HA21372   4.808   4.832  11.077
  186POPC    HB21373   4.960   4.789  10.987
  186POPC    C221374   4.920   4.667  11.164
  186POPC    HS21375   4.970   4.573  11.131
  186POPC   O2121376   4.798   4.640  11.232
  186POPC   C2121377   4.791   4.577  11.342
  186POPC   O2221378   4.879   4.512  11.397
  186POPC   C2221379   4.652   4.611  11.394
  186POPC   H2R21380   4.583   4.643  11.314
  186POPC   H2S21381   4.665   4.690  11.470
  186POPC    C321382   5.024   4.745  11.249
  186POPC    HX21383   5.089   4.801  11.178
  186POPC    HY21384   5.085   4.670  11.304
  186POPC   O3121385   4.964   4.834  11.341
  186POPC   C3121386   5.047   4.874  11.435
  186POPC   O3221387   5.168   4.859  11.439
  186POPC   C3221388   4.970   4.959  11.528
  186POPC   H2X21389   4.899   5.013  11.461
  186POPC   H2Y21390   5.037   5.029  11.584
  186POPC   C2321391   4.590   4.494  11.462
  186POPC   H3R21392   4.653   4.467  11.541
  186POPC   H3S21393   4.588   4.410  11.397
  186POPC   C2421394   4.456   4.512  11.522
  186POPC   H4R21395   4.441   4.415  11.577
  186POPC   H4S21396   4.384   4.527  11.438
  186POPC   C2521397   4.446   4.625  11.618
  186POPC   H5R21398   4.342   4.654  11.631
  186POPC   H5S21399   4.492   4.715  11.576
  186POPC   C2621400   4.509   4.589  11.750
  186POPC   H6R21401   4.618   4.578  11.732
  186POPC   H6S21402   4.467   4.493  11.789
  186POPC   C2721403   4.491   4.704  11.848
  186POPC   H7R21404   4.388   4.698  11.881
  186POPC   H7S21405   4.498   4.803  11.801
  186POPC   C2821406   4.589   4.709  11.962
  186POPC   H8R21407   4.564   4.784  12.039
  186POPC   H8S21408   4.694   4.707  11.929
  186POPC   C2921409   4.567   4.591  12.035
  186POPC   H9121410   4.461   4.564  12.021
  186POPC  C21021411   4.666   4.515  12.087
  186POPC  H10121412   4.654   4.422  12.135
  186POPC  C21121413   4.808   4.511  12.097
  186POPC  H11R21414   4.806   4.601  12.155
  186POPC  H11S21415   4.840   4.511  11.993
  186POPC  C21221416   4.881   4.409  12.189
  186POPC  H12R21417   4.832   4.403  12.290
  186POPC  H12S21418   4.983   4.447  12.189
  186POPC  C21321419   4.954   4.277  12.152
  186POPC  H13R21420   4.963   4.229  12.054
  186POPC  H13S21421   4.867   4.245  12.204
  186POPC  C21421422   4.986   4.152  12.228
  186POPC  H14R21423   5.089   4.146  12.197
  186POPC  H14S21424   4.924   4.073  12.181
  186POPC  C21521425   4.977   4.148  12.375
  186POPC  H15R21426   4.981   4.246  12.425
  186POPC  H15S21427   5.015   4.048  12.412
  186POPC  C21621428   4.844   4.138  12.420
  186POPC  H16R21429   4.835   4.030  12.378
  186POPC  H16S21430   4.785   4.204  12.356
  186POPC  C21721431   4.799   4.174  12.571
  186POPC  H17R21432   4.866   4.240  12.620
  186POPC  H17S21433   4.831   4.078  12.616
  186POPC  C21821434   4.660   4.236  12.627
  186POPC  H18R21435   4.634   4.217  12.734
  186POPC  H18S21436   4.585   4.181  12.568
  186POPC  H18T21437   4.550   4.212  12.616
  186POPC   C3321438   4.865   4.894  11.613
  186POPC   H3X21439   4.787   4.850  11.549
  186POPC   H3Y21440   4.816   4.970  11.674
  186POPC   C3421441   4.930   4.806  11.708
  186POPC   H4X21442   4.975   4.721  11.653
  186POPC   H4Y21443   4.852   4.771  11.780
  186POPC   C3521444   5.035   4.878  11.783
  186POPC   H5X21445   5.009   4.983  11.816
  186POPC   H5Y21446   5.136   4.887  11.737
  186POPC   C3621447   5.052   4.785  11.896
  186POPC   H6X21448   5.092   4.689  11.869
  186POPC   H6Y21449   4.959   4.758  11.953
  186POPC   C3721450   5.149   4.862  11.964
  186POPC   H7X21451   5.169   4.965  11.925
  186POPC   H7Y21452   5.235   4.835  12.022
  186POPC   C3821453   5.068   4.881  12.063
  186POPC   H8X21454   5.009   4.960  12.009
  186POPC   H8Y21455   5.113   4.983  12.090
  186POPC   C3921456   5.001   4.763  12.189
  186POPC   H9X21457   5.064   4.689  12.238
  186POPC   H9Y21458   4.911   4.735  12.142
  186POPC  C31021459   4.911   4.776  12.337
  186POPC  H10X21460   4.805   4.794  12.331
  186POPC  H10Y21461   4.944   4.866  12.382
  186POPC  C31121462   4.920   4.788  12.488
  186POPC  H11X21463   4.878   4.878  12.543
  186POPC  H11Y21464   5.017   4.784  12.537
  186POPC  C31221465   4.805   4.702  12.497
  186POPC  H12X21466   4.825   4.612  12.432
  186POPC  H12Y21467   4.705   4.730  12.448
  186POPC  C31321468   4.784   4.711  12.636
  186POPC  H13X21469   4.760   4.809  12.684
  186POPC  H13Y21470   4.875   4.666  12.678
  186POPC  C31421471   4.671   4.628  12.625
  186POPC  H14X21472   4.685   4.588  12.722
  186POPC  H14Y21473   4.714   4.540  12.573
  186POPC  C31521474   4.532   4.693  12.569
  186POPC  H15X21475   4.434   4.647  12.602
  186POPC  H15Y21476   4.496   4.671  12.465
  186POPC  C31621477   4.510   4.827  12.625
  186POPC  H16X21478   4.521   4.909  12.572
  186POPC  H16Y21479   4.462   4.863  12.715
  186POPC  H16Z21480   4.428   4.818  12.570
  187POPC     N21481   4.972   1.329  10.985
  187POPC   C1221482   4.852   1.395  10.924
  187POPC  H12A21483   4.836   1.491  10.974
  187POPC  H12B21484   4.769   1.331  10.949
  187POPC   C1321485   4.995   1.203  10.908
  187POPC  H13A21486   5.102   1.183  10.910
  187POPC  H13B21487   4.950   1.117  10.956
  187POPC  H13C21488   4.969   1.209  10.803
  187POPC   C1421489   5.089   1.421  10.980
  187POPC  H14A21490   5.130   1.426  10.880
  187POPC  H14B21491   5.056   1.521  11.006
  187POPC  H14C21492   5.168   1.389  11.048
  187POPC   C1521493   4.951   1.302  11.131
  187POPC  H15A21494   5.030   1.242  11.173
  187POPC  H15B21495   4.860   1.247  11.146
  187POPC  H15C21496   4.936   1.391  11.191
  187POPC   C1121497   4.843   1.421  10.773
  187POPC  H11A21498   4.747   1.480  10.760
  187POPC  H11B21499   4.829   1.330  10.713
  187POPC     P21500   4.949   1.643  10.699
  187POPC   O1321501   4.855   1.668  10.586
  187POPC   O1421502   5.081   1.710  10.700
  187POPC   O1221503   4.959   1.487  10.722
  187POPC   O1121504   4.879   1.673  10.835
  187POPC    C121505   4.840   1.807  10.834
  187POPC    HA21506   4.748   1.819  10.769
  187POPC    HB21507   4.916   1.881  10.807
  187POPC    C221508   4.814   1.836  10.977
  187POPC    HS21509   4.798   1.945  10.994
  187POPC   O2121510   4.908   1.792  11.074
  187POPC   C2121511   5.007   1.865  11.104
  187POPC   O2221512   5.041   1.971  11.057
  187POPC   C2221513   5.065   1.797  11.229
  187POPC   H2R21514   5.141   1.725  11.194
  187POPC   H2S21515   4.984   1.745  11.285
  187POPC    C321516   4.688   1.755  11.006
  187POPC    HX21517   4.654   1.805  10.919
  187POPC    HY21518   4.692   1.799  11.106
  187POPC   O3121519   4.544   1.727  10.973
  187POPC   C3121520   4.405   1.662  11.031
  187POPC   O3221521   4.316   1.706  10.968
  187POPC   C3221522   4.390   1.481  11.175
  187POPC   H2X21523   4.445   1.423  11.120
  187POPC   H2Y21524   4.292   1.489  11.174
  187POPC   C2321525   5.126   1.899  11.322
  187POPC   H3R21526   5.049   1.969  11.362
  187POPC   H3S21527   5.196   1.956  11.257
  187POPC   C2421528   5.201   1.842  11.441
  187POPC   H4R21529   5.233   1.930  11.502
  187POPC   H4S21530   5.292   1.784  11.411
  187POPC   C2521531   5.116   1.765  11.539
  187POPC   H5R21532   5.096   1.665  11.495
  187POPC   H5S21533   5.023   1.822  11.561
  187POPC   C2621534   5.186   1.752  11.674
  187POPC   H6R21535   5.263   1.831  11.690
  187POPC   H6S21536   5.233   1.659  11.653
  187POPC   C2721537   5.096   1.734  11.796
  187POPC   H7R21538   5.006   1.683  11.756
  187POPC   H7S21539   5.077   1.836  11.834
  187POPC   C2821540   5.123   1.640  11.916
  187POPC   H8R21541   5.141   1.536  11.900
  187POPC   H8S21542   5.040   1.639  11.984
  187POPC   C2921543   5.221   1.670  12.011
  187POPC   H9121544   5.303   1.598  12.021
  187POPC  C21021545   5.226   1.765  12.092
  187POPC  H10121546   5.325   1.761  12.110
  187POPC  C21121547   5.149   1.881  12.135
  187POPC  H11R21548   5.058   1.865  12.079
  187POPC  H11S21549   5.196   1.981  12.119
  187POPC  C21221550   5.133   1.854  12.286
  187POPC  H12R21551   5.117   1.742  12.293
  187POPC  H12S21552   5.043   1.897  12.323
  187POPC  C21321553   5.247   1.918  12.376
  187POPC  H13R21554   5.290   2.012  12.343
  187POPC  H13S21555   5.298   1.838  12.326
  187POPC  C21421556   5.289   1.908  12.528
  187POPC  H14R21557   5.394   1.908  12.560
  187POPC  H14S21558   5.309   1.821  12.588
  187POPC  C21521559   5.169   1.919  12.601
  187POPC  H15R21560   5.094   1.842  12.562
  187POPC  H15S21561   5.146   2.026  12.593
  187POPC  C21621562   5.169   1.890  12.740
  187POPC  H16R21563   5.255   1.927  12.799
  187POPC  H16S21564   5.167   1.789  12.765
  187POPC  C21721565   5.026   1.927  12.767
  187POPC  H17R21566   5.032   2.035  12.782
  187POPC  H17S21567   5.038   1.861  12.850
  187POPC  C21821568   4.882   1.873  12.772
  187POPC  H18R21569   4.856   1.772  12.736
  187POPC  H18S21570   4.843   1.966  12.735
  187POPC  H18T21571   4.812   1.901  12.851
  187POPC   C3321572   4.489   1.430  11.319
  187POPC   H3X21573   4.483   1.317  11.322
  187POPC   H3Y21574   4.425   1.465  11.398
  187POPC   C3421575   4.652   1.473  11.355
  187POPC   H4X21576   4.721   1.456  11.271
  187POPC   H4Y21577   4.738   1.413  11.377
  187POPC   C3521578   4.702   1.614  11.394
  187POPC   H5X21579   4.619   1.659  11.444
  187POPC   H5Y21580   4.739   1.691  11.321
  187POPC   C3621581   4.785   1.608  11.515
  187POPC   H6X21582   4.832   1.708  11.527
  187POPC   H6Y21583   4.858   1.527  11.495
  187POPC   C3721584   4.681   1.575  11.625
  187POPC   H7X21585   4.616   1.490  11.595
  187POPC   H7Y21586   4.611   1.661  11.631
  187POPC   C3821587   4.744   1.557  11.758
  187POPC   H8X21588   4.792   1.654  11.786
  187POPC   H8Y21589   4.823   1.481  11.747
  187POPC   C3921590   4.646   1.520  11.869
  187POPC   H9X21591   4.606   1.418  11.853
  187POPC   H9Y21592   4.558   1.590  11.869
  187POPC  C31021593   4.723   1.531  12.001
  187POPC  H10X21594   4.757   1.636  12.014
  187POPC  H10Y21595   4.814   1.468  11.992
  187POPC  C31121596   4.640   1.494  12.123
  187POPC  H11X21597   4.605   1.389  12.111
  187POPC  H11Y21598   4.552   1.560  12.127
  187POPC  C31221599   4.714   1.500  12.257
  187POPC  H12X21600   4.799   1.427  12.257
  187POPC  H12Y21601   4.643   1.479  12.338
  187POPC  C31321602   4.763   1.633  12.310
  187POPC  H13X21603   4.673   1.683  12.354
  187POPC  H13Y21604   4.802   1.695  12.227
  187POPC  C31421605   4.870   1.606  12.417
  187POPC  H14X21606   4.898   1.697  12.464
  187POPC  H14Y21607   4.964   1.574  12.370
  187POPC  C31521608   4.830   1.509  12.531
  187POPC  H15X21609   4.812   1.411  12.484
  187POPC  H15Y21610   4.743   1.547  12.587
  187POPC  C31621611   4.936   1.487  12.635
  187POPC  H16X21612   4.952   1.584  12.687
  187POPC  H16Y21613   5.026   1.455  12.581
  187POPC  H16Z21614   4.924   1.406  12.708
  188POPC     N21615   6.522   3.411  10.694
  188POPC   C1221616   6.397   3.424  10.782
  188POPC  H12A21617   6.364   3.323  10.804
  188POPC  H12B21618   6.318   3.474  10.726
  188POPC   C1321619   6.634   3.361  10.778
  188POPC  H13A21620   6.625   3.258  10.808
  188POPC  H13B21621   6.730   3.382  10.734
  188POPC  H13C21622   6.633   3.416  10.873
  188POPC   C1421623   6.499   3.315  10.583
  188POPC  H14A21624   6.408   3.337  10.529
  188POPC  H14B21625   6.582   3.324  10.513
  188POPC  H14C21626   6.495   3.214  10.621
  188POPC   C1521627   6.560   3.542  10.632
  188POPC  H15A21628   6.578   3.619  10.708
  188POPC  H15B21629   6.480   3.583  10.570
  188POPC  H15C21630   6.649   3.533  10.572
  188POPC   C1121631   6.410   3.501  10.917
  188POPC  H11A21632   6.457   3.435  10.993
  188POPC  H11B21633   6.308   3.525  10.955
  188POPC     P21634   6.600   3.675  10.985
  188POPC   O1321635   6.555   3.696  11.124
  188POPC   O1421636   6.671   3.785  10.914
  188POPC   O1221637   6.480   3.622  10.897
  188POPC   O1121638   6.691   3.545  10.981
  188POPC    C121639   6.790   3.522  11.080
  188POPC    HA21640   6.766   3.574  11.174
  188POPC    HB21641   6.885   3.557  11.038
  188POPC    C221642   6.809   3.373  11.119
  188POPC    HS21643   6.871   3.328  11.038
  188POPC   O2121644   6.679   3.315  11.128
  188POPC   C2121645   6.677   3.187  11.104
  188POPC   O2221646   6.771   3.121  11.066
  188POPC   C2221647   6.531   3.141  11.119
  188POPC   H2R21648   6.524   3.031  11.110
  188POPC   H2S21649   6.474   3.186  11.034
  188POPC    C321650   6.884   3.351  11.253
  188POPC    HX21651   6.980   3.410  11.251
  188POPC    HY21652   6.921   3.249  11.262
  188POPC   O3121653   6.792   3.372  11.365
  188POPC   C3121654   6.834   3.470  11.441
  188POPC   O3221655   6.938   3.528  11.422
  188POPC   C3221656   6.743   3.509  11.552
  188POPC   H2X21657   6.788   3.491  11.651
  188POPC   H2Y21658   6.649   3.454  11.539
  188POPC   C2321659   6.462   3.190  11.249
  188POPC   H3R21660   6.497   3.291  11.277
  188POPC   H3S21661   6.485   3.120  11.332
  188POPC   C2421662   6.311   3.196  11.227
  188POPC   H4R21663   6.283   3.100  11.178
  188POPC   H4S21664   6.289   3.277  11.154
  188POPC   C2521665   6.227   3.212  11.355
  188POPC   H5R21666   6.260   3.135  11.429
  188POPC   H5S21667   6.119   3.196  11.331
  188POPC   C2621668   6.234   3.347  11.425
  188POPC   H6R21669   6.207   3.427  11.352
  188POPC   H6S21670   6.337   3.365  11.462
  188POPC   C2721671   6.141   3.355  11.546
  188POPC   H7R21672   6.174   3.286  11.627
  188POPC   H7S21673   6.037   3.327  11.517
  188POPC   C2821674   6.142   3.497  11.598
  188POPC   H8R21675   6.081   3.513  11.681
  188POPC   H8S21676   6.099   3.565  11.521
  188POPC   C2921677   6.268   3.547  11.655
  188POPC   H9121678   6.307   3.621  11.586
  188POPC  C21021679   6.333   3.513  11.768
  188POPC  H10121680   6.426   3.567  11.789
  188POPC  C21121681   6.297   3.409  11.873
  188POPC  H11R21682   6.339   3.311  11.841
  188POPC  H11S21683   6.187   3.395  11.886
  188POPC  C21221684   6.359   3.433  12.013
  188POPC  H12R21685   6.470   3.439  12.006
  188POPC  H12S21686   6.334   3.346  12.077
  188POPC  C21321687   6.298   3.556  12.078
  188POPC  H13R21688   6.217   3.578  12.008
  188POPC  H13S21689   6.359   3.648  12.082
  188POPC  C21421690   6.236   3.527  12.212
  188POPC  H14R21691   6.209   3.419  12.225
  188POPC  H14S21692   6.146   3.588  12.234
  188POPC  C21521693   6.334   3.574  12.311
  188POPC  H15R21694   6.368   3.678  12.308
  188POPC  H15S21695   6.430   3.524  12.290
  188POPC  C21621696   6.277   3.555  12.443
  188POPC  H16R21697   6.245   3.446  12.460
  188POPC  H16S21698   6.186   3.612  12.468
  188POPC  C21721699   6.389   3.606  12.526
  188POPC  H17R21700   6.375   3.714  12.548
  188POPC  H17S21701   6.501   3.598  12.522
  188POPC  C21821702   6.353   3.500  12.620
  188POPC  H18R21703   6.245   3.484  12.646
  188POPC  H18S21704   6.404   3.581  12.675
  188POPC  H18T21705   6.408   3.422  12.670
  188POPC   C3321706   6.723   3.660  11.541
  188POPC   H3X21707   6.682   3.687  11.441
  188POPC   H3Y21708   6.819   3.709  11.549
  188POPC   C3421709   6.641   3.722  11.652
  188POPC   H4X21710   6.535   3.699  11.633
  188POPC   H4Y21711   6.654   3.832  11.640
  188POPC   C3521712   6.680   3.677  11.794
  188POPC   H5X21713   6.791   3.673  11.802
  188POPC   H5Y21714   6.644   3.574  11.816
  188POPC   C3621715   6.625   3.774  11.899
  188POPC   H6X21716   6.516   3.776  11.885
  188POPC   H6Y21717   6.662   3.877  11.879
  188POPC   C3721718   6.644   3.737  12.045
  188POPC   H7X21719   6.596   3.638  12.066
  188POPC   H7Y21720   6.597   3.813  12.112
  188POPC   C3821721   6.787   3.726  12.087
  188POPC   H8X21722   6.828   3.827  12.110
  188POPC   H8Y21723   6.852   3.679  12.009
  188POPC   C3921724   6.788   3.640  12.209
  188POPC   H9X21725   6.776   3.534  12.176
  188POPC   H9Y21726   6.712   3.660  12.287
  188POPC  C31021727   6.915   3.663  12.277
  188POPC  H10X21728   6.937   3.762  12.322
  188POPC  H10Y21729   6.995   3.647  12.209
  188POPC  C31121730   6.923   3.562  12.380
  188POPC  H11X21731   6.877   3.593  12.475
  188POPC  H11Y21732   7.017   3.585  12.401
  188POPC  C31221733   6.936   3.416  12.340
  188POPC  H12X21734   7.012   3.376  12.283
  188POPC  H12Y21735   6.863   3.390  12.267
  188POPC  C31321736   6.988   3.329  12.444
  188POPC  H13X21737   7.079   3.353  12.511
  188POPC  H13Y21738   6.963   3.224  12.432
  188POPC  C31421739   6.902   3.276  12.529
  188POPC  H14X21740   6.904   3.391  12.550
  188POPC  H14Y21741   6.949   3.283  12.629
  188POPC  C31521742   6.743   3.181  12.509
  188POPC  H15X21743   6.799   3.103  12.488
  188POPC  H15Y21744   6.672   3.159  12.444
  188POPC  C31621745   6.586   3.190  12.604
  188POPC  H16X21746   6.544   3.274  12.669
  188POPC  H16Y21747   6.601   3.214  12.708
  188POPC  H16Z21748   6.494   3.138  12.597
  189SAPI   C1221749   4.577   1.093  15.101
  189SAPI    H221750   4.515   1.039  15.024
  189SAPI    O221751   4.508   1.205  15.147
  189SAPI   HO221752   4.559   1.272  15.101
  189SAPI   C1321753   4.596   0.994  15.221
  189SAPI    H321754   4.627   0.892  15.193
  189SAPI    O321755   4.468   0.952  15.264
  189SAPI   HO321756   4.424   1.034  15.286
  189SAPI   C1421757   4.683   1.069  15.338
  189SAPI    H421758   4.643   1.167  15.360
  189SAPI    O421759   4.664   0.999  15.463
  189SAPI   HO421760   4.666   0.905  15.431
  189SAPI   C1521761   4.830   1.119  15.295
  189SAPI    H521762   4.905   1.038  15.292
  189SAPI    O521763   4.949   1.128  15.375
  189SAPI   HO521764   4.924   1.128  15.466
  189SAPI   C1621765   4.795   1.210  15.158
  189SAPI    H621766   4.756   1.305  15.187
  189SAPI    O621767   4.925   1.228  15.101
  189SAPI   HO621768   4.934   1.311  15.054
  189SAPI   C1121769   4.704   1.145  15.030
  189SAPI    H121770   4.727   1.053  14.971
  189SAPI     P21771   4.681   1.160  14.758
  189SAPI   O1321772   4.561   1.073  14.754
  189SAPI   O1421773   4.808   1.102  14.711
  189SAPI   O1221774   4.687   1.228  14.915
  189SAPI   O1121775   4.653   1.294  14.685
  189SAPI    C121776   4.538   1.368  14.722
  189SAPI    HA21777   4.450   1.315  14.683
  189SAPI    HB21778   4.521   1.377  14.833
  189SAPI    C221779   4.555   1.505  14.654
  189SAPI    HS21780   4.465   1.566  14.679
  189SAPI   O2121781   4.567   1.491  14.511
  189SAPI   C2121782   4.463   1.445  14.449
  189SAPI   O2221783   4.352   1.428  14.501
  189SAPI   C2221784   4.490   1.442  14.296
  189SAPI   H2R21785   4.499   1.545  14.255
  189SAPI   H2S21786   4.585   1.391  14.276
  189SAPI    C321787   4.680   1.583  14.704
  189SAPI    HX21788   4.701   1.563  14.811
  189SAPI    HY21789   4.656   1.690  14.694
  189SAPI   O3121790   4.794   1.560  14.620
  189SAPI   C3121791   4.890   1.484  14.670
  189SAPI   O3221792   4.904   1.450  14.786
  189SAPI   C3221793   4.984   1.457  14.556
  189SAPI   H2X21794   5.087   1.441  14.597
  189SAPI   H2Y21795   4.987   1.550  14.495
  189SAPI   C2321796   4.378   1.359  14.229
  189SAPI   H3R21797   4.289   1.416  14.227
  189SAPI   H3S21798   4.354   1.272  14.291
  189SAPI   C2421799   4.390   1.323  14.081
  189SAPI   H4R21800   4.495   1.289  14.070
  189SAPI   H4S21801   4.375   1.416  14.021
  189SAPI   C2521802   4.289   1.218  14.038
  189SAPI   H5R21803   4.200   1.205  14.100
  189SAPI   C2621804   4.307   1.134  13.935
  189SAPI   H6R21805   4.228   1.062  13.906
  189SAPI   C2721806   4.430   1.134  13.848
  189SAPI   H7R21807   4.475   1.236  13.844
  189SAPI   H7S21808   4.403   1.108  13.744
  189SAPI   C2821809   4.532   1.039  13.902
  189SAPI   H8R21810   4.533   1.023  14.011
  189SAPI   C2921811   4.624   0.978  13.828
  189SAPI   H9R21812   4.690   0.905  13.879
  189SAPI  C21021813   4.636   0.999  13.678
  189SAPI  H10R21814   4.713   1.073  13.654
  189SAPI  H10S21815   4.541   1.018  13.624
  189SAPI  C21121816   4.678   0.877  13.615
  189SAPI  H11R21817   4.628   0.792  13.642
  189SAPI  C21221818   4.762   0.857  13.521
  189SAPI  H12R21819   4.825   0.773  13.533
  189SAPI  C21321820   4.838   0.951  13.453
  189SAPI  H13R21821   4.881   0.876  13.383
  189SAPI  H13S21822   4.912   0.993  13.526
  189SAPI  C21421823   4.766   1.048  13.370
  189SAPI  H14R21824   4.659   1.032  13.369
  189SAPI  C21521825   4.823   1.126  13.280
  189SAPI  H15R21826   4.768   1.193  13.217
  189SAPI  C21621827   4.964   1.133  13.246
  189SAPI  H16R21828   5.015   1.122  13.341
  189SAPI  H16S21829   4.998   1.236  13.230
  189SAPI  C21721830   4.963   1.026  13.132
  189SAPI  H17R21831   4.966   0.929  13.179
  189SAPI  H17S21832   5.035   0.955  13.093
  189SAPI  C21821833   4.934   1.065  12.987
  189SAPI  H18R21834   4.964   1.167  12.958
  189SAPI  H18S21835   4.826   1.072  12.984
  189SAPI  C21921836   4.997   0.971  12.880
  189SAPI  H19R21837   4.963   0.868  12.897
  189SAPI  H19S21838   5.109   0.964  12.883
  189SAPI  C22021839   4.954   1.016  12.742
  189SAPI  H20R21840   4.845   1.039  12.746
  189SAPI  H20S21841   4.974   0.937  12.668
  189SAPI  H20T21842   5.007   1.109  12.711
  189SAPI   C3321843   4.936   1.334  14.477
  189SAPI   H3X21844   4.900   1.249  14.539
  189SAPI   H3Y21845   5.027   1.289  14.444
  189SAPI   C3421846   4.842   1.358  14.356
  189SAPI   H4X21847   4.757   1.414  14.396
  189SAPI   H4Y21848   4.816   1.259  14.311
  189SAPI   C3521849   4.889   1.443  14.241
  189SAPI   H5X21850   4.982   1.386  14.235
  189SAPI   H5Y21851   4.904   1.551  14.266
  189SAPI   C3621852   4.832   1.425  14.100
  189SAPI   H6X21853   4.861   1.515  14.040
  189SAPI   H6Y21854   4.723   1.422  14.114
  189SAPI   C3721855   4.883   1.301  14.026
  189SAPI   H7X21856   4.873   1.210  14.090
  189SAPI   H7Y21857   4.990   1.313  13.999
  189SAPI   C3821858   4.807   1.272  13.896
  189SAPI   H8X21859   4.703   1.251  13.926
  189SAPI   H8Y21860   4.849   1.179  13.850
  189SAPI   C3921861   4.810   1.388  13.796
  189SAPI   H9X21862   4.915   1.421  13.780
  189SAPI   H9Y21863   4.752   1.474  13.837
  189SAPI  C31021864   4.754   1.353  13.657
  189SAPI  H10X21865   4.646   1.324  13.661
  189SAPI  H10Y21866   4.814   1.270  13.614
  189SAPI  C31121867   4.770   1.471  13.563
  189SAPI  H11X21868   4.880   1.490  13.557
  189SAPI  H11Y21869   4.719   1.561  13.605
  189SAPI  C31221870   4.713   1.447  13.424
  189SAPI  H12X21871   4.607   1.413  13.429
  189SAPI  H12Y21872   4.770   1.366  13.373
  189SAPI  C31321873   4.722   1.571  13.338
  189SAPI  H13X21874   4.824   1.616  13.344
  189SAPI  H13Y21875   4.648   1.650  13.366
  189SAPI  C31421876   4.706   1.525  13.194
  189SAPI  H14X21877   4.769   1.441  13.167
  189SAPI  H14Y21878   4.746   1.614  13.138
  189SAPI  C31521879   4.565   1.475  13.159
  189SAPI  H15X21880   4.540   1.574  13.176
  189SAPI  H15Y21881   4.485   1.445  13.228
  189SAPI  C31621882   4.538   1.434  13.013
  189SAPI  H16X21883   4.597   1.486  12.934
  189SAPI  H16Y21884   4.430   1.444  12.983
  189SAPI  C31721885   4.582   1.295  13.010
  189SAPI  H17X21886   4.536   1.255  13.103
  189SAPI  H17Y21887   4.693   1.302  13.019
  189SAPI  C31821888   4.534   1.228  12.885
  189SAPI  H18X21889   4.423   1.222  12.883
  189SAPI  H18Y21890   4.577   1.126  12.883
  189SAPI  H18Z21891   4.569   1.286  12.796
  190SAPI   C1221892   4.956   0.867  15.005
  190SAPI    H221893   4.918   0.932  14.916
  190SAPI    O221894   5.081   0.931  15.046
  190SAPI   HO221895   5.100   0.914  15.137
  190SAPI   C1321896   4.860   0.861  15.111
  190SAPI    H321897   4.760   0.840  15.065
  190SAPI    O321898   4.838   0.969  15.116
  190SAPI   HO321899   4.905   1.039  15.134
  190SAPI   C1421900   4.879   0.799  15.246
  190SAPI    H421901   4.977   0.840  15.285
  190SAPI    O421902   4.789   0.819  15.352
  190SAPI   HO421903   4.843   0.830  15.431
  190SAPI   C1521904   4.884   0.666  15.220
  190SAPI    H521905   4.777   0.644  15.186
  190SAPI    O521906   4.913   0.595  15.341
  190SAPI   HO521907   4.867   0.514  15.328
  190SAPI   C1621908   4.986   0.650  15.116
  190SAPI    H621909   5.082   0.689  15.158
  190SAPI    O621910   4.984   0.513  15.088
  190SAPI   HO621911   5.059   0.508  15.029
  190SAPI   C1121912   4.956   0.727  14.988
  190SAPI    H121913   4.853   0.702  14.949
  190SAPI     P21914   5.047   0.771  14.739
  190SAPI   O1321915   5.076   0.916  14.740
  190SAPI   O1421916   4.930   0.718  14.666
  190SAPI   O1221917   5.052   0.704  14.890
  190SAPI   O1121918   5.179   0.699  14.698
  190SAPI    C121919   5.299   0.715  14.777
  190SAPI    HA21920   5.326   0.822  14.790
  190SAPI    HB21921   5.292   0.666  14.877
  190SAPI    C221922   5.416   0.647  14.708
  190SAPI    HS21923   5.514   0.676  14.750
  190SAPI   O2121924   5.405   0.666  14.569
  190SAPI   C2121925   5.488   0.743  14.525
  190SAPI   O2221926   5.580   0.800  14.585
  190SAPI   C2221927   5.452   0.752  14.378
  190SAPI   H2R21928   5.559   0.776  14.358
  190SAPI   H2S21929   5.437   0.668  14.318
  190SAPI    C321930   5.412   0.502  14.731
  190SAPI    HX21931   5.416   0.477  14.838
  190SAPI    HY21932   5.499   0.454  14.690
  190SAPI   O3121933   5.298   0.455  14.668
  190SAPI   C3121934   5.280   0.334  14.700
  190SAPI   O3221935   5.343   0.268  14.782
  190SAPI   C3221936   5.167   0.286  14.625
  190SAPI   H2X21937   5.107   0.227  14.697
  190SAPI   H2Y21938   5.218   0.212  14.565
  190SAPI   C2321939   5.328   0.834  14.314
  190SAPI   H3R21940   5.330   0.902  14.225
  190SAPI   H3S21941   5.368   0.915  14.351
  190SAPI   C2421942   5.178   0.820  14.335
  190SAPI   H4R21943   5.154   0.803  14.441
  190SAPI   H4S21944   5.179   0.729  14.274
  190SAPI   C2521945   5.087   0.929  14.275
  190SAPI   H5R21946   5.067   1.015  14.342
  190SAPI   C2621947   5.027   0.939  14.157
  190SAPI   H6R21948   4.975   1.033  14.133
  190SAPI   C2721949   5.036   0.836  14.051
  190SAPI   H7R21950   4.968   0.754  14.085
  190SAPI   H7S21951   5.138   0.794  14.043
  190SAPI   C2821952   4.994   0.893  13.919
  190SAPI   H8R21953   5.031   0.994  13.894
  190SAPI   C2921954   4.936   0.823  13.822
  190SAPI   H9R21955   4.897   0.879  13.736
  190SAPI  C21021956   4.907   0.677  13.835
  190SAPI  H10R21957   4.881   0.646  13.940
  190SAPI  H10S21958   4.982   0.611  13.795
  190SAPI  C21121959   4.793   0.631  13.763
  190SAPI  H11R21960   4.721   0.666  13.836
  190SAPI  C21221961   4.758   0.578  13.643
  190SAPI  H12R21962   4.656   0.557  13.618
  190SAPI  C21321963   4.825   0.542  13.523
  190SAPI  H13R21964   4.928   0.533  13.557
  190SAPI  H13S21965   4.807   0.623  13.451
  190SAPI  C21421966   4.769   0.431  13.443
  190SAPI  H14R21967   4.667   0.398  13.459
  190SAPI  C21521968   4.812   0.416  13.321
  190SAPI  H15R21969   4.754   0.351  13.254
  190SAPI  C21621970   4.914   0.511  13.267
  190SAPI  H16R21971   4.963   0.583  13.337
  190SAPI  H16S21972   4.856   0.580  13.206
  190SAPI  C21721973   5.026   0.432  13.209
  190SAPI  H17R21974   4.991   0.347  13.145
  190SAPI  H17S21975   5.090   0.390  13.291
  190SAPI  C21821976   5.115   0.520  13.129
  190SAPI  H18R21977   5.169   0.597  13.188
  190SAPI  H18S21978   5.070   0.572  13.043
  190SAPI  C21921979   5.212   0.434  13.066
  190SAPI  H19R21980   5.169   0.350  13.005
  190SAPI  H19S21981   5.284   0.393  13.139
  190SAPI  C22021982   5.275   0.529  12.973
  190SAPI  H20R21983   5.215   0.572  12.895
  190SAPI  H20S21984   5.318   0.444  12.926
  190SAPI  H20T21985   5.347   0.604  13.011
  190SAPI   C3321986   5.080   0.388  14.546
  190SAPI   H3X21987   5.044   0.459  14.621
  190SAPI   H3Y21988   4.985   0.343  14.514
  190SAPI   C3421989   5.137   0.472  14.428
  190SAPI   H4X21990   5.228   0.528  14.458
  190SAPI   H4Y21991   5.053   0.538  14.399
  190SAPI   C3521992   5.173   0.410  14.296
  190SAPI   H5X21993   5.080   0.372  14.258
  190SAPI   H5Y21994   5.254   0.335  14.311
  190SAPI   C3621995   5.181   0.500  14.172
  190SAPI   H6X21996   5.265   0.563  14.204
  190SAPI   H6Y21997   5.094   0.566  14.168
  190SAPI   C3721998   5.202   0.425  14.037
  190SAPI   H7X21999   5.117   0.370  13.996
  190SAPI   H7Y22000   5.263   0.335  14.060
  190SAPI   C3822001   5.251   0.517  13.921
  190SAPI   H8X22002   5.356   0.552  13.939
  190SAPI   H8Y22003   5.189   0.608  13.919
  190SAPI   C3922004   5.243   0.446  13.784
  190SAPI   H9X22005   5.148   0.390  13.776
  190SAPI   H9Y22006   5.320   0.371  13.776
  190SAPI  C31022007   5.289   0.520  13.660
  190SAPI  H10X22008   5.280   0.453  13.571
  190SAPI  H10Y22009   5.395   0.549  13.671
  190SAPI  C31122010   5.199   0.637  13.640
  190SAPI  H11X22011   5.207   0.710  13.725
  190SAPI  H11Y22012   5.096   0.595  13.641
  190SAPI  C31222013   5.217   0.705  13.508
  190SAPI  H12X22014   5.223   0.635  13.422
  190SAPI  H12Y22015   5.307   0.766  13.510
  190SAPI  C31322016   5.101   0.797  13.492
  190SAPI  H13X22017   5.081   0.854  13.586
  190SAPI  H13Y22018   5.011   0.735  13.476
  190SAPI  C31422019   5.112   0.888  13.370
  190SAPI  H14X22020   5.048   0.963  13.399
  190SAPI  H14Y22021   5.081   0.830  13.283
  190SAPI  C31522022   5.227   0.978  13.338
  190SAPI  H15X22023   5.275   0.889  13.302
  190SAPI  H15Y22024   5.254   1.005  13.432
  190SAPI  C31622025   5.242   1.116  13.264
  190SAPI  H16X22026   5.339   1.163  13.271
  190SAPI  H16Y22027   5.187   1.199  13.313
  190SAPI  C31722028   5.238   1.103  13.114
  190SAPI  H17X22029   5.193   1.008  13.101
  190SAPI  H17Y22030   5.318   1.053  13.060
  190SAPI  C31822031   5.185   1.223  13.037
  190SAPI  H18X22032   5.264   1.297  13.021
  190SAPI  H18Y22033   5.095   1.273  13.076
  190SAPI  H18Z22034   5.152   1.187  12.937
  191SAPI   C1222035   1.187   6.054  10.378
  191SAPI    H222036   1.117   6.080  10.461
  191SAPI    O222037   1.174   5.915  10.351
  191SAPI   HO222038   1.163   5.870  10.436
  191SAPI   C1322039   1.143   6.132  10.255
  191SAPI    H322040   1.150   6.240  10.278
  191SAPI    O322041   1.005   6.104  10.229
  191SAPI   HO322042   0.981   6.015  10.262
  191SAPI   C1422043   1.238   6.102  10.139
  191SAPI    H422044   1.231   5.994  10.113
  191SAPI    O422045   1.201   6.175  10.020
  191SAPI   HO422046   1.213   6.114   9.947
  191SAPI   C1522047   1.382   6.136  10.179
  191SAPI    H522048   1.388   6.245  10.202
  191SAPI    O522049   1.477   6.108  10.075
  191SAPI   HO522050   1.506   6.192  10.038
  191SAPI   C1622051   1.425   6.060  10.305
  191SAPI    H622052   1.422   5.951  10.285
  191SAPI    O622053   1.560   6.096  10.337
  191SAPI   HO622054   1.599   6.120  10.253
  191SAPI   C1122055   1.330   6.091  10.419
  191SAPI    H122056   1.336   6.202  10.438
  191SAPI     P22057   1.317   6.069  10.685
  191SAPI   O1322058   1.171   6.052  10.692
  191SAPI   O1422059   1.370   6.206  10.708
  191SAPI   O1222060   1.371   6.019  10.537
  191SAPI   O1122061   1.393   5.971  10.784
  191SAPI    C122062   1.396   5.831  10.758
  191SAPI    HA22063   1.299   5.793  10.717
  191SAPI    HB22064   1.477   5.809  10.684
  191SAPI    C222065   1.426   5.750  10.887
  191SAPI    HS22066   1.396   5.644  10.871
  191SAPI   O2122067   1.355   5.799  10.999
  191SAPI   C2122068   1.225   5.793  10.998
  191SAPI   O2222069   1.153   5.730  10.922
  191SAPI   C2222070   1.180   5.883  11.109
  191SAPI   H2R22071   1.081   5.853  11.149
  191SAPI   H2S22072   1.255   5.879  11.190
  191SAPI    C322073   1.576   5.755  10.924
  191SAPI    HX22074   1.632   5.705  10.843
  191SAPI    HY22075   1.589   5.691  11.015
  191SAPI   O3122076   1.629   5.890  10.939
  191SAPI   C3122077   1.638   5.933  11.064
  191SAPI   O3222078   1.614   5.865  11.162
  191SAPI   C3222079   1.702   6.073  11.068
  191SAPI   H2X22080   1.648   6.143  11.002
  191SAPI   H2Y22081   1.806   6.064  11.033
  191SAPI   C2322082   1.177   6.021  11.046
  191SAPI   H3R22083   1.109   6.024  10.957
  191SAPI   H3S22084   1.280   6.044  11.007
  191SAPI   C2422085   1.138   6.131  11.144
  191SAPI   H4R22086   1.130   6.221  11.081
  191SAPI   H4S22087   1.225   6.144  11.213
  191SAPI   C2522088   1.006   6.115  11.216
  191SAPI   H5R22089   0.923   6.077  11.153
  191SAPI   C2622090   0.980   6.148  11.343
  191SAPI   H6R22091   0.877   6.135  11.381
  191SAPI   C2722092   1.079   6.208  11.440
  191SAPI   H7R22093   1.129   6.299  11.399
  191SAPI   H7S22094   1.160   6.134  11.461
  191SAPI   C2822095   1.009   6.252  11.566
  191SAPI   H8R22096   0.918   6.313  11.550
  191SAPI   C2922097   1.057   6.243  11.690
  191SAPI   H9R22098   0.991   6.274  11.772
  191SAPI  C21022099   1.191   6.187  11.731
  191SAPI  H10R22100   1.217   6.102  11.664
  191SAPI  H10S22101   1.184   6.144  11.833
  191SAPI  C21122102   1.300   6.292  11.724
  191SAPI  H11R22103   1.318   6.331  11.623
  191SAPI  C21222104   1.368   6.344  11.828
  191SAPI  H12R22105   1.450   6.415  11.807
  191SAPI  C21322106   1.352   6.310  11.974
  191SAPI  H13R22107   1.245   6.302  12.002
  191SAPI  H13S22108   1.392   6.395  12.034
  191SAPI  C21422109   1.422   6.183  12.012
  191SAPI  H14R22110   1.357   6.093  12.015
  191SAPI  C21522111   1.551   6.173  12.049
  191SAPI  H15R22112   1.593   6.071  12.059
  191SAPI  C21622113   1.651   6.286  12.061
  191SAPI  H16R22114   1.610   6.384  12.027
  191SAPI  H16S22115   1.738   6.264  11.995
  191SAPI  C21722116   1.705   6.307  12.204
  191SAPI  H17R22117   1.775   6.393  12.204
  191SAPI  H17S22118   1.766   6.217  12.229
  191SAPI  C21822119   1.600   6.330  12.318
  191SAPI  H18R22120   1.659   6.335  12.412
  191SAPI  H18S22121   1.531   6.244  12.323
  191SAPI  C21922122   1.513   6.458  12.313
  191SAPI  H19R22123   1.451   6.456  12.221
  191SAPI  H19S22124   1.582   6.544  12.302
  191SAPI  C22022125   1.422   6.484  12.435
  191SAPI  H20R22126   1.351   6.568  12.416
  191SAPI  H20S22127   1.481   6.514  12.524
  191SAPI  H20T22128   1.363   6.394  12.461
  191SAPI   C3322129   1.703   6.126  11.214
  191SAPI   H3X22130   1.756   6.224  11.218
  191SAPI   H3Y22131   1.762   6.054  11.275
  191SAPI   C3422132   1.562   6.143  11.274
  191SAPI   H4X22133   1.498   6.056  11.246
  191SAPI   H4Y22134   1.515   6.232  11.228
  191SAPI   C3522135   1.554   6.152  11.427
  191SAPI   H5X22136   1.448   6.133  11.455
  191SAPI   H5Y22137   1.579   6.255  11.462
  191SAPI   C3622138   1.645   6.057  11.507
  191SAPI   H6X22139   1.750   6.092  11.495
  191SAPI   H6Y22140   1.639   5.952  11.470
  191SAPI   C3722141   1.611   6.061  11.656
  191SAPI   H7X22142   1.509   6.018  11.670
  191SAPI   H7Y22143   1.605   6.168  11.686
  191SAPI   C3822144   1.714   5.990  11.743
  191SAPI   H8X22145   1.746   6.058  11.826
  191SAPI   H8Y22146   1.805   5.962  11.687
  191SAPI   C3922147   1.656   5.872  11.820
  191SAPI   H9X22148   1.577   5.911  11.887
  191SAPI   H9Y22149   1.738   5.843  11.885
  191SAPI  C31022150   1.585   5.764  11.738
  191SAPI  H10X22151   1.639   5.691  11.683
  191SAPI  H10Y22152   1.540   5.809  11.648
  191SAPI  C31122153   1.490   5.680  11.822
  191SAPI  H11X22154   1.536   5.656  11.920
  191SAPI  H11Y22155   1.475   5.583  11.769
  191SAPI  C31222156   1.355   5.750  11.833
  191SAPI  H12X22157   1.321   5.771  11.729
  191SAPI  H12Y22158   1.366   5.848  11.883
  191SAPI  C31322159   1.252   5.663  11.908
  191SAPI  H13X22160   1.239   5.571  11.847
  191SAPI  H13Y22161   1.155   5.717  11.913
  191SAPI  C31422162   1.298   5.623  12.050
  191SAPI  H14X22163   1.398   5.576  12.042
  191SAPI  H14Y22164   1.232   5.543  12.089
  191SAPI  C31522165   1.305   5.742  12.149
  191SAPI  H15X22166   1.203   5.781  12.169
  191SAPI  H15Y22167   1.362   5.824  12.101
  191SAPI  C31622168   1.374   5.710  12.283
  191SAPI  H16X22169   1.457   5.639  12.263
  191SAPI  H16Y22170   1.305   5.663  12.357
  191SAPI  C31722171   1.432   5.834  12.353
  191SAPI  H17X22172   1.351   5.895  12.399
  191SAPI  H17Y22173   1.488   5.895  12.279
  191SAPI  C31822174   1.526   5.794  12.462
  191SAPI  H18X22175   1.476   5.735  12.543
  191SAPI  H18Y22176   1.576   5.881  12.510
  191SAPI  H18Z22177   1.604   5.729  12.417
  192SAPI   C1222178   3.090   0.588  10.336
  192SAPI    H222179   3.185   0.620  10.386
  192SAPI    O222180   2.997   0.696  10.352
  192SAPI   HO222181   3.046   0.777  10.332
  192SAPI   C1322182   3.118   0.563  10.190
  192SAPI    H322183   3.197   0.486  10.182
  192SAPI    O322184   3.168   0.681  10.127
  192SAPI   HO322185   3.115   0.756  10.156
  192SAPI   C1422186   2.991   0.513  10.121
  192SAPI    H422187   2.913   0.592  10.137
  192SAPI    O422188   3.005   0.499   9.979
  192SAPI   HO422189   2.938   0.554   9.940
  192SAPI   C1522190   2.940   0.385  10.185
  192SAPI    H522191   3.016   0.305  10.174
  192SAPI    O522192   2.823   0.344  10.116
  192SAPI   HO522193   2.849   0.314  10.029
  192SAPI   C1622194   2.915   0.405  10.332
  192SAPI    H622195   2.835   0.482  10.347
  192SAPI    O622196   2.870   0.283  10.392
  192SAPI   HO622197   2.935   0.212  10.378
  192SAPI   C1122198   3.042   0.455  10.394
  192SAPI    H122199   3.123   0.377  10.377
  192SAPI     P22200   3.126   0.424  10.635
  192SAPI   O1322201   3.241   0.510  10.609
  192SAPI   O1422202   3.151   0.280  10.638
  192SAPI   O1222203   3.012   0.473  10.531
  192SAPI   O1122204   3.058   0.467  10.769
  192SAPI    C122205   2.928   0.510  10.776
  192SAPI    HA22206   2.912   0.606  10.718
  192SAPI    HB22207   2.853   0.435  10.741
  192SAPI    C222208   2.883   0.536  10.918
  192SAPI    HS22209   2.808   0.591  10.872
  192SAPI   O2122210   2.965   0.611  11.002
  192SAPI   C2122211   2.937   0.642  11.123
  192SAPI   O2222212   2.838   0.635  11.192
  192SAPI   C2222213   3.049   0.693  11.183
  192SAPI   H2R22214   3.102   0.610  11.220
  192SAPI   H2S22215   3.107   0.757  11.116
  192SAPI    C322216   2.842   0.415  11.002
  192SAPI    HX22217   2.753   0.386  10.941
  192SAPI    HY22218   2.808   0.430  11.105
  192SAPI   O3122219   2.929   0.334  11.006
  192SAPI   C3122220   2.873   0.225  10.935
  192SAPI   O3222221   2.755   0.188  10.953
  192SAPI   C3222222   2.971   0.176  10.843
  192SAPI   H2X22223   3.064   0.246  10.851
  192SAPI   H2Y22224   2.925   0.098  10.775
  192SAPI   C2322225   3.004   0.723  11.319
  192SAPI   H3R22226   2.927   0.678  11.382
  192SAPI   H3S22227   2.934   0.802  11.276
  192SAPI   C2422228   3.126   0.733  11.419
  192SAPI   H4R22229   3.075   0.759  11.513
  192SAPI   H4S22230   3.201   0.810  11.392
  192SAPI   C2522231   3.219   0.632  11.467
  192SAPI   H5R22232   3.132   0.584  11.508
  192SAPI   C2622233   3.282   0.630  11.582
  192SAPI   H6R22234   3.326   0.535  11.608
  192SAPI   C2722235   3.271   0.724  11.695
  192SAPI   H7R22236   3.267   0.824  11.666
  192SAPI   H7S22237   3.371   0.727  11.740
  192SAPI   C2822238   3.161   0.700  11.796
  192SAPI   H8R22239   3.086   0.778  11.817
  192SAPI   C2922240   3.166   0.603  11.886
  192SAPI   H9R22241   3.086   0.596  11.961
  192SAPI  C21022242   3.273   0.501  11.907
  192SAPI  H10R22243   3.287   0.497  12.016
  192SAPI  H10S22244   3.373   0.517  11.859
  192SAPI  C21122245   3.185   0.395  11.852
  192SAPI  H11R22246   3.224   0.348  11.759
  192SAPI  C21222247   3.107   0.324  11.935
  192SAPI  H12R22248   3.060   0.230  11.900
  192SAPI  C21322249   3.106   0.338  12.084
  192SAPI  H13R22250   3.021   0.274  12.119
  192SAPI  H13S22251   3.121   0.434  12.131
  192SAPI  C21422252   3.201   0.259  12.154
  192SAPI  H14R22253   3.206   0.185  12.081
  192SAPI  C21522254   3.295   0.254  12.245
  192SAPI  H15R22255   3.362   0.169  12.280
  192SAPI  C21622256   3.321   0.368  12.306
  192SAPI  H16R22257   3.314   0.447  12.228
  192SAPI  H16S22258   3.421   0.331  12.326
  192SAPI  C21722259   3.274   0.412  12.425
  192SAPI  H17R22260   3.170   0.403  12.412
  192SAPI  H17S22261   3.295   0.521  12.419
  192SAPI  C21822262   3.332   0.323  12.531
  192SAPI  H18R22263   3.430   0.334  12.578
  192SAPI  H18S22264   3.396   0.244  12.492
  192SAPI  C21922265   3.224   0.340  12.637
  192SAPI  H19R22266   3.171   0.247  12.617
  192SAPI  H19S22267   3.162   0.429  12.614
  192SAPI  C22022268   3.250   0.368  12.783
  192SAPI  H20R22269   3.316   0.445  12.829
  192SAPI  H20S22270   3.326   0.298  12.790
  192SAPI  H20T22271   3.165   0.338  12.845
  192SAPI   C3322272   2.969   0.106  10.948
  192SAPI   H3X22273   3.073   0.084  10.897
  192SAPI   H3Y22274   2.867   0.027  10.967
  192SAPI   C3422275   3.078   0.119  11.051
  192SAPI   H4X22276   3.111   0.214  11.044
  192SAPI   H4Y22277   3.197   0.062  10.999
  192SAPI   C3522278   3.006   0.133  11.242
  192SAPI   H5X22279   3.079   0.149  11.338
  192SAPI   H5Y22280   3.019   0.053  11.328
  192SAPI   C3622281   2.956   0.251  11.330
  192SAPI   H6X22282   2.854   0.219  11.307
  192SAPI   H6Y22283   2.987   0.350  11.294
  192SAPI   C3722284   2.954   0.252  11.487
  192SAPI   H7X22285   3.048   0.265  11.548
  192SAPI   H7Y22286   2.899   0.165  11.530
  192SAPI   C3822287   2.877   0.375  11.515
  192SAPI   H8X22288   2.783   0.382  11.454
  192SAPI   H8Y22289   2.936   0.470  11.498
  192SAPI   C3922290   2.831   0.375  11.649
  192SAPI   H9X22291   2.908   0.360  11.733
  192SAPI   H9Y22292   2.762   0.290  11.665
  192SAPI  C31022293   2.772   0.510  11.621
  192SAPI  H10X22294   2.671   0.526  11.583
  192SAPI  H10Y22295   2.825   0.606  11.590
  192SAPI  C31122296   2.788   0.508  11.750
  192SAPI  H11X22297   2.753   0.629  11.751
  192SAPI  H11Y22298   2.877   0.575  11.780
  192SAPI  C31222299   2.724   0.354  11.898
  192SAPI  H12X22300   2.755   0.256  11.884
  192SAPI  H12Y22301   2.607   0.322  11.903
  192SAPI  C31322302   2.729   0.353  12.088
  192SAPI  H13X22303   2.653   0.352  12.167
  192SAPI  H13Y22304   2.627   0.387  12.063
  192SAPI  C31422305   2.833   0.443  12.210
  192SAPI  H14X22306   2.869   0.552  12.199
  192SAPI  H14Y22307   2.927   0.422  12.187
  192SAPI  C31522308   2.816   0.525  12.341
  192SAPI  H15X22309   2.733   0.599  12.354
  192SAPI  H15Y22310   2.903   0.586  12.376
  192SAPI  C31622311   2.810   0.395  12.399
  192SAPI  H16X22312   2.737   0.326  12.345
  192SAPI  H16Y22313   2.791   0.423  12.501
  192SAPI  C31722314   2.925   0.308  12.398
  192SAPI  H17X22315   3.002   0.376  12.428
  192SAPI  H17Y22316   2.938   0.252  12.302
  192SAPI  C31822317   2.896   0.219  12.509
  192SAPI  H18X22318   2.978   0.150  12.513
  192SAPI  H18Y22319   2.802   0.165  12.493
  192SAPI  H18Z22320   2.887   0.265  12.609
  193SOD    SOD22321   1.637   2.392  16.034
  194SOD    SOD22322   1.925   4.876  16.936
  195SOD    SOD22323   5.361   3.011  16.822
  196SOD    SOD22324   4.923   4.965  16.424
  197SOD    SOD22325   3.875   4.902   9.081
  198SOD    SOD22326   2.043   3.477   9.990
  199SOD    SOD22327   2.440   0.469   9.116
  200SOD    SOD22328   1.462   2.208  10.186
  201SOD    SOD22329   1.748   1.787   9.404
  202SOD    SOD22330   1.447   2.329   8.801
  203SOD    SOD22331   6.620   3.722  16.124
  204SOD    SOD22332   6.159   1.137  16.237
  205SOD    SOD22333   3.538   3.784  15.490
  206SOD    SOD22334   5.435   2.694   9.380
  207SOD    SOD22335   2.491   2.676  15.043
  208SOD    SOD22336   5.435   5.758   9.748
  209SOD    SOD22337   0.669   4.447  16.510
  210SOD    SOD22338   2.374   2.462  16.114
  211SOD    SOD22339   1.106   0.276  16.948
  212SOD    SOD22340   4.699   0.828  16.915
  213SOD    SOD22341   2.059   5.118  16.406
  214SOD    SOD22342   3.030   0.653  16.285
  215SOD    SOD22343   3.286   1.527  16.388
  216SOD    SOD22344   3.493   2.802  16.163
  217SOD    SOD22345   1.140   6.708   9.967
  218SOD    SOD22346   0.511   3.492  16.988
  219SOD    SOD22347   4.500   6.272   9.904
  220SOD    SOD22348   6.321   2.767   9.097
  221SOD    SOD22349   5.191   4.576   8.913
  222SOD    SOD22350   1.736   6.533  15.615
  223SOD    SOD22351   2.311   7.373  16.227
  224SOD    SOD22352   0.289   0.630  10.364
  225SOD    SOD22353   0.583   6.176  15.830
  226SOD    SOD22354   3.836   5.256   8.465
  227SOD    SOD22355   1.133   4.277  15.738
  228SOD    SOD22356   5.356   0.596   8.781
  229SOD    SOD22357   5.914   5.895  16.575
  230CLA    CLA22358   2.280   0.486  16.741
  231CLA    CLA22359   5.218   0.288  16.398
  232CLA    CLA22360   6.123   6.657   8.637
  233CLA    CLA22361   4.283   5.020   8.917
  234CLA    CLA22362   6.139   4.317  16.713
  235CLA    CLA22363   4.820   6.188   8.783
  236CLA    CLA22364   4.239   1.374  16.352
  237CLA    CLA22365   1.536   4.038  10.105
  238CLA    CLA22366   5.699   2.149  10.044
  239CLA    CLA22367   2.640   6.523  15.267
  240CLA    CLA22368   1.458   3.962  17.041
  241CLA    CLA22369   4.968   3.391  16.742
  242CLA    CLA22370   1.936   0.829  16.883
  243CLA    CLA22371   4.973   1.099   8.812
  244CLA    CLA22372   6.820   3.624  16.939
  245CLA    CLA22373   1.410   1.674  15.949
  246CLA    CLA22374   4.500   5.153   9.810
  247TIP3   OH222375   4.001   4.143  14.778
  247TIP3    H122376   3.996   4.235  14.752
  247TIP3    H222377   3.968   4.099  14.698
  248TIP3   OH222378   3.798   3.900  14.877
  248TIP3    H122379   3.843   3.956  14.812
  248TIP3    H222380   3.827   3.812  14.857
  249TIP3   OH222381   3.132   4.260  14.815
  249TIP3    H122382   3.066   4.253  14.886
  249TIP3    H222383   3.090   4.204  14.749
  250TIP3   OH222384   2.990   3.849  14.777
  250TIP3    H122385   2.944   3.801  14.847
  250TIP3    H222386   3.069   3.792  14.765
  251TIP3   OH222387   3.497   4.736  14.874
  251TIP3    H122388   3.590   4.710  14.868
  251TIP3    H222389   3.465   4.741  14.782
  252TIP3   OH222390   4.360   4.560  14.842
  252TIP3    H122391   4.329   4.487  14.895
  252TIP3    H222392   4.281   4.588  14.794
  253TIP3   OH222393   4.432   4.860  14.619
  253TIP3    H122394   4.437   4.943  14.567
  253TIP3    H222395   4.517   4.821  14.599
  254TIP3   OH222396   4.009   4.583  14.805
  254TIP3    H122397   3.995   4.656  14.866
  254TIP3    H222398   4.062   4.627  14.735
  255TIP3   OH222399   4.434   5.096  14.490
  255TIP3    H122400   4.506   5.150  14.522
  255TIP3    H222401   4.363   5.117  14.552
  256TIP3   OH222402   2.832   2.463  14.661
  256TIP3    H122403   2.742   2.426  14.663
  256TIP3    H222404   2.884   2.384  14.675
  257TIP3   OH222405   3.184   2.919  14.673
  257TIP3    H122406   3.177   2.940  14.765
  257TIP3    H222407   3.141   2.832  14.664
  258TIP3   OH222408   2.766   2.774  14.744
  258TIP3    H122409   2.805   2.860  14.759
  258TIP3    H222410   2.826   2.742  14.673
  259TIP3   OH222411   4.823   2.773  14.738
  259TIP3    H122412   4.911   2.785  14.772
  259TIP3    H222413   4.768   2.778  14.816
  260TIP3   OH222414   4.807   2.438  14.757
  260TIP3    H122415   4.742   2.469  14.692
  260TIP3    H222416   4.818   2.514  14.813
  261TIP3   OH222417   2.350   2.608  14.812
  261TIP3    H122418   2.277   2.621  14.746
  261TIP3    H222419   2.423   2.623  14.752
  262TIP3   OH222420   5.450   3.757  14.832
  262TIP3    H122421   5.444   3.813  14.752
  262TIP3    H222422   5.379   3.791  14.887
  263TIP3   OH222423   5.686   3.995  14.692
  263TIP3    H122424   5.672   4.089  14.702
  263TIP3    H222425   5.605   3.966  14.648
  264TIP3   OH222426   5.154   3.929  14.701
  264TIP3    H122427   5.091   3.861  14.725
  264TIP3    H222428   5.103   4.005  14.670
  265TIP3   OH222429   4.698   5.279  14.796
  265TIP3    H122430   4.645   5.241  14.867
  265TIP3    H222431   4.768   5.326  14.841
  266TIP3   OH222432   4.777   1.837  14.838
  266TIP3    H122433   4.820   1.922  14.823
  266TIP3    H222434   4.741   1.819  14.751
  267TIP3   OH222435   4.069   1.456  14.622
  267TIP3    H122436   4.134   1.386  14.607
  267TIP3    H222437   4.106   1.533  14.577
  268TIP3   OH222438   2.704   6.246  14.908
  268TIP3    H122439   2.798   6.245  14.889
  268TIP3    H222440   2.703   6.256  15.004
  269TIP3   OH222441   2.441   6.213  14.752
  269TIP3    H122442   2.502   6.216  14.827
  269TIP3    H222443   2.490   6.272  14.690
  270TIP3   OH222444   1.479   5.354  14.811
  270TIP3    H122445   1.410   5.289  14.802
  270TIP3    H222446   1.472   5.408  14.732
  271TIP3   OH222447   1.226   5.721  14.745
  271TIP3    H122448   1.289   5.782  14.785
  271TIP3    H222449   1.140   5.759  14.768
  272TIP3   OH222450   2.051   6.189  14.721
  272TIP3    H122451   2.074   6.170  14.812
  272TIP3    H222452   2.137   6.198  14.677
  273TIP3   OH222453   1.684   6.511  14.751
  273TIP3    H122454   1.738   6.442  14.706
  273TIP3    H222455   1.597   6.470  14.755
  274TIP3   OH222456   4.122   0.504  14.902
  274TIP3    H122457   4.107   0.567  14.833
  274TIP3    H222458   4.039   0.499  14.948
  275TIP3   OH222459   4.534   0.527  14.708
  275TIP3    H122460   4.501   0.502  14.794
  275TIP3    H222461   4.453   0.562  14.666
  276TIP3   OH222462   2.434   0.407  14.760
  276TIP3    H122463   2.477   0.343  14.818
  276TIP3    H222464   2.405   0.470  14.825
  277TIP3   OH222465   2.864   0.662  14.746
  277TIP3    H122466   2.786   0.684  14.798
  277TIP3    H222467   2.831   0.586  14.697
  278TIP3   OH222468   2.190   0.644  14.671
  278TIP3    H122469   2.260   0.706  14.688
  278TIP3    H222470   2.228   0.558  14.694
  279TIP3   OH222471   1.788   0.429  14.694
  279TIP3    H122472   1.827   0.517  14.686
  279TIP3    H222473   1.707   0.439  14.642
  280TIP3   OH222474   1.737   0.828  14.776
  280TIP3    H122475   1.748   0.783  14.859
  280TIP3    H222476   1.799   0.790  14.713
  281TIP3   OH222477   6.962   2.507  14.645
  281TIP3    H122478   7.029   2.440  14.661
  281TIP3    H222479   7.015   2.583  14.618
  282TIP3   OH222480   7.250   2.580  14.829
  282TIP3    H122481   7.267   2.640  14.755
  282TIP3    H222482   7.224   2.499  14.782
  283TIP3   OH222483   0.379   5.131  14.710
  283TIP3    H122484   0.435   5.144  14.786
  283TIP3    H222485   0.333   5.049  14.726
  284TIP3   OH222486   1.450   6.706  14.663
  284TIP3    H122487   1.476   6.765  14.736
  284TIP3    H222488   1.525   6.711  14.603
  285TIP3   OH222489   1.394   6.446  14.728
  285TIP3    H122490   1.455   6.404  14.667
  285TIP3    H222491   1.399   6.541  14.705
  286TIP3   OH222492   1.089   6.444  14.782
  286TIP3    H122493   1.175   6.463  14.740
  286TIP3    H222494   1.115   6.439  14.873
  287TIP3   OH222495   0.004   1.645  14.686
  287TIP3    H122496  -0.066   1.584  14.654
  287TIP3    H222497   0.082   1.613  14.645
  288TIP3   OH222498   6.875   1.474  14.654
  288TIP3    H122499   6.844   1.383  14.660
  288TIP3    H222500   6.957   1.471  14.605
  289TIP3   OH222501   1.361   0.127  14.828
  289TIP3    H122502   1.404   0.063  14.770
  289TIP3    H222503   1.272   0.123  14.791
  290TIP3   OH222504   0.385   6.927  14.817
  290TIP3    H122505   0.351   7.015  14.803
  290TIP3    H222506   0.363   6.875  14.737
  291TIP3   OH222507   0.119   6.648  14.795
  291TIP3    H122508   0.089   6.654  14.886
  291TIP3    H222509   0.039   6.621  14.748
  292TIP3   OH222510   0.380   6.572  14.902
  292TIP3    H122511   0.363   6.660  14.861
  292TIP3    H222512   0.357   6.512  14.832
  293TIP3   OH222513   0.003   0.634  14.716
  293TIP3    H122514   0.096   0.658  14.696
  293TIP3    H222515  -0.006   0.546  14.677
  294TIP3   OH222516   0.302   1.020  14.690
  294TIP3    H122517   0.324   1.106  14.656
  294TIP3    H222518   0.321   1.030  14.785
  295TIP3   OH222519   0.381   0.595  14.830
  295TIP3    H122520   0.359   0.653  14.754
  295TIP3    H222521   0.472   0.573  14.811
  296TIP3   OH222522   3.859   3.553  10.924
  296TIP3    H122523   3.949   3.578  10.940
  296TIP3    H222524   3.863   3.463  10.892
  297TIP3   OH222525   3.704   3.080  10.638
  297TIP3    H122526   3.750   3.000  10.663
  297TIP3    H222527   3.685   3.126  10.720
  298TIP3   OH222528   3.486   3.339  10.706
  298TIP3    H122529   3.424   3.271  10.734
  298TIP3    H222530   3.560   3.321  10.766
  299TIP3   OH222531   4.037   4.577  10.645
  299TIP3    H122532   3.957   4.579  10.595
  299TIP3    H222533   4.011   4.623  10.727
  300TIP3   OH222534   3.804   4.914  10.802
  300TIP3    H122535   3.847   4.958  10.729
  300TIP3    H222536   3.720   4.959  10.812
  301TIP3   OH222537   3.205   4.517  10.777
  301TIP3    H122538   3.296   4.485  10.771
  301TIP3    H222539   3.217   4.597  10.830
  302TIP3   OH222540   2.992   4.964  10.722
  302TIP3    H122541   2.925   5.011  10.773
  302TIP3    H222542   2.960   4.978  10.633
  303TIP3   OH222543   4.046   2.729  10.817
  303TIP3    H122544   3.989   2.767  10.751
  303TIP3    H222545   4.005   2.641  10.836
  304TIP3   OH222546   4.348   5.363  10.807
  304TIP3    H122547   4.262   5.336  10.777
  304TIP3    H222548   4.396   5.281  10.831
  305TIP3   OH222549   4.715   5.288  10.720
  305TIP3    H122550   4.675   5.366  10.761
  305TIP3    H222551   4.681   5.218  10.777
  306TIP3   OH222552   2.497   4.784  10.738
  306TIP3    H122553   2.527   4.701  10.771
  306TIP3    H222554   2.497   4.771  10.643
  307TIP3   OH222555   3.336   1.579  10.663
  307TIP3    H122556   3.253   1.558  10.621
  307TIP3    H222557   3.375   1.491  10.676
  308TIP3   OH222558   3.674   1.884  10.833
  308TIP3    H122559   3.692   1.794  10.799
  308TIP3    H222560   3.584   1.874  10.867
  309TIP3   OH222561   3.471   1.802  10.563
  309TIP3    H122562   3.465   1.710  10.593
  309TIP3    H222563   3.453   1.851  10.643
  310TIP3   OH222564   5.445   4.554  10.704
  310TIP3    H122565   5.470   4.540  10.612
  310TIP3    H222566   5.381   4.625  10.698
  311TIP3   OH222567   2.848   5.871  10.827
  311TIP3    H122568   2.755   5.861  10.847
  311TIP3    H222569   2.884   5.812  10.895
  312TIP3   OH222570   3.139   5.632  10.664
  312TIP3    H122571   3.172   5.545  10.639
  312TIP3    H222572   3.135   5.681  10.582
  313TIP3   OH222573   4.473   5.938  10.769
  313TIP3    H122574   4.392   5.954  10.823
  313TIP3    H222575   4.515   6.023  10.767
  314TIP3   OH222576   5.796   2.733  10.734
  314TIP3    H122577   5.758   2.817  10.755
  314TIP3    H222578   5.890   2.751  10.719
  315TIP3   OH222579   6.248   2.853  10.801
  315TIP3    H122580   6.159   2.880  10.829
  315TIP3    H222581   6.243   2.850  10.705
  316TIP3   OH222582   5.920   3.299  10.874
  316TIP3    H122583   5.849   3.357  10.844
  316TIP3    H222584   5.902   3.216  10.831
  317TIP3   OH222585   5.298   5.794  10.784
  317TIP3    H122586   5.361   5.777  10.854
  317TIP3    H222587   5.214   5.819  10.826
  318TIP3   OH222588   5.958   5.225  10.735
  318TIP3    H122589   5.966   5.133  10.765
  318TIP3    H222590   5.893   5.260  10.795
  319TIP3   OH222591   2.785   6.130  10.890
  319TIP3    H122592   2.748   6.220  10.896
  319TIP3    H222593   2.820   6.126  10.802
  320TIP3   OH222594   5.707   5.586  10.671
  320TIP3    H122595   5.772   5.532  10.630
  320TIP3    H222596   5.622   5.548  10.636
  321TIP3   OH222597   0.873   5.384  10.703
  321TIP3    H122598   0.821   5.319  10.657
  321TIP3    H222599   0.915   5.336  10.776
  322TIP3   OH222600   4.728   6.593  10.627
  322TIP3    H122601   4.742   6.596  10.723
  322TIP3    H222602   4.659   6.657  10.612
  323TIP3   OH222603   5.016   6.481  10.870
  323TIP3    H122604   4.982   6.392  10.873
  323TIP3    H222605   4.940   6.537  10.893
  324TIP3   OH222606   1.215   1.766  10.668
  324TIP3    H122607   1.247   1.733  10.754
  324TIP3    H222608   1.285   1.747  10.607
  325TIP3   OH222609   1.508   1.467  10.728
  325TIP3    H122610   1.437   1.428  10.677
  325TIP3    H222611   1.570   1.505  10.665
  326TIP3   OH222612   6.958   3.033  10.732
  326TIP3    H122613   6.946   3.031  10.636
  326TIP3    H222614   7.032   2.971  10.742
  327TIP3   OH222615   5.537   0.217  10.775
  327TIP3    H122616   5.487   0.288  10.735
  327TIP3    H222617   5.617   0.205  10.720
  328TIP3   OH222618   1.411   6.800  10.776
  328TIP3    H122619   1.335   6.764  10.826
  328TIP3    H222620   1.404   6.758  10.691
  329TIP3   OH222621   6.736   0.631  10.792
  329TIP3    H122622   6.818   0.666  10.758
  329TIP3    H222623   6.698   0.708  10.840
  330TIP3   OH222624   1.805   0.267  10.693
  330TIP3    H122625   1.797   0.362  10.714
  330TIP3    H222626   1.718   0.270  10.647
  331TIP3   OH222627   0.224   6.780  10.764
  331TIP3    H122628   0.130   6.790  10.744
  331TIP3    H222629   0.263   6.868  10.754
  332TIP3   OH222630   0.521   6.731  10.632
  332TIP3    H122631   0.604   6.685  10.616
  332TIP3    H222632   0.459   6.657  10.617
  333TIP3   OH222633   0.236   6.609  10.542
  333TIP3    H122634   0.148   6.575  10.532
  333TIP3    H222635   0.233   6.661  10.625
  334TIP3   OH222636   7.294   6.886  10.801
  334TIP3    H122637   7.274   6.861  10.710
  334TIP3    H222638   7.306   6.982  10.793
  335TIP3   OH222639   6.909   6.724  10.623
  335TIP3    H122640   6.875   6.635  10.634
  335TIP3    H222641   6.914   6.751  10.716
  336TIP3   OH222642   1.172   1.042  15.426
  336TIP3    H122643   1.173   1.140  15.424
  336TIP3    H222644   1.100   1.021  15.365
  337TIP3   OH222645   1.058   0.967  15.775
  337TIP3    H122646   1.057   0.904  15.848
  337TIP3    H222647   1.023   0.915  15.701
  338TIP3   OH222648   0.297   0.934  15.928
  338TIP3    H122649   0.302   0.865  15.998
  338TIP3    H222650   0.370   0.992  15.953
  339TIP3   OH222651   1.426   1.258  15.604
  339TIP3    H122652   1.384   1.190  15.657
  339TIP3    H222653   1.431   1.332  15.669
  340TIP3   OH222654   0.381   1.379  15.782
  340TIP3    H122655   0.351   1.293  15.750
  340TIP3    H222656   0.477   1.362  15.785
  341TIP3   OH222657   0.070   0.737  15.302
  341TIP3    H122658   0.021   0.818  15.332
  341TIP3    H222659  -0.003   0.681  15.288
  342TIP3   OH222660   0.119   0.953  15.541
  342TIP3    H122661   0.146   0.877  15.593
  342TIP3    H222662   0.192   0.967  15.480
  343TIP3   OH222663   1.138   1.778  15.627
  343TIP3    H122664   1.204   1.709  15.600
  343TIP3    H222665   1.119   1.744  15.715
  344TIP3   OH222666   0.895   1.206  15.823
  344TIP3    H122667   0.929   1.144  15.757
  344TIP3    H222668   0.976   1.221  15.875
  345TIP3   OH222669   1.756   0.372  15.895
  345TIP3    H122670   1.772   0.433  15.971
  345TIP3    H222671   1.810   0.416  15.828
  346TIP3   OH222672   1.212   0.654  15.856
  346TIP3    H122673   1.227   0.557  15.856
  346TIP3    H222674   1.202   0.668  15.760
  347TIP3   OH222675   0.528   0.465  15.575
  347TIP3    H122676   0.535   0.550  15.526
  347TIP3    H222677   0.483   0.408  15.508
  348TIP3   OH222678   1.299   0.471  15.416
  348TIP3    H122679   1.365   0.442  15.482
  348TIP3    H222680   1.350   0.528  15.356
  349TIP3   OH222681   0.189   0.702  15.642
  349TIP3    H122682   0.255   0.650  15.692
  349TIP3    H222683   0.204   0.670  15.552
  350TIP3   OH222684   0.700   0.858  15.581
  350TIP3    H122685   0.768   0.801  15.621
  350TIP3    H222686   0.651   0.793  15.528
  351TIP3   OH222687   1.797   0.511  16.123
  351TIP3    H122688   1.738   0.589  16.113
  351TIP3    H222689   1.805   0.506  16.219
  352TIP3   OH222690   0.414   0.356  15.980
  352TIP3    H122691   0.386   0.410  15.904
  352TIP3    H222692   0.344   0.377  16.047
  353TIP3   OH222693   1.145   1.302  15.334
  353TIP3    H122694   1.116   1.276  15.246
  353TIP3    H222695   1.112   1.395  15.339
  354TIP3   OH222696   0.668   1.117  16.004
  354TIP3    H122697   0.595   1.180  16.026
  354TIP3    H222698   0.737   1.178  15.974
  355TIP3   OH222699   1.479   0.406  15.612
  355TIP3    H122700   1.456   0.330  15.666
  355TIP3    H222701   1.547   0.448  15.668
  356TIP3   OH222702   0.370   0.535  15.781
  356TIP3    H122703   0.430   0.605  15.816
  356TIP3    H222704   0.425   0.497  15.709
  357TIP3   OH222705   0.509   1.317  16.084
  357TIP3    H122706   0.504   1.409  16.052
  357TIP3    H222707   0.421   1.309  16.128
  358TIP3   OH222708   0.122   1.284  15.160
  358TIP3    H122709   0.090   1.313  15.073
  358TIP3    H222710   0.122   1.364  15.215
  359TIP3   OH222711   1.478   1.428  15.821
  359TIP3    H122712   1.388   1.452  15.852
  359TIP3    H222713   1.508   1.522  15.820
  360TIP3   OH222714   1.514   0.276  15.987
  360TIP3    H122715   1.440   0.335  15.968
  360TIP3    H222716   1.583   0.312  15.928
  361TIP3   OH222717   0.835   0.107  15.723
  361TIP3    H122718   0.825   0.011  15.721
  361TIP3    H222719   0.744   0.130  15.745
  362TIP3   OH222720   1.304   1.624  15.495
  362TIP3    H122721   1.350   1.550  15.451
  362TIP3    H222722   1.349   1.702  15.458
  363TIP3   OH222723   1.425   1.418  15.353
  363TIP3    H122724   1.401   1.346  15.291
  363TIP3    H222725   1.429   1.368  15.436
  364TIP3   OH222726   1.589   1.275  16.202
  364TIP3    H122727   1.602   1.211  16.129
  364TIP3    H222728   1.609   1.360  16.156
  365TIP3   OH222729   1.043   0.965  15.178
  365TIP3    H122730   0.968   1.021  15.145
  365TIP3    H222731   1.110   0.981  15.111
  366TIP3   OH222732   1.777   0.908  16.005
  366TIP3    H122733   1.711   0.980  16.009
  366TIP3    H222734   1.827   0.931  15.924
  367TIP3   OH222735   1.379   0.981  15.268
  367TIP3    H122736   1.310   1.011  15.332
  367TIP3    H222737   1.431   0.920  15.322
  368TIP3   OH222738   1.376   0.802  16.182
  368TIP3    H122739   1.376   0.885  16.234
  368TIP3    H222740   1.313   0.831  16.113
  369TIP3   OH222741   0.545   1.053  15.463
  369TIP3    H122742   0.511   1.014  15.379
  369TIP3    H222743   0.607   0.984  15.495
  370TIP3   OH222744   0.675   1.389  15.729
  370TIP3    H122745   0.677   1.339  15.647
  370TIP3    H222746   0.754   1.355  15.775
  371TIP3   OH222747   0.578   0.927  15.828
  371TIP3    H122748   0.632   0.937  15.747
  371TIP3    H222749   0.616   0.994  15.889
  372TIP3   OH222750   1.194   1.476  15.891
  372TIP3    H122751   1.198   1.544  15.959
  372TIP3    H222752   1.190   1.393  15.943
  373TIP3   OH222753   0.672   1.370  16.297
  373TIP3    H122754   0.630   1.443  16.346
  373TIP3    H222755   0.605   1.350  16.227
  374TIP3   OH222756   0.371   0.987  16.217
  374TIP3    H122757   0.372   1.057  16.285
  374TIP3    H222758   0.277   0.993  16.190
  375TIP3   OH222759   1.041   1.578  15.382
  375TIP3    H122760   1.088   1.611  15.460
  375TIP3    H222761   0.986   1.653  15.359
  376TIP3   OH222762   0.497   1.572  16.371
  376TIP3    H122763   0.488   1.564  16.275
  376TIP3    H222764   0.404   1.561  16.400
  377TIP3   OH222765   1.642   0.087  15.016
  377TIP3    H122766   1.549   0.091  15.046
  377TIP3    H222767   1.655   0.173  14.976
  378TIP3   OH222768   0.447   0.957  15.219
  378TIP3    H122769   0.416   1.036  15.170
  378TIP3    H222770   0.375   0.895  15.206
  379TIP3   OH222771   0.093   1.189  16.091
  379TIP3    H122772   0.021   1.193  16.026
  379TIP3    H222773   0.066   1.104  16.131
  380TIP3   OH222774   0.043   1.487  15.771
  380TIP3    H122775   0.131   1.455  15.791
  380TIP3    H222776   0.024   1.545  15.845
  381TIP3   OH222777   1.848   1.541  16.356
  381TIP3    H122778   1.838   1.445  16.358
  381TIP3    H222779   1.762   1.566  16.398
  382TIP3   OH222780   0.944   1.493  16.248
  382TIP3    H122781   0.952   1.579  16.296
  382TIP3    H222782   0.856   1.459  16.272
  383TIP3   OH222783   0.988   1.872  15.227
  383TIP3    H122784   0.981   1.862  15.131
  383TIP3    H222785   0.995   1.967  15.243
  384TIP3   OH222786   0.352   1.759  15.407
  384TIP3    H122787   0.367   1.715  15.493
  384TIP3    H222788   0.271   1.714  15.380
  385TIP3   OH222789   1.563   0.689  16.406
  385TIP3    H122790   1.516   0.733  16.334
  385TIP3    H222791   1.563   0.597  16.375
  386TIP3   OH222792   0.280   1.335  16.209
  386TIP3    H122793   0.296   1.294  16.296
  386TIP3    H222794   0.195   1.292  16.181
  387TIP3   OH222795   0.542   0.194  15.807
  387TIP3    H122796   0.455   0.173  15.767
  387TIP3    H222797   0.524   0.275  15.856
  388TIP3   OH222798   1.009   0.141  16.138
  388TIP3    H122799   1.049   0.106  16.218
  388TIP3    H222800   0.913   0.135  16.155
  389TIP3   OH222801   1.339   0.525  16.228
  389TIP3    H122802   1.282   0.508  16.307
  389TIP3    H222803   1.322   0.618  16.205
  390TIP3   OH222804   0.558   0.674  15.928
  390TIP3    H122805   0.484   0.673  15.991
  390TIP3    H222806   0.550   0.765  15.890
  391TIP3   OH222807   0.554   0.682  15.415
  391TIP3    H122808   0.459   0.663  15.399
  391TIP3    H222809   0.592   0.656  15.328
  392TIP3   OH222810   1.103   0.734  15.288
  392TIP3    H122811   1.066   0.819  15.256
  392TIP3    H222812   1.175   0.717  15.225
  393TIP3   OH222813   1.010   0.757  16.434
  393TIP3    H122814   0.958   0.678  16.464
  393TIP3    H222815   1.094   0.745  16.481
  394TIP3   OH222816   1.209   0.686  15.573
  394TIP3    H122817   1.180   0.741  15.498
  394TIP3    H222818   1.217   0.600  15.527
  395TIP3   OH222819   0.321   0.697  16.095
  395TIP3    H122820   0.325   0.739  16.182
  395TIP3    H222821   0.274   0.614  16.114
  396TIP3   OH222822   0.004   0.434  15.488
  396TIP3    H122823   0.055   0.408  15.567
  396TIP3    H222824   0.036   0.370  15.421
  397TIP3   OH222825   0.124   0.500  15.040
  397TIP3    H122826   0.169   0.553  14.971
  397TIP3    H222827   0.046   0.552  15.056
  398TIP3   OH222828   1.128   0.843  16.030
  398TIP3    H122829   1.166   0.774  15.972
  398TIP3    H222830   1.081   0.790  16.097
  399TIP3   OH222831   0.806   0.435  15.514
  399TIP3    H122832   0.713   0.439  15.547
  399TIP3    H222833   0.857   0.426  15.595
  400TIP3   OH222834   0.298   0.594  15.399
  400TIP3    H122835   0.208   0.614  15.366
  400TIP3    H222836   0.319   0.508  15.359
  401TIP3   OH222837   0.647   0.601  15.170
  401TIP3    H122838   0.745   0.605  15.182
  401TIP3    H222839   0.632   0.666  15.100
  402TIP3   OH222840   1.249   0.364  15.836
  402TIP3    H122841   1.180   0.369  15.906
  402TIP3    H222842   1.199   0.339  15.757
  403TIP3   OH222843   1.570   1.928  16.476
  403TIP3    H122844   1.595   1.962  16.388
  403TIP3    H222845   1.643   1.961  16.531
  404TIP3   OH222846   0.340   1.175  16.426
  404TIP3    H122847   0.408   1.199  16.491
  404TIP3    H222848   0.261   1.185  16.484
  405TIP3   OH222849   0.937   0.715  15.702
  405TIP3    H122850   0.995   0.659  15.649
  405TIP3    H222851   0.921   0.661  15.781
  406TIP3   OH222852   0.435   0.336  15.341
  406TIP3    H122853   0.403   0.245  15.351
  406TIP3    H222854   0.517   0.328  15.292
  407TIP3   OH222855   0.800   0.547  15.945
  407TIP3    H122856   0.718   0.601  15.953
  407TIP3    H222857   0.856   0.584  16.016
  408TIP3   OH222858   0.865   1.156  15.117
  408TIP3    H122859   0.778   1.131  15.080
  408TIP3    H222860   0.837   1.191  15.204
  409TIP3   OH222861   1.578   1.093  15.994
  409TIP3    H122862   1.634   1.142  15.931
  409TIP3    H222863   1.492   1.099  15.948
  410TIP3   OH222864   1.008   1.198  16.238
  410TIP3    H122865   0.973   1.156  16.317
  410TIP3    H222866   0.982   1.291  16.250
  411TIP3   OH222867   1.310   0.656  15.109
  411TIP3    H122868   1.401   0.630  15.134
  411TIP3    H222869   1.324   0.718  15.038
  412TIP3   OH222870   0.372   1.113  15.694
  412TIP3    H122871   0.438   1.102  15.624
  412TIP3    H222872   0.377   1.027  15.740
  413TIP3   OH222873   1.074   1.317  15.027
  413TIP3    H122874   1.030   1.401  15.048
  413TIP3    H222875   0.995   1.260  15.037
  414TIP3   OH222876   0.093   0.929  16.194
  414TIP3    H122877   0.102   0.906  16.288
  414TIP3    H222878   0.008   0.888  16.172
  415TIP3   OH222879   0.770   0.908  16.437
  415TIP3    H122880   0.738   0.876  16.352
  415TIP3    H222881   0.863   0.876  16.437
  416TIP3   OH222882   1.239   1.437  16.235
  416TIP3    H122883   1.148   1.460  16.208
  416TIP3    H222884   1.236   1.471  16.326
  417TIP3   OH222885   1.807   0.661  15.071
  417TIP3    H122886   1.749   0.626  15.002
  417TIP3    H222887   1.810   0.755  15.050
  418TIP3   OH222888   1.805   1.243  16.353
  418TIP3    H122889   1.715   1.266  16.320
  418TIP3    H222890   1.859   1.239  16.271
  419TIP3   OH222891   1.356   1.023  15.823
  419TIP3    H122892   1.262   1.003  15.811
  419TIP3    H222893   1.398   0.947  15.779
  420TIP3   OH222894   0.606   1.458  15.438
  420TIP3    H122895   0.658   1.536  15.410
  420TIP3    H222896   0.520   1.479  15.398
  421TIP3   OH222897   0.751   1.223  15.388
  421TIP3    H122898   0.718   1.314  15.394
  421TIP3    H222899   0.677   1.174  15.428
  422TIP3   OH222900   0.796   1.642  16.026
  422TIP3    H122901   0.843   1.722  15.996
  422TIP3    H222902   0.860   1.607  16.091
  423TIP3   OH222903   0.615   1.721  15.347
  423TIP3    H122904   0.518   1.736  15.353
  423TIP3    H222905   0.653   1.807  15.370
  424TIP3   OH222906   1.143   1.236  15.987
  424TIP3    H122907   1.115   1.222  16.080
  424TIP3    H222908   1.211   1.169  15.971
  425TIP3   OH222909   1.425   1.703  16.244
  425TIP3    H122910   1.363   1.651  16.189
  425TIP3    H222911   1.447   1.765  16.171
  426TIP3   OH222912   0.234   0.421  16.171
  426TIP3    H122913   0.145   0.460  16.177
  426TIP3    H222914   0.221   0.337  16.220
  427TIP3   OH222915   1.456   1.215  15.140
  427TIP3    H122916   1.436   1.126  15.175
  427TIP3    H222917   1.554   1.214  15.136
  428TIP3   OH222918   0.200   1.607  16.014
  428TIP3    H122919   0.222   1.512  16.017
  428TIP3    H222920   0.219   1.631  16.105
  429TIP3   OH222921   0.325   1.137  15.035
  429TIP3    H122922   0.254   1.172  15.094
  429TIP3    H222923   0.377   1.216  15.019
  430TIP3   OH222924   1.109   0.399  16.072
  430TIP3    H122925   1.181   0.408  16.136
  430TIP3    H222926   1.072   0.310  16.091
  431TIP3   OH222927   1.191   0.357  15.180
  431TIP3    H122928   1.196   0.410  15.097
  431TIP3    H222929   1.240   0.410  15.244
  432TIP3   OH222930   0.901   0.536  15.259
  432TIP3    H122931   0.983   0.589  15.263
  432TIP3    H222932   0.881   0.518  15.352
  433TIP3   OH222933   0.960   0.636  16.182
  433TIP3    H122934   0.968   0.691  16.262
  433TIP3    H222935   1.027   0.567  16.189
  434TIP3   OH222936   0.994   0.236  15.358
  434TIP3    H122937   0.955   0.304  15.415
  434TIP3    H222938   1.056   0.292  15.306
  435TIP3   OH222939   0.677   1.681  15.068
  435TIP3    H122940   0.702   1.756  15.011
  435TIP3    H222941   0.664   1.718  15.156
  436TIP3   OH222942   1.577   0.421  16.266
  436TIP3    H122943   1.485   0.455  16.253
  436TIP3    H222944   1.608   0.420  16.174
  437TIP3   OH222945   1.439   0.803  15.670
  437TIP3    H122946   1.357   0.758  15.638
  437TIP3    H222947   1.487   0.733  15.719
  438TIP3   OH222948   0.379   1.398  14.920
  438TIP3    H122949   0.441   1.462  14.961
  438TIP3    H222950   0.440   1.351  14.864
  439TIP3   OH222951   1.611   1.727  15.755
  439TIP3    H122952   1.540   1.794  15.761
  439TIP3    H222953   1.644   1.733  15.847
  440TIP3   OH222954   0.277   0.156  15.715
  440TIP3    H122955   0.277   0.145  15.618
  440TIP3    H222956   0.260   0.063  15.739
  441TIP3   OH222957   0.193   1.534  15.331
  441TIP3    H122958   0.106   1.574  15.323
  441TIP3    H222959   0.238   1.580  15.259
  442TIP3   OH222960   0.129   1.798  16.454
  442TIP3    H122961   0.178   1.775  16.535
  442TIP3    H222962   0.074   1.717  16.443
  443TIP3   OH222963   0.580   1.686  16.619
  443TIP3    H122964   0.657   1.639  16.651
  443TIP3    H222965   0.576   1.659  16.525
  444TIP3   OH222966   1.226   1.528  16.493
  444TIP3    H122967   1.197   1.438  16.520
  444TIP3    H222968   1.305   1.540  16.549
  445TIP3   OH222969   0.117   1.174  16.554
  445TIP3    H122970   0.120   1.080  16.527
  445TIP3    H222971   0.034   1.204  16.513
  446TIP3   OH222972   0.774   1.173  16.493
  446TIP3    H122973   0.740   1.205  16.407
  446TIP3    H222974   0.781   1.075  16.481
  447TIP3   OH222975   1.343   1.159  16.236
  447TIP3    H122976   1.422   1.218  16.228
  447TIP3    H222977   1.275   1.228  16.239
  448TIP3   OH222978   0.187   0.896  16.494
  448TIP3    H122979   0.237   0.812  16.487
  448TIP3    H222980   0.176   0.900  16.591
  449TIP3   OH222981   0.658   1.011  14.999
  449TIP3    H122982   0.607   0.963  15.066
  449TIP3    H222983   0.682   0.942  14.936
  450TIP3   OH222984   0.583   0.791  16.231
  450TIP3    H122985   0.522   0.863  16.256
  450TIP3    H222986   0.623   0.829  16.150
  451TIP3   OH222987   1.091   1.050  16.571
  451TIP3    H122988   1.186   1.046  16.551
  451TIP3    H222989   1.075   0.972  16.625
  452TIP3   OH222990   0.628   0.531  16.335
  452TIP3    H122991   0.636   0.460  16.269
  452TIP3    H222992   0.617   0.611  16.282
  453TIP3   OH222993   0.665   0.370  16.089
  453TIP3    H122994   0.716   0.417  16.019
  453TIP3    H222995   0.575   0.358  16.050
  454TIP3   OH222996   0.818   0.917  16.116
  454TIP3    H122997   0.894   0.900  16.058
  454TIP3    H222998   0.782   1.001  16.082
  455TIP3   OH222999   1.257   0.688  16.613
  455TIP3    H123000   1.282   0.596  16.600
  455TIP3    H223001   1.343   0.733  16.613
  456TIP3   OH223002   1.392   0.971  16.428
  456TIP3    H123003   1.367   1.044  16.367
  456TIP3    H223004   1.489   0.968  16.409
  457TIP3   OH223005   0.469   0.655  16.529
  457TIP3    H123006   0.391   0.598  16.511
  457TIP3    H223007   0.532   0.621  16.464
  458TIP3   OH223008   0.735   0.127  16.148
  458TIP3    H123009   0.725   0.223  16.126
  458TIP3    H223010   0.670   0.087  16.088
  459TIP3   OH223011   0.872   0.543  16.496
  459TIP3    H123012   0.835   0.519  16.583
  459TIP3    H223013   0.795   0.525  16.439
  460TIP3   OH223014   1.142   0.465  16.405
  460TIP3    H123015   1.045   0.464  16.413
  460TIP3    H223016   1.170   0.397  16.470
  461TIP3   OH223017   1.300   0.331  16.595
  461TIP3    H123018   1.298   0.232  16.591
  461TIP3    H223019   1.275   0.351  16.687
  462TIP3   OH223020   0.285   0.444  16.505
  462TIP3    H123021   0.306   0.370  16.445
  462TIP3    H223022   0.273   0.399  16.591
  463TIP3   OH223023   0.763   7.391  16.399
  463TIP3    H123024   0.829   7.322  16.407
  463TIP3    H223025   0.756   7.413  16.303
  464TIP3   OH223026   0.801   0.217  16.608
  464TIP3    H123027   0.785   0.160  16.529
  464TIP3    H223028   0.740   0.291  16.597
  465TIP3   OH223029   0.751   1.907  14.929
  465TIP3    H123030   0.847   1.912  14.935
  465TIP3    H223031   0.728   1.969  14.859
  466TIP3   OH223032   0.109   1.361  14.877
  466TIP3    H123033   0.203   1.373  14.899
  466TIP3    H223034   0.111   1.295  14.807
  467TIP3   OH223035   7.350   1.909  15.363
  467TIP3    H123036   7.264   1.884  15.326
  467TIP3    H223037   7.363   1.842  15.434
  468TIP3   OH223038   0.058   1.717  15.556
  468TIP3    H123039   0.030   1.626  15.579
  468TIP3    H223040   0.090   1.747  15.643
  469TIP3   OH223041   1.842   1.785  15.864
  469TIP3    H123042   1.823   1.813  15.954
  469TIP3    H223043   1.891   1.858  15.825
  470TIP3   OH223044   1.774   1.752  16.150
  470TIP3    H123045   1.728   1.676  16.109
  470TIP3    H223046   1.823   1.704  16.219
  471TIP3   OH223047   1.618   1.328  16.611
  471TIP3    H123048   1.531   1.321  16.655
  471TIP3    H223049   1.657   1.405  16.657
  472TIP3   OH223050   1.748   1.158  15.166
  472TIP3    H123051   1.838   1.193  15.171
  472TIP3    H223052   1.753   1.082  15.225
  473TIP3   OH223053   1.792   0.960  15.345
  473TIP3    H123054   1.712   0.918  15.383
  473TIP3    H223055   1.847   0.978  15.424
  474TIP3   OH223056   1.764   1.234  15.847
  474TIP3    H123057   1.845   1.198  15.806
  474TIP3    H223058   1.775   1.330  15.829
  475TIP3   OH223059   1.623   1.514  16.081
  475TIP3    H123060   1.552   1.562  16.127
  475TIP3    H223061   1.567   1.490  16.003
  476TIP3   OH223062   1.571   0.812  15.403
  476TIP3    H123063   1.553   0.716  15.401
  476TIP3    H223064   1.536   0.834  15.491
  477TIP3   OH223065   0.067   1.019  15.808
  477TIP3    H123066   0.086   1.015  15.712
  477TIP3    H223067   0.156   1.006  15.847
  478TIP3   OH223068   1.655   1.007  16.370
  478TIP3    H123069   1.717   0.933  16.388
  478TIP3    H223070   1.714   1.086  16.373
  479TIP3   OH223071   1.805   0.797  16.433
  479TIP3    H123072   1.717   0.756  16.424
  479TIP3    H223073   1.864   0.719  16.435
  480TIP3   OH223074   1.538   0.571  15.254
  480TIP3    H123075   1.563   0.476  15.261
  480TIP3    H223076   1.616   0.610  15.213
  481TIP3   OH223077   1.600   0.627  15.794
  481TIP3    H123078   1.696   0.648  15.792
  481TIP3    H223079   1.581   0.638  15.888
  482TIP3   OH223080   1.606   0.699  16.072
  482TIP3    H123081   1.518   0.726  16.104
  482TIP3    H223082   1.650   0.784  16.050
  483TIP3   OH223083   0.052   0.545  16.426
  483TIP3    H123084   0.142   0.517  16.450
  483TIP3    H223085  -0.006   0.472  16.459
  484TIP3   OH223086   1.843   0.101  16.606
  484TIP3    H123087   1.867   0.034  16.542
  484TIP3    H223088   1.841   0.185  16.557
  485TIP3   OH223089   1.601   0.300  15.253
  485TIP3    H123090   1.623   0.253  15.336
  485TIP3    H223091   1.540   0.234  15.211
  486TIP3   OH223092   0.147   0.384  15.713
  486TIP3    H123093   0.197   0.302  15.736
  486TIP3    H223094   0.206   0.448  15.754
  487TIP3   OH223095   0.051   0.731  15.855
  487TIP3    H123096   0.060   0.694  15.765
  487TIP3    H223097   0.030   0.821  15.831
  488TIP3   OH223098   1.788   0.309  16.439
  488TIP3    H123099   1.694   0.338  16.439
  488TIP3    H223100   1.786   0.254  16.359
  489TIP3   OH223101   7.405   0.306  15.277
  489TIP3    H123102   7.308   0.313  15.263
  489TIP3    H223103   7.433   0.355  15.198
  490TIP3   OH223104   1.489   1.808  15.409
  490TIP3    H123105   1.559   1.769  15.355
  490TIP3    H223106   1.539   1.846  15.483
  491TIP3   OH223107   7.367   0.171  16.065
  491TIP3    H123108   7.293   0.146  16.120
  491TIP3    H223109   7.318   0.225  16.001
  492TIP3   OH223110   0.237   1.496  16.470
  492TIP3    H123111   0.152   1.512  16.426
  492TIP3    H223112   0.209   1.482  16.561
  493TIP3   OH223113   0.527   1.594  16.096
  493TIP3    H123114   0.489   1.678  16.068
  493TIP3    H223115   0.619   1.603  16.064
  494TIP3   OH223116   0.957   1.734  16.385
  494TIP3    H123117   0.970   1.700  16.476
  494TIP3    H223118   1.047   1.764  16.361
  495TIP3   OH223119   1.186   1.864  16.321
  495TIP3    H123120   1.256   1.804  16.291
  495TIP3    H223121   1.227   1.905  16.399
  496TIP3   OH223122   1.689   0.125  16.224
  496TIP3    H123123   1.606   0.157  16.188
  496TIP3    H223124   1.705   0.042  16.175
  497TIP3   OH223125   0.269   1.917  16.098
  497TIP3    H123126   0.194   1.963  16.056
  497TIP3    H223127   0.233   1.896  16.185
  498TIP3   OH223128   0.515   1.874  16.001
  498TIP3    H123129   0.426   1.890  16.042
  498TIP3    H223130   0.510   1.933  15.924
  499TIP3   OH223131   0.979   1.864  15.914
  499TIP3    H123132   0.938   1.924  15.851
  499TIP3    H223133   1.001   1.923  15.990
  500TIP3   OH223134   1.171   1.780  16.060
  500TIP3    H123135   1.118   1.777  15.979
  500TIP3    H223136   1.254   1.813  16.018
  501TIP3   OH223137   1.498   1.927  16.051
  501TIP3    H123138   1.462   2.010  16.018
  501TIP3    H223139   1.486   1.867  15.973
  502TIP3   OH223140   0.211   1.781  15.787
  502TIP3    H123141   0.207   1.737  15.874
  502TIP3    H223142   0.293   1.741  15.749
  503TIP3   OH223143   0.421   1.651  15.653
  503TIP3    H123144   0.403   1.558  15.678
  503TIP3    H223145   0.506   1.667  15.699
  504TIP3   OH223146   0.676   1.699  15.742
  504TIP3    H123147   0.696   1.607  15.715
  504TIP3    H223148   0.684   1.693  15.838
  505TIP3   OH223149   1.025   0.275  15.654
  505TIP3    H123150   0.961   0.206  15.681
  505TIP3    H223151   1.086   0.219  15.602
  506TIP3   OH223152   1.539   0.073  15.664
  506TIP3    H123153   1.600   0.126  15.609
  506TIP3    H223154   1.452   0.106  15.639
  507TIP3   OH223155   1.709   0.198  15.485
  507TIP3    H123156   1.777   0.136  15.452
  507TIP3    H223157   1.760   0.280  15.500
  508TIP3   OH223158   0.276   0.130  15.418
  508TIP3    H123159   0.182   0.106  15.401
  508TIP3    H223160   0.306   0.043  15.448
  509TIP3   OH223161   0.241   0.153  14.973
  509TIP3    H123162   0.215   0.209  14.901
  509TIP3    H223163   0.156   0.157  15.016
  510TIP3   OH223164   1.264   0.146  15.586
  510TIP3    H123165   1.273   0.148  15.490
  510TIP3    H223166   1.252   0.050  15.599
  511TIP3   OH223167   1.409   0.123  15.160
  511TIP3    H123168   1.340   0.186  15.128
  511TIP3    H223169   1.361   0.040  15.163
  512TIP3   OH223170   0.149   1.707  15.101
  512TIP3    H123171   0.067   1.698  15.047
  512TIP3    H223172   0.135   1.798  15.129
  513TIP3   OH223173   1.019   1.828  14.946
  513TIP3    H123174   1.107   1.859  14.926
  513TIP3    H223175   0.993   1.778  14.868
  514TIP3   OH223176   1.679   1.777  15.217
  514TIP3    H123177   1.674   1.699  15.159
  514TIP3    H223178   1.686   1.851  15.156
  515TIP3   OH223179   0.240   0.187  16.387
  515TIP3    H123180   0.210   0.104  16.426
  515TIP3    H223181   0.334   0.182  16.417
  516TIP3   OH223182   0.434   0.135  16.538
  516TIP3    H123183   0.529   0.112  16.529
  516TIP3    H223184   0.413   0.053  16.586
  517TIP3   OH223185   0.316   1.789  14.809
  517TIP3    H123186   0.287   1.824  14.895
  517TIP3    H223187   0.396   1.743  14.833
  518TIP3   OH223188   1.289   7.420  16.562
  518TIP3    H123189   1.294   7.353  16.633
  518TIP3    H223190   1.374   7.396  16.520
  519TIP3   OH223191   1.613   1.654  16.435
  519TIP3    H123192   1.535   1.639  16.376
  519TIP3    H223193   1.602   1.750  16.447
  520TIP3   OH223194   3.058   1.041  15.429
  520TIP3    H123195   3.057   1.139  15.423
  520TIP3    H223196   2.987   1.018  15.367
  521TIP3   OH223197   2.943   0.968  15.775
  521TIP3    H123198   2.942   0.902  15.846
  521TIP3    H223199   2.908   0.917  15.700
  522TIP3   OH223200   2.178   0.934  15.931
  522TIP3    H123201   2.187   0.866  16.000
  522TIP3    H223202   2.253   0.992  15.953
  523TIP3   OH223203   3.312   1.262  15.605
  523TIP3    H123204   3.271   1.191  15.654
  523TIP3    H223205   3.314   1.333  15.672
  524TIP3   OH223206   2.271   1.378  15.783
  524TIP3    H123207   2.240   1.292  15.750
  524TIP3    H223208   2.367   1.361  15.785
  525TIP3   OH223209   1.938   0.737  15.326
  525TIP3    H123210   1.890   0.823  15.325
  525TIP3    H223211   1.878   0.682  15.275
  526TIP3   OH223212   2.006   0.958  15.543
  526TIP3    H123213   2.034   0.876  15.589
  526TIP3    H223214   2.077   0.969  15.479
  527TIP3   OH223215   3.024   1.778  15.628
  527TIP3    H123216   3.089   1.709  15.599
  527TIP3    H223217   3.002   1.744  15.715
  528TIP3   OH223218   2.781   1.206  15.824
  528TIP3    H123219   2.815   1.144  15.757
  528TIP3    H223220   2.862   1.223  15.874
  529TIP3   OH223221   3.642   0.372  15.895
  529TIP3    H123222   3.657   0.433  15.971
  529TIP3    H223223   3.697   0.415  15.829
  530TIP3   OH223224   3.096   0.652  15.858
  530TIP3    H123225   3.114   0.556  15.854
  530TIP3    H223226   3.088   0.669  15.761
  531TIP3   OH223227   2.409   0.466  15.576
  531TIP3    H123228   2.421   0.549  15.525
  531TIP3    H223229   2.370   0.407  15.508
  532TIP3   OH223230   3.183   0.469  15.412
  532TIP3    H123231   3.248   0.441  15.480
  532TIP3    H223232   3.238   0.529  15.359
  533TIP3   OH223233   2.071   0.704  15.650
  533TIP3    H123234   2.138   0.650  15.695
  533TIP3    H223235   2.082   0.673  15.558
  534TIP3   OH223236   2.587   0.859  15.584
  534TIP3    H123237   2.655   0.801  15.623
  534TIP3    H223238   2.536   0.793  15.531
  535TIP3   OH223239   3.683   0.512  16.122
  535TIP3    H123240   3.624   0.589  16.112
  535TIP3    H223241   3.690   0.505  16.219
  536TIP3   OH223242   2.300   0.355  15.982
  536TIP3    H123243   2.271   0.410  15.906
  536TIP3    H223244   2.229   0.378  16.047
  537TIP3   OH223245   3.029   1.302  15.335
  537TIP3    H123246   2.999   1.275  15.247
  537TIP3    H223247   3.000   1.396  15.340
  538TIP3   OH223248   2.552   1.117  16.003
  538TIP3    H123249   2.481   1.181  16.026
  538TIP3    H223250   2.622   1.178  15.974
  539TIP3   OH223251   3.363   0.406  15.613
  539TIP3    H123252   3.342   0.329  15.666
  539TIP3    H223253   3.434   0.448  15.666
  540TIP3   OH223254   2.256   0.539  15.782
  540TIP3    H123255   2.320   0.607  15.815
  540TIP3    H223256   2.309   0.497  15.710
  541TIP3   OH223257   2.397   1.317  16.086
  541TIP3    H123258   2.391   1.408  16.052
  541TIP3    H223259   2.308   1.309  16.130
  542TIP3   OH223260   2.004   1.279  15.164
  542TIP3    H123261   1.971   1.310  15.078
  542TIP3    H223262   2.014   1.362  15.213
  543TIP3   OH223263   3.365   1.447  15.845
  543TIP3    H123264   3.268   1.457  15.851
  543TIP3    H223265   3.392   1.537  15.818
  544TIP3   OH223266   3.400   0.275  15.987
  544TIP3    H123267   3.326   0.334  15.966
  544TIP3    H223268   3.469   0.312  15.928
  545TIP3   OH223269   2.722   0.104  15.722
  545TIP3    H123270   2.710   0.009  15.722
  545TIP3    H223271   2.632   0.131  15.744
  546TIP3   OH223272   3.193   1.623  15.503
  546TIP3    H123273   3.234   1.553  15.449
  546TIP3    H223274   3.233   1.702  15.460
  547TIP3   OH223275   3.314   1.417  15.349
  547TIP3    H123276   3.283   1.345  15.293
  547TIP3    H223277   3.316   1.371  15.434
  548TIP3   OH223278   3.470   1.280  16.201
  548TIP3    H123279   3.488   1.211  16.132
  548TIP3    H223280   3.498   1.360  16.153
  549TIP3   OH223281   2.923   0.963  15.177
  549TIP3    H123282   2.854   1.020  15.140
  549TIP3    H223283   2.994   0.973  15.111
  550TIP3   OH223284   3.659   0.905  16.002
  550TIP3    H123285   3.598   0.981  16.009
  550TIP3    H223286   3.712   0.931  15.924
  551TIP3   OH223287   3.269   0.985  15.272
  551TIP3    H123288   3.195   1.011  15.331
  551TIP3    H223289   3.317   0.920  15.326
  552TIP3   OH223290   3.252   0.799  16.189
  552TIP3    H123291   3.265   0.886  16.232
  552TIP3    H223292   3.203   0.834  16.111
  553TIP3   OH223293   2.430   1.053  15.460
  553TIP3    H123294   2.398   1.013  15.377
  553TIP3    H223295   2.491   0.984  15.495
  554TIP3   OH223296   2.561   1.390  15.729
  554TIP3    H123297   2.561   1.338  15.647
  554TIP3    H223298   2.640   1.355  15.775
  555TIP3   OH223299   2.463   0.926  15.828
  555TIP3    H123300   2.517   0.937  15.747
  555TIP3    H223301   2.501   0.994  15.888
  556TIP3   OH223302   3.106   1.485  15.902
  556TIP3    H123303   3.071   1.550  15.964
  556TIP3    H223304   3.077   1.399  15.940
  557TIP3   OH223305   2.557   1.370  16.297
  557TIP3    H123306   2.515   1.443  16.346
  557TIP3    H223307   2.490   1.350  16.227
  558TIP3   OH223308   3.159   0.905  15.038
  558TIP3    H123309   3.212   0.926  15.118
  558TIP3    H223310   3.196   0.959  14.966
  559TIP3   OH223311   2.253   0.988  16.209
  559TIP3    H123312   2.257   1.050  16.284
  559TIP3    H223313   2.158   0.994  16.192
  560TIP3   OH223314   2.926   1.579  15.383
  560TIP3    H123315   2.971   1.610  15.463
  560TIP3    H223316   2.870   1.655  15.361
  561TIP3   OH223317   2.383   1.573  16.371
  561TIP3    H123318   2.376   1.563  16.275
  561TIP3    H223319   2.290   1.560  16.398
  562TIP3   OH223320   3.533   0.087  15.014
  562TIP3    H123321   3.441   0.087  15.049
  562TIP3    H223322   3.543   0.178  14.983
  563TIP3   OH223323   2.326   0.954  15.220
  563TIP3    H123324   2.297   1.035  15.178
  563TIP3    H223325   2.259   0.889  15.200
  564TIP3   OH223326   1.937   1.198  16.111
  564TIP3    H123327   1.891   1.189  16.025
  564TIP3    H223328   1.944   1.103  16.134
  565TIP3   OH223329   1.914   1.470  15.787
  565TIP3    H123330   2.010   1.461  15.788
  565TIP3    H223331   1.900   1.553  15.838
  566TIP3   OH223332   3.729   1.543  16.354
  566TIP3    H123333   3.727   1.446  16.358
  566TIP3    H223334   3.647   1.565  16.403
  567TIP3   OH223335   2.834   1.493  16.250
  567TIP3    H123336   2.835   1.580  16.298
  567TIP3    H223337   2.744   1.460  16.268
  568TIP3   OH223338   2.871   1.870  15.223
  568TIP3    H123339   2.866   1.863  15.126
  568TIP3    H223340   2.880   1.965  15.240
  569TIP3   OH223341   2.234   1.764  15.412
  569TIP3    H123342   2.254   1.716  15.494
  569TIP3    H223343   2.156   1.713  15.383
  570TIP3   OH223344   3.144   1.790  15.208
  570TIP3    H123345   3.048   1.791  15.223
  570TIP3    H223346   3.176   1.711  15.253
  571TIP3   OH223347   3.446   0.688  16.407
  571TIP3    H123348   3.409   0.736  16.333
  571TIP3    H223349   3.452   0.597  16.375
  572TIP3   OH223350   2.164   1.329  16.207
  572TIP3    H123351   2.186   1.292  16.296
  572TIP3    H223352   2.078   1.290  16.185
  573TIP3   OH223353   2.425   0.189  15.815
  573TIP3    H123354   2.342   0.173  15.765
  573TIP3    H223355   2.410   0.275  15.854
  574TIP3   OH223356   2.893   0.148  16.143
  574TIP3    H123357   2.934   0.101  16.216
  574TIP3    H223358   2.798   0.133  16.155
  575TIP3   OH223359   3.216   0.524  16.221
  575TIP3    H123360   3.179   0.504  16.311
  575TIP3    H223361   3.224   0.620  16.205
  576TIP3   OH223362   2.863   0.395  14.875
  576TIP3    H123363   2.829   0.395  14.965
  576TIP3    H223364   2.827   0.314  14.840
  577TIP3   OH223365   2.443   0.674  15.926
  577TIP3    H123366   2.369   0.673  15.991
  577TIP3    H223367   2.436   0.765  15.888
  578TIP3   OH223368   2.438   0.684  15.415
  578TIP3    H123369   2.344   0.661  15.398
  578TIP3    H223370   2.476   0.657  15.329
  579TIP3   OH223371   2.991   0.735  15.291
  579TIP3    H123372   2.951   0.817  15.255
  579TIP3    H223373   3.058   0.718  15.223
  580TIP3   OH223374   2.900   0.752  16.431
  580TIP3    H123375   2.840   0.683  16.470
  580TIP3    H223376   2.975   0.752  16.494
  581TIP3   OH223377   3.094   0.686  15.575
  581TIP3    H123378   3.065   0.741  15.500
  581TIP3    H223379   3.104   0.601  15.528
  582TIP3   OH223380   2.205   0.697  16.095
  582TIP3    H123381   2.213   0.740  16.182
  582TIP3    H223382   2.161   0.614  16.117
  583TIP3   OH223383   1.871   0.413  15.493
  583TIP3    H123384   1.940   0.408  15.563
  583TIP3    H223385   1.915   0.374  15.416
  584TIP3   OH223386   2.002   0.487  15.038
  584TIP3    H123387   2.044   0.544  14.973
  584TIP3    H223388   1.927   0.544  15.064
  585TIP3   OH223389   3.020   0.842  16.034
  585TIP3    H123390   3.051   0.777  15.967
  585TIP3    H223391   2.959   0.792  16.090
  586TIP3   OH223392   2.694   0.440  15.512
  586TIP3    H123393   2.601   0.437  15.543
  586TIP3    H223394   2.743   0.425  15.595
  587TIP3   OH223395   2.173   0.592  15.403
  587TIP3    H123396   2.086   0.610  15.361
  587TIP3    H223397   2.203   0.509  15.361
  588TIP3   OH223398   2.537   0.603  15.163
  588TIP3    H123399   2.633   0.611  15.178
  588TIP3    H223400   2.516   0.668  15.095
  589TIP3   OH223401   3.135   0.367  15.839
  589TIP3    H123402   3.064   0.368  15.905
  589TIP3    H223403   3.087   0.340  15.759
  590TIP3   OH223404   2.407   0.723  14.919
  590TIP3    H123405   2.357   0.679  14.851
  590TIP3    H223406   2.495   0.740  14.879
  591TIP3   OH223407   3.455   1.927  16.474
  591TIP3    H123408   3.482   1.967  16.389
  591TIP3    H223409   3.527   1.961  16.530
  592TIP3   OH223410   2.222   1.181  16.427
  592TIP3    H123411   2.292   1.199  16.492
  592TIP3    H223412   2.144   1.181  16.487
  593TIP3   OH223413   2.823   0.716  15.702
  593TIP3    H123414   2.881   0.659  15.649
  593TIP3    H223415   2.806   0.661  15.779
  594TIP3   OH223416   2.321   0.335  15.344
  594TIP3    H123417   2.289   0.243  15.351
  594TIP3    H223418   2.402   0.325  15.292
  595TIP3   OH223419   2.685   0.547  15.944
  595TIP3    H123420   2.602   0.600  15.951
  595TIP3    H223421   2.739   0.585  16.016
  596TIP3   OH223422   2.745   1.165  15.115
  596TIP3    H123423   2.662   1.126  15.086
  596TIP3    H223424   2.724   1.187  15.208
  597TIP3   OH223425   3.465   1.091  15.995
  597TIP3    H123426   3.521   1.141  15.933
  597TIP3    H223427   3.379   1.096  15.949
  598TIP3   OH223428   3.128   0.457  14.931
  598TIP3    H123429   3.033   0.473  14.914
  598TIP3    H223430   3.161   0.541  14.966
  599TIP3   OH223431   2.900   1.198  16.241
  599TIP3    H123432   2.856   1.156  16.316
  599TIP3    H223433   2.867   1.289  16.248
  600TIP3   OH223434   3.202   0.644  15.100
  600TIP3    H123435   3.292   0.632  15.136
  600TIP3    H223436   3.207   0.727  15.049
  601TIP3   OH223437   2.256   1.111  15.694
  601TIP3    H123438   2.323   1.103  15.624
  601TIP3    H223439   2.262   1.025  15.740
  602TIP3   OH223440   1.954   0.952  16.221
  602TIP3    H123441   1.972   0.907  16.307
  602TIP3    H223442   1.893   0.889  16.178
  603TIP3   OH223443   2.656   0.905  16.438
  603TIP3    H123444   2.622   0.877  16.352
  603TIP3    H223445   2.748   0.877  16.437
  604TIP3   OH223446   3.127   1.448  16.239
  604TIP3    H123447   3.037   1.455  16.203
  604TIP3    H223448   3.099   1.463  16.330
  605TIP3   OH223449   3.687   0.659  15.074
  605TIP3    H123450   3.636   0.626  15.001
  605TIP3    H223451   3.704   0.752  15.047
  606TIP3   OH223452   3.688   1.243  16.352
  606TIP3    H123453   3.601   1.264  16.313
  606TIP3    H223454   3.747   1.239  16.273
  607TIP3   OH223455   3.536   1.535  15.119
  607TIP3    H123456   3.480   1.460  15.143
  607TIP3    H223457   3.545   1.528  15.023
  608TIP3   OH223458   3.242   1.024  15.824
  608TIP3    H123459   3.148   1.004  15.811
  608TIP3    H223460   3.284   0.948  15.779
  609TIP3   OH223461   2.491   1.456  15.433
  609TIP3    H123462   2.542   1.536  15.410
  609TIP3    H223463   2.404   1.481  15.399
  610TIP3   OH223464   2.636   1.224  15.384
  610TIP3    H123465   2.603   1.316  15.393
  610TIP3    H223466   2.564   1.175  15.427
  611TIP3   OH223467   2.680   1.641  16.026
  611TIP3    H123468   2.725   1.722  15.997
  611TIP3    H223469   2.741   1.607  16.093
  612TIP3   OH223470   2.503   1.717  15.350
  612TIP3    H123471   2.407   1.735  15.351
  612TIP3    H223472   2.539   1.806  15.368
  613TIP3   OH223473   3.036   1.244  15.991
  613TIP3    H123474   2.998   1.219  16.078
  613TIP3    H223475   3.094   1.169  15.969
  614TIP3   OH223476   3.311   1.695  16.236
  614TIP3    H123477   3.242   1.654  16.179
  614TIP3    H223478   3.333   1.769  16.174
  615TIP3   OH223479   2.121   0.417  16.174
  615TIP3    H123480   2.032   0.458  16.173
  615TIP3    H223481   2.104   0.337  16.225
  616TIP3   OH223482   3.343   1.207  15.121
  616TIP3    H123483   3.320   1.130  15.175
  616TIP3    H223484   3.438   1.216  15.138
  617TIP3   OH223485   2.081   1.603  16.019
  617TIP3    H123486   2.111   1.511  16.019
  617TIP3    H223487   2.107   1.632  16.106
  618TIP3   OH223488   2.989   0.405  16.085
  618TIP3    H123489   3.073   0.402  16.132
  618TIP3    H223490   2.958   0.312  16.088
  619TIP3   OH223491   3.073   0.355  15.179
  619TIP3    H123492   3.089   0.409  15.099
  619TIP3    H223493   3.122   0.405  15.246
  620TIP3   OH223494   2.789   0.531  15.261
  620TIP3    H123495   2.867   0.590  15.264
  620TIP3    H223496   2.763   0.520  15.355
  621TIP3   OH223497   2.836   0.638  16.167
  621TIP3    H123498   2.826   0.689  16.252
  621TIP3    H223499   2.884   0.554  16.177
  622TIP3   OH223500   2.877   0.238  15.357
  622TIP3    H123501   2.843   0.307  15.416
  622TIP3    H223502   2.941   0.292  15.305
  623TIP3   OH223503   3.461   0.424  16.267
  623TIP3    H123504   3.370   0.454  16.251
  623TIP3    H223505   3.495   0.419  16.175
  624TIP3   OH223506   3.325   0.802  15.666
  624TIP3    H123507   3.242   0.757  15.639
  624TIP3    H223508   3.373   0.734  15.718
  625TIP3   OH223509   3.431   1.729  15.833
  625TIP3    H123510   3.423   1.797  15.764
  625TIP3    H223511   3.528   1.734  15.851
  626TIP3   OH223512   2.159   0.155  15.718
  626TIP3    H123513   2.163   0.146  15.621
  626TIP3    H223514   2.149   0.061  15.739
  627TIP3   OH223515   2.077   1.538  15.331
  627TIP3    H123516   1.989   1.578  15.329
  627TIP3    H223517   2.125   1.577  15.256
  628TIP3   OH223518   1.995   1.799  16.457
  628TIP3    H123519   2.056   1.779  16.532
  628TIP3    H223520   1.956   1.711  16.439
  629TIP3   OH223521   2.466   1.686  16.619
  629TIP3    H123522   2.544   1.639  16.650
  629TIP3    H223523   2.463   1.661  16.524
  630TIP3   OH223524   3.097   1.527  16.504
  630TIP3    H123525   3.068   1.435  16.529
  630TIP3    H223526   3.170   1.541  16.568
  631TIP3   OH223527   1.987   1.178  16.553
  631TIP3    H123528   2.005   1.085  16.528
  631TIP3    H223529   1.912   1.199  16.495
  632TIP3   OH223530   2.662   1.174  16.492
  632TIP3    H123531   2.625   1.206  16.407
  632TIP3    H223532   2.665   1.077  16.482
  633TIP3   OH223533   3.226   1.160  16.239
  633TIP3    H123534   3.307   1.214  16.226
  633TIP3    H223535   3.157   1.227  16.236
  634TIP3   OH223536   2.075   0.897  16.489
  634TIP3    H123537   2.122   0.813  16.488
  634TIP3    H223538   2.061   0.902  16.587
  635TIP3   OH223539   2.472   0.792  16.232
  635TIP3    H123540   2.410   0.862  16.258
  635TIP3    H223541   2.506   0.829  16.149
  636TIP3   OH223542   2.649   0.831  14.821
  636TIP3    H123543   2.635   0.821  14.726
  636TIP3    H223544   2.745   0.844  14.827
  637TIP3   OH223545   2.978   1.047  16.569
  637TIP3    H123546   3.073   1.047  16.554
  637TIP3    H223547   2.961   0.971  16.626
  638TIP3   OH223548   3.584   1.064  14.766
  638TIP3    H123549   3.557   1.032  14.680
  638TIP3    H223550   3.596   1.160  14.750
  639TIP3   OH223551   2.515   0.529  16.336
  639TIP3    H123552   2.522   0.461  16.268
  639TIP3    H223553   2.499   0.610  16.285
  640TIP3   OH223554   2.551   0.369  16.090
  640TIP3    H123555   2.602   0.417  16.019
  640TIP3    H223556   2.462   0.361  16.049
  641TIP3   OH223557   2.709   0.919  16.116
  641TIP3    H123558   2.780   0.903  16.053
  641TIP3    H223559   2.666   1.000  16.082
  642TIP3   OH223560   3.144   0.689  16.600
  642TIP3    H123561   3.168   0.595  16.611
  642TIP3    H223562   3.230   0.733  16.618
  643TIP3   OH223563   3.279   0.972  16.430
  643TIP3    H123564   3.254   1.043  16.368
  643TIP3    H223565   3.375   0.968  16.410
  644TIP3   OH223566   2.355   0.666  16.514
  644TIP3    H123567   2.282   0.602  16.519
  644TIP3    H223568   2.421   0.616  16.463
  645TIP3   OH223569   2.610   0.127  16.151
  645TIP3    H123570   2.614   0.223  16.125
  645TIP3    H223571   2.561   0.088  16.077
  646TIP3   OH223572   2.757   0.544  16.491
  646TIP3    H123573   2.725   0.516  16.580
  646TIP3    H223574   2.675   0.524  16.441
  647TIP3   OH223575   3.025   0.465  16.406
  647TIP3    H123576   2.928   0.455  16.420
  647TIP3    H223577   3.057   0.397  16.471
  648TIP3   OH223578   3.184   0.331  16.592
  648TIP3    H123579   3.184   0.232  16.592
  648TIP3    H223580   3.160   0.350  16.686
  649TIP3   OH223581   2.146   0.437  16.479
  649TIP3    H123582   2.198   0.368  16.440
  649TIP3    H223583   2.160   0.423  16.576
  650TIP3   OH223584   2.640   7.382  16.394
  650TIP3    H123585   2.718   7.326  16.409
  650TIP3    H223586   2.648   7.417  16.303
  651TIP3   OH223587   2.687   0.214  16.605
  651TIP3    H123588   2.670   0.161  16.526
  651TIP3    H223589   2.628   0.291  16.601
  652TIP3   OH223590   2.641   1.906  14.925
  652TIP3    H123591   2.736   1.917  14.937
  652TIP3    H223592   2.613   1.971  14.860
  653TIP3   OH223593   1.864   1.900  15.372
  653TIP3    H123594   1.795   1.846  15.330
  653TIP3    H223595   1.897   1.837  15.440
  654TIP3   OH223596   1.949   1.714  15.558
  654TIP3    H123597   1.914   1.627  15.582
  654TIP3    H223598   1.972   1.747  15.647
  655TIP3   OH223599   3.703   1.793  15.854
  655TIP3    H123600   3.706   1.809  15.949
  655TIP3    H223601   3.773   1.851  15.823
  656TIP3   OH223602   3.655   1.751  16.151
  656TIP3    H123603   3.615   1.674  16.108
  656TIP3    H223604   3.711   1.708  16.218
  657TIP3   OH223605   3.502   1.327  16.610
  657TIP3    H123606   3.417   1.320  16.657
  657TIP3    H223607   3.544   1.403  16.658
  658TIP3   OH223608   3.636   1.154  15.158
  658TIP3    H123609   3.723   1.196  15.175
  658TIP3    H223610   3.637   1.085  15.227
  659TIP3   OH223611   3.672   0.966  15.348
  659TIP3    H123612   3.598   0.914  15.385
  659TIP3    H223613   3.732   0.977  15.423
  660TIP3   OH223614   3.649   1.235  15.846
  660TIP3    H123615   3.729   1.197  15.807
  660TIP3    H223616   3.663   1.330  15.828
  661TIP3   OH223617   3.504   1.524  16.073
  661TIP3    H123618   3.433   1.562  16.126
  661TIP3    H223619   3.453   1.485  15.998
  662TIP3   OH223620   3.704   0.944  14.987
  662TIP3    H123621   3.649   0.982  14.915
  662TIP3    H223622   3.697   1.017  15.052
  663TIP3   OH223623   3.453   0.812  15.403
  663TIP3    H123624   3.440   0.716  15.401
  663TIP3    H223625   3.422   0.834  15.492
  664TIP3   OH223626   1.955   1.021  15.810
  664TIP3    H123627   1.973   1.013  15.714
  664TIP3    H223628   2.045   1.003  15.845
  665TIP3   OH223629   3.539   1.009  16.374
  665TIP3    H123630   3.601   0.934  16.385
  665TIP3    H223631   3.602   1.085  16.372
  666TIP3   OH223632   3.690   0.798  16.436
  666TIP3    H123633   3.603   0.756  16.422
  666TIP3    H223634   3.749   0.721  16.432
  667TIP3   OH223635   3.422   0.572  15.247
  667TIP3    H123636   3.451   0.479  15.261
  667TIP3    H223637   3.504   0.611  15.214
  668TIP3   OH223638   3.485   0.627  15.793
  668TIP3    H123639   3.582   0.648  15.792
  668TIP3    H223640   3.467   0.638  15.887
  669TIP3   OH223641   3.489   0.698  16.072
  669TIP3    H123642   3.403   0.728  16.104
  669TIP3    H223643   3.536   0.782  16.049
  670TIP3   OH223644   1.914   0.552  16.420
  670TIP3    H123645   2.008   0.532  16.444
  670TIP3    H223646   1.873   0.470  16.454
  671TIP3   OH223647   3.733   0.101  16.607
  671TIP3    H123648   3.754   0.034  16.541
  671TIP3    H223649   3.726   0.183  16.555
  672TIP3   OH223650   3.490   0.296  15.251
  672TIP3    H123651   3.507   0.255  15.339
  672TIP3    H223652   3.425   0.233  15.212
  673TIP3   OH223653   2.034   0.383  15.709
  673TIP3    H123654   2.080   0.300  15.736
  673TIP3    H223655   2.092   0.448  15.749
  674TIP3   OH223656   1.865   0.680  15.814
  674TIP3    H123657   1.922   0.655  15.738
  674TIP3    H223658   1.912   0.760  15.841
  675TIP3   OH223659   3.673   0.310  16.438
  675TIP3    H123660   3.579   0.338  16.440
  675TIP3    H223661   3.672   0.254  16.359
  676TIP3   OH223662   3.676   0.309  14.916
  676TIP3    H123663   3.705   0.237  14.860
  676TIP3    H223664   3.743   0.377  14.912
  677TIP3   OH223665   1.907   0.301  15.221
  677TIP3    H123666   1.812   0.319  15.212
  677TIP3    H223667   1.942   0.356  15.150
  678TIP3   OH223668   3.376   1.800  15.413
  678TIP3    H123669   3.444   1.771  15.349
  678TIP3    H223670   3.427   1.851  15.477
  679TIP3   OH223671   1.897   0.174  16.051
  679TIP3    H123672   1.829   0.156  16.118
  679TIP3    H223673   1.850   0.238  15.993
  680TIP3   OH223674   2.121   1.495  16.467
  680TIP3    H123675   2.035   1.512  16.425
  680TIP3    H223676   2.094   1.485  16.560
  681TIP3   OH223677   2.410   1.592  16.095
  681TIP3    H123678   2.377   1.678  16.067
  681TIP3    H223679   2.503   1.601  16.064
  682TIP3   OH223680   2.843   1.732  16.384
  682TIP3    H123681   2.854   1.700  16.477
  682TIP3    H223682   2.932   1.767  16.364
  683TIP3   OH223683   3.071   1.858  16.318
  683TIP3    H123684   3.147   1.807  16.290
  683TIP3    H223685   3.107   1.907  16.396
  684TIP3   OH223686   3.574   0.124  16.225
  684TIP3    H123687   3.491   0.157  16.188
  684TIP3    H223688   3.590   0.042  16.175
  685TIP3   OH223689   2.153   1.918  16.094
  685TIP3    H123690   2.075   1.962  16.054
  685TIP3    H223691   2.122   1.899  16.184
  686TIP3   OH223692   2.402   1.873  16.003
  686TIP3    H123693   2.312   1.886  16.040
  686TIP3    H223694   2.395   1.929  15.923
  687TIP3   OH223695   2.871   1.864  15.918
  687TIP3    H123696   2.824   1.920  15.854
  687TIP3    H223697   2.884   1.927  15.992
  688TIP3   OH223698   3.098   1.745  16.026
  688TIP3    H123699   3.015   1.772  15.984
  688TIP3    H223700   3.148   1.827  16.011
  689TIP3   OH223701   3.357   1.901  16.045
  689TIP3    H123702   3.352   1.997  16.022
  689TIP3    H223703   3.380   1.865  15.956
  690TIP3   OH223704   2.101   1.784  15.789
  690TIP3    H123705   2.089   1.735  15.874
  690TIP3    H223706   2.179   1.741  15.749
  691TIP3   OH223707   2.305   1.651  15.655
  691TIP3    H123708   2.290   1.558  15.678
  691TIP3    H223709   2.391   1.668  15.699
  692TIP3   OH223710   2.569   1.700  15.743
  692TIP3    H123711   2.582   1.608  15.713
  692TIP3    H223712   2.572   1.692  15.839
  693TIP3   OH223713   2.909   0.275  15.654
  693TIP3    H123714   2.847   0.205  15.683
  693TIP3    H223715   2.971   0.220  15.604
  694TIP3   OH223716   3.424   0.071  15.662
  694TIP3    H123717   3.486   0.126  15.609
  694TIP3    H223718   3.337   0.106  15.639
  695TIP3   OH223719   3.593   0.197  15.491
  695TIP3    H123720   3.660   0.137  15.453
  695TIP3    H223721   3.645   0.280  15.499
  696TIP3   OH223722   2.155   0.131  15.421
  696TIP3    H123723   2.064   0.106  15.395
  696TIP3    H223724   2.189   0.043  15.443
  697TIP3   OH223725   2.002   0.168  14.964
  697TIP3    H123726   2.093   0.198  14.961
  697TIP3    H223727   1.972   0.183  15.055
  698TIP3   OH223728   2.623   0.163  15.453
  698TIP3    H123729   2.717   0.160  15.427
  698TIP3    H223730   2.613   0.096  15.521
  699TIP3   OH223731   3.147   0.147  15.585
  699TIP3    H123732   3.160   0.147  15.490
  699TIP3    H223733   3.138   0.049  15.598
  700TIP3   OH223734   3.294   0.125  15.153
  700TIP3    H123735   3.221   0.185  15.131
  700TIP3    H223736   3.250   0.039  15.165
  701TIP3   OH223737   2.707   0.319  15.106
  701TIP3    H123738   2.740   0.266  15.180
  701TIP3    H223739   2.714   0.408  15.148
  702TIP3   OH223740   2.909   1.826  14.947
  702TIP3    H123741   2.998   1.856  14.929
  702TIP3    H223742   2.879   1.781  14.868
  703TIP3   OH223743   3.577   1.782  15.215
  703TIP3    H123744   3.553   1.702  15.162
  703TIP3    H223745   3.563   1.852  15.151
  704TIP3   OH223746   2.139   0.166  16.366
  704TIP3    H123747   2.094   0.109  16.431
  704TIP3    H223748   2.218   0.184  16.423
  705TIP3   OH223749   2.323   0.132  16.530
  705TIP3    H123750   2.419   0.112  16.537
  705TIP3    H223751   2.301   0.058  16.591
  706TIP3   OH223752   3.174   7.419  16.559
  706TIP3    H123753   3.178   7.355  16.634
  706TIP3    H223754   3.261   7.396  16.521
  707TIP3   OH223755   3.491   1.652  16.434
  707TIP3    H123756   3.428   1.654  16.361
  707TIP3    H223757   3.494   1.749  16.451
  708TIP3   OH223758   4.832   0.967  15.771
  708TIP3    H123759   4.827   0.905  15.845
  708TIP3    H223760   4.788   0.917  15.701
  709TIP3   OH223761   4.064   0.934  15.929
  709TIP3    H123762   4.071   0.866  16.000
  709TIP3    H223763   4.138   0.992  15.954
  710TIP3   OH223764   5.196   1.261  15.604
  710TIP3    H123765   5.158   1.191  15.657
  710TIP3    H223766   5.201   1.333  15.670
  711TIP3   OH223767   4.156   1.383  15.774
  711TIP3    H123768   4.125   1.294  15.751
  711TIP3    H223769   4.251   1.363  15.791
  712TIP3   OH223770   3.818   0.733  15.331
  712TIP3    H123771   3.778   0.822  15.325
  712TIP3    H223772   3.765   0.680  15.271
  713TIP3   OH223773   3.896   0.960  15.546
  713TIP3    H123774   3.919   0.875  15.589
  713TIP3    H223775   3.962   0.967  15.476
  714TIP3   OH223776   4.909   1.777  15.628
  714TIP3    H123777   4.974   1.708  15.599
  714TIP3    H223778   4.888   1.744  15.715
  715TIP3   OH223779   4.667   1.206  15.819
  715TIP3    H123780   4.701   1.143  15.754
  715TIP3    H223781   4.747   1.222  15.874
  716TIP3   OH223782   5.530   0.371  15.896
  716TIP3    H123783   5.544   0.433  15.972
  716TIP3    H223784   5.581   0.417  15.828
  717TIP3   OH223785   4.984   0.656  15.850
  717TIP3    H123786   4.999   0.559  15.856
  717TIP3    H223787   4.973   0.668  15.756
  718TIP3   OH223788   4.294   0.465  15.575
  718TIP3    H123789   4.309   0.549  15.527
  718TIP3    H223790   4.254   0.408  15.506
  719TIP3   OH223791   3.959   0.706  15.650
  719TIP3    H123792   4.024   0.649  15.695
  719TIP3    H223793   3.968   0.673  15.559
  720TIP3   OH223794   5.590   0.526  16.118
  720TIP3    H123795   5.510   0.584  16.110
  720TIP3    H223796   5.573   0.502  16.211
  721TIP3   OH223797   4.187   0.357  15.981
  721TIP3    H123798   4.156   0.410  15.904
  721TIP3    H223799   4.116   0.376  16.047
  722TIP3   OH223800   4.438   1.115  16.003
  722TIP3    H123801   4.367   1.180  16.027
  722TIP3    H223802   4.507   1.178  15.976
  723TIP3   OH223803   5.250   0.405  15.615
  723TIP3    H123804   5.227   0.329  15.669
  723TIP3    H223805   5.317   0.450  15.668
  724TIP3   OH223806   4.144   0.538  15.782
  724TIP3    H123807   4.206   0.606  15.815
  724TIP3    H223808   4.196   0.497  15.709
  725TIP3   OH223809   4.275   1.311  16.057
  725TIP3    H123810   4.279   1.409  16.052
  725TIP3    H223811   4.205   1.306  16.127
  726TIP3   OH223812   3.888   1.282  15.166
  726TIP3    H123813   3.861   1.311  15.076
  726TIP3    H223814   3.893   1.366  15.215
  727TIP3   OH223815   5.250   1.445  15.841
  727TIP3    H123816   5.154   1.457  15.854
  727TIP3    H223817   5.277   1.537  15.820
  728TIP3   OH223818   5.286   0.273  15.985
  728TIP3    H123819   5.212   0.334  15.974
  728TIP3    H223820   5.354   0.314  15.927
  729TIP3   OH223821   4.608   0.105  15.725
  729TIP3    H123822   4.595   0.009  15.722
  729TIP3    H223823   4.517   0.131  15.746
  730TIP3   OH223824   5.080   1.627  15.504
  730TIP3    H123825   5.118   1.554  15.451
  730TIP3    H223826   5.120   1.704  15.460
  731TIP3   OH223827   5.197   1.419  15.351
  731TIP3    H123828   5.172   1.349  15.285
  731TIP3    H223829   5.202   1.367  15.433
  732TIP3   OH223830   5.361   1.277  16.201
  732TIP3    H123831   5.374   1.211  16.129
  732TIP3    H223832   5.380   1.361  16.156
  733TIP3   OH223833   5.549   0.908  16.005
  733TIP3    H123834   5.481   0.979  16.009
  733TIP3    H223835   5.598   0.932  15.924
  734TIP3   OH223836   5.146   0.805  16.183
  734TIP3    H123837   5.147   0.887  16.234
  734TIP3    H223838   5.083   0.833  16.113
  735TIP3   OH223839   4.444   1.387  15.731
  735TIP3    H123840   4.445   1.339  15.648
  735TIP3    H223841   4.524   1.355  15.776
  736TIP3   OH223842   4.348   0.928  15.828
  736TIP3    H123843   4.406   0.938  15.752
  736TIP3    H223844   4.386   0.994  15.890
  737TIP3   OH223845   4.990   1.483  15.898
  737TIP3    H123846   4.960   1.547  15.964
  737TIP3    H223847   4.963   1.398  15.941
  738TIP3   OH223848   4.497   1.378  16.274
  738TIP3    H123849   4.437   1.424  16.340
  738TIP3    H223850   4.414   1.345  16.232
  739TIP3   OH223851   4.137   0.981  16.213
  739TIP3    H123852   4.145   1.050  16.283
  739TIP3    H223853   4.044   0.997  16.191
  740TIP3   OH223854   4.812   1.578  15.386
  740TIP3    H123855   4.857   1.608  15.465
  740TIP3    H223856   4.759   1.654  15.361
  741TIP3   OH223857   4.245   1.654  16.369
  741TIP3    H123858   4.273   1.592  16.299
  741TIP3    H223859   4.191   1.582  16.407
  742TIP3   OH223860   5.423   0.104  15.039
  742TIP3    H123861   5.327   0.086  15.043
  742TIP3    H223862   5.426   0.169  14.967
  743TIP3   OH223863   3.804   1.194  16.113
  743TIP3    H123864   3.776   1.187  16.021
  743TIP3    H223865   3.829   1.102  16.132
  744TIP3   OH223866   3.798   1.471  15.790
  744TIP3    H123867   3.894   1.459  15.787
  744TIP3    H223868   3.790   1.553  15.841
  745TIP3   OH223869   5.620   1.541  16.356
  745TIP3    H123870   5.609   1.445  16.357
  745TIP3    H223871   5.535   1.566  16.400
  746TIP3   OH223872   4.724   1.498  16.246
  746TIP3    H123873   4.721   1.580  16.299
  746TIP3    H223874   4.635   1.458  16.266
  747TIP3   OH223875   4.758   1.868  15.221
  747TIP3    H123876   4.755   1.866  15.125
  747TIP3    H223877   4.763   1.964  15.242
  748TIP3   OH223878   4.123   1.759  15.409
  748TIP3    H123879   4.140   1.715  15.496
  748TIP3    H223880   4.040   1.715  15.385
  749TIP3   OH223881   5.067   1.792  14.926
  749TIP3    H123882   5.108   1.716  14.878
  749TIP3    H223883   5.067   1.761  15.017
  750TIP3   OH223884   5.034   1.788  15.204
  750TIP3    H123885   4.938   1.791  15.218
  750TIP3    H223886   5.058   1.710  15.255
  751TIP3   OH223887   5.335   0.691  16.405
  751TIP3    H123888   5.286   0.732  16.332
  751TIP3    H223889   5.335   0.598  16.375
  752TIP3   OH223890   4.022   1.315  16.178
  752TIP3    H123891   4.063   1.304  16.268
  752TIP3    H223892   3.936   1.273  16.184
  753TIP3   OH223893   4.314   0.193  15.807
  753TIP3    H123894   4.227   0.174  15.767
  753TIP3    H223895   4.295   0.274  15.856
  754TIP3   OH223896   4.779   0.138  16.136
  754TIP3    H123897   4.821   0.109  16.218
  754TIP3    H223898   4.683   0.134  16.155
  755TIP3   OH223899   5.101   0.528  16.215
  755TIP3    H123900   5.061   0.506  16.303
  755TIP3    H223901   5.094   0.624  16.206
  756TIP3   OH223902   4.329   0.675  15.928
  756TIP3    H123903   4.254   0.674  15.990
  756TIP3    H223904   4.323   0.765  15.889
  757TIP3   OH223905   4.324   0.683  15.415
  757TIP3    H123906   4.230   0.662  15.398
  757TIP3    H223907   4.363   0.658  15.330
  758TIP3   OH223908   4.780   0.760  16.440
  758TIP3    H123909   4.730   0.677  16.462
  758TIP3    H223910   4.867   0.741  16.478
  759TIP3   OH223911   4.089   0.699  16.094
  759TIP3    H123912   4.099   0.739  16.182
  759TIP3    H223913   4.047   0.614  16.116
  760TIP3   OH223914   3.757   0.411  15.495
  760TIP3    H123915   3.826   0.407  15.563
  760TIP3    H223916   3.799   0.374  15.415
  761TIP3   OH223917   4.900   0.843  16.032
  761TIP3    H123918   4.937   0.774  15.973
  761TIP3    H223919   4.851   0.791  16.097
  762TIP3   OH223920   4.578   0.429  15.515
  762TIP3    H123921   4.485   0.440  15.544
  762TIP3    H223922   4.627   0.428  15.598
  763TIP3   OH223923   4.057   0.594  15.403
  763TIP3    H123924   3.971   0.609  15.360
  763TIP3    H223925   4.089   0.511  15.364
  764TIP3   OH223926   4.427   0.597  15.157
  764TIP3    H123927   4.516   0.619  15.187
  764TIP3    H223928   4.403   0.673  15.101
  765TIP3   OH223929   5.020   0.364  15.836
  765TIP3    H123930   4.953   0.368  15.909
  765TIP3    H223931   4.968   0.340  15.757
  766TIP3   OH223932   5.339   1.929  16.474
  766TIP3    H123933   5.367   1.965  16.388
  766TIP3    H223934   5.412   1.959  16.530
  767TIP3   OH223935   4.104   1.143  16.447
  767TIP3    H123936   4.175   1.204  16.478
  767TIP3    H223937   4.027   1.186  16.487
  768TIP3   OH223938   4.717   0.718  15.706
  768TIP3    H123939   4.759   0.654  15.648
  768TIP3    H223940   4.688   0.664  15.780
  769TIP3   OH223941   4.208   0.335  15.342
  769TIP3    H123942   4.174   0.243  15.345
  769TIP3    H223943   4.288   0.326  15.290
  770TIP3   OH223944   4.571   0.549  15.945
  770TIP3    H123945   4.488   0.601  15.953
  770TIP3    H223946   4.626   0.583  16.017
  771TIP3   OH223947   5.350   1.092  15.995
  771TIP3    H123948   5.405   1.140  15.931
  771TIP3    H223949   5.263   1.096  15.949
  772TIP3   OH223950   4.782   1.197  16.240
  772TIP3    H123951   4.743   1.156  16.317
  772TIP3    H223952   4.753   1.289  16.248
  773TIP3   OH223953   4.140   1.111  15.694
  773TIP3    H123954   4.210   1.104  15.627
  773TIP3    H223955   4.147   1.025  15.740
  774TIP3   OH223956   3.837   0.949  16.222
  774TIP3    H123957   3.857   0.905  16.307
  774TIP3    H223958   3.777   0.888  16.177
  775TIP3   OH223959   4.541   0.902  16.441
  775TIP3    H123960   4.508   0.879  16.353
  775TIP3    H223961   4.635   0.874  16.435
  776TIP3   OH223962   5.010   1.441  16.234
  776TIP3    H123963   4.917   1.459  16.211
  776TIP3    H223964   5.007   1.470  16.327
  777TIP3   OH223965   5.586   0.661  15.067
  777TIP3    H123966   5.521   0.626  15.005
  777TIP3    H223967   5.583   0.756  15.047
  778TIP3   OH223968   5.577   1.244  16.352
  778TIP3    H123969   5.488   1.267  16.317
  778TIP3    H223970   5.630   1.240  16.269
  779TIP3   OH223971   5.412   1.536  15.113
  779TIP3    H123972   5.362   1.459  15.146
  779TIP3    H223973   5.427   1.516  15.021
  780TIP3   OH223974   5.126   1.024  15.820
  780TIP3    H123975   5.032   1.001  15.814
  780TIP3    H223976   5.169   0.947  15.777
  781TIP3   OH223977   4.374   1.459  15.439
  781TIP3    H123978   4.429   1.534  15.413
  781TIP3    H223979   4.289   1.481  15.400
  782TIP3   OH223980   3.957   0.940  14.885
  782TIP3    H123981   4.016   1.005  14.929
  782TIP3    H223982   3.869   0.967  14.917
  783TIP3   OH223983   4.567   1.643  16.023
  783TIP3    H123984   4.613   1.724  15.997
  783TIP3    H223985   4.626   1.606  16.092
  784TIP3   OH223986   4.388   1.723  15.337
  784TIP3    H123987   4.293   1.735  15.357
  784TIP3    H223988   4.425   1.806  15.374
  785TIP3   OH223989   4.914   1.238  15.985
  785TIP3    H123990   4.885   1.223  16.077
  785TIP3    H223991   4.982   1.170  15.972
  786TIP3   OH223992   5.200   1.699  16.236
  786TIP3    H123993   5.130   1.650  16.189
  786TIP3    H223994   5.218   1.769  16.170
  787TIP3   OH223995   4.006   0.423  16.179
  787TIP3    H123996   3.915   0.458  16.174
  787TIP3    H223997   3.992   0.335  16.218
  788TIP3   OH223998   5.237   1.225  15.140
  788TIP3    H123999   5.204   1.138  15.167
  788TIP3    H224000   5.332   1.211  15.132
  789TIP3   OH224001   3.968   1.602  16.018
  789TIP3    H124002   3.999   1.510  16.020
  789TIP3    H224003   3.995   1.632  16.106
  790TIP3   OH224004   4.093   1.133  15.035
  790TIP3    H124005   4.026   1.169  15.096
  790TIP3    H224006   4.144   1.212  15.015
  791TIP3   OH224007   4.879   0.400  16.071
  791TIP3    H124008   4.952   0.410  16.135
  791TIP3    H224009   4.845   0.311  16.092
  792TIP3   OH224010   4.717   1.578  15.061
  792TIP3    H124011   4.643   1.635  15.072
  792TIP3    H224012   4.777   1.624  15.000
  793TIP3   OH224013   4.734   0.636  16.182
  793TIP3    H124014   4.740   0.691  16.262
  793TIP3    H224015   4.800   0.566  16.193
  794TIP3   OH224016   4.761   0.241  15.351
  794TIP3    H124017   4.726   0.304  15.419
  794TIP3    H224018   4.829   0.296  15.310
  795TIP3   OH224019   4.330   0.345  15.025
  795TIP3    H124020   4.319   0.436  15.056
  795TIP3    H224021   4.422   0.329  15.048
  796TIP3   OH224022   5.370   0.470  16.235
  796TIP3    H124023   5.276   0.449  16.258
  796TIP3    H224024   5.379   0.414  16.156
  797TIP3   OH224025   5.207   0.802  15.673
  797TIP3    H124026   5.132   0.755  15.637
  797TIP3    H224027   5.261   0.733  15.719
  798TIP3   OH224028   4.152   1.394  14.933
  798TIP3    H124029   4.212   1.464  14.955
  798TIP3    H224030   4.195   1.351  14.857
  799TIP3   OH224031   5.317   1.729  15.834
  799TIP3    H124032   5.308   1.797  15.764
  799TIP3    H224033   5.413   1.734  15.851
  800TIP3   OH224034   4.044   0.155  15.717
  800TIP3    H124035   4.048   0.146  15.619
  800TIP3    H224036   4.035   0.061  15.740
  801TIP3   OH224037   3.959   1.536  15.331
  801TIP3    H124038   3.873   1.579  15.324
  801TIP3    H224039   4.008   1.578  15.259
  802TIP3   OH224040   3.878   1.799  16.460
  802TIP3    H124041   3.945   1.777  16.529
  802TIP3    H224042   3.845   1.711  16.439
  803TIP3   OH224043   4.352   1.685  16.623
  803TIP3    H124044   4.430   1.636  16.650
  803TIP3    H224045   4.345   1.665  16.527
  804TIP3   OH224046   5.000   1.529  16.493
  804TIP3    H124047   4.969   1.440  16.519
  804TIP3    H224048   5.079   1.540  16.549
  805TIP3   OH224049   5.224   1.621  14.787
  805TIP3    H124050   5.244   1.532  14.820
  805TIP3    H224051   5.292   1.638  14.722
  806TIP3   OH224052   3.867   1.173  16.559
  806TIP3    H124053   3.894   1.086  16.523
  806TIP3    H224054   3.800   1.202  16.495
  807TIP3   OH224055   4.546   1.171  16.493
  807TIP3    H124056   4.509   1.206  16.409
  807TIP3    H224057   4.551   1.074  16.478
  808TIP3   OH224058   5.113   1.160  16.234
  808TIP3    H124059   5.193   1.218  16.229
  808TIP3    H224060   5.043   1.227  16.239
  809TIP3   OH224061   3.956   0.893  16.496
  809TIP3    H124062   4.007   0.812  16.488
  809TIP3    H224063   3.943   0.900  16.592
  810TIP3   OH224064   4.356   0.793  16.231
  810TIP3    H124065   4.296   0.866  16.256
  810TIP3    H224066   4.395   0.828  16.150
  811TIP3   OH224067   4.862   1.050  16.574
  811TIP3    H124068   4.956   1.047  16.549
  811TIP3    H224069   4.849   0.968  16.623
  812TIP3   OH224070   4.396   0.531  16.335
  812TIP3    H124071   4.408   0.459  16.270
  812TIP3    H224072   4.391   0.611  16.280
  813TIP3   OH224073   4.437   0.370  16.090
  813TIP3    H124074   4.487   0.417  16.019
  813TIP3    H224075   4.347   0.358  16.050
  814TIP3   OH224076   4.589   0.918  16.118
  814TIP3    H124077   4.665   0.900  16.060
  814TIP3    H224078   4.552   1.002  16.084
  815TIP3   OH224079   5.029   0.690  16.614
  815TIP3    H124080   5.053   0.596  16.599
  815TIP3    H224081   5.117   0.732  16.610
  816TIP3   OH224082   5.164   0.975  16.432
  816TIP3    H124083   5.138   1.044  16.368
  816TIP3    H224084   5.259   0.968  16.409
  817TIP3   OH224085   4.243   0.654  16.530
  817TIP3    H124086   4.165   0.599  16.510
  817TIP3    H224087   4.307   0.620  16.464
  818TIP3   OH224088   4.506   0.127  16.149
  818TIP3    H124089   4.497   0.223  16.126
  818TIP3    H224090   4.441   0.088  16.088
  819TIP3   OH224091   4.640   0.548  16.497
  819TIP3    H124092   4.608   0.515  16.583
  819TIP3    H224093   4.566   0.524  16.438
  820TIP3   OH224094   4.911   0.467  16.404
  820TIP3    H124095   4.816   0.461  16.417
  820TIP3    H224096   4.944   0.398  16.468
  821TIP3   OH224097   5.023   0.324  16.612
  821TIP3    H124098   5.067   0.237  16.596
  821TIP3    H224099   5.042   0.346  16.705
  822TIP3   OH224100   4.049   0.446  16.504
  822TIP3    H124101   4.077   0.373  16.446
  822TIP3    H224102   4.043   0.401  16.591
  823TIP3   OH224103   4.534   7.390  16.399
  823TIP3    H124104   4.602   7.323  16.408
  823TIP3    H224105   4.528   7.413  16.304
  824TIP3   OH224106   4.571   0.215  16.608
  824TIP3    H124107   4.556   0.160  16.528
  824TIP3    H224108   4.513   0.292  16.598
  825TIP3   OH224109   3.882   1.358  14.881
  825TIP3    H124110   3.976   1.374  14.893
  825TIP3    H224111   3.880   1.300  14.803
  826TIP3   OH224112   3.755   1.900  15.373
  826TIP3    H124113   3.682   1.853  15.328
  826TIP3    H224114   3.780   1.835  15.441
  827TIP3   OH224115   3.835   1.713  15.562
  827TIP3    H124116   3.800   1.625  15.581
  827TIP3    H224117   3.858   1.746  15.650
  828TIP3   OH224118   5.589   1.793  15.853
  828TIP3    H124119   5.592   1.809  15.949
  828TIP3    H224120   5.659   1.851  15.823
  829TIP3   OH224121   5.546   1.752  16.148
  829TIP3    H124122   5.499   1.675  16.110
  829TIP3    H224123   5.594   1.707  16.219
  830TIP3   OH224124   5.391   1.323  16.615
  830TIP3    H124125   5.301   1.322  16.653
  830TIP3    H224126   5.428   1.404  16.656
  831TIP3   OH224127   5.524   1.152  15.156
  831TIP3    H124128   5.609   1.194  15.179
  831TIP3    H224129   5.520   1.084  15.227
  832TIP3   OH224130   5.561   0.967  15.346
  832TIP3    H124131   5.484   0.915  15.381
  832TIP3    H224132   5.618   0.977  15.424
  833TIP3   OH224133   5.534   1.235  15.845
  833TIP3    H124134   5.615   1.197  15.808
  833TIP3    H224135   5.548   1.330  15.829
  834TIP3   OH224136   5.390   1.524  16.073
  834TIP3    H124137   5.321   1.559  16.131
  834TIP3    H224138   5.335   1.485  16.001
  835TIP3   OH224139   5.592   0.946  14.987
  835TIP3    H124140   5.538   0.985  14.916
  835TIP3    H224141   5.583   1.017  15.053
  836TIP3   OH224142   5.345   0.813  15.405
  836TIP3    H124143   5.322   0.719  15.395
  836TIP3    H224144   5.307   0.833  15.492
  837TIP3   OH224145   3.841   1.022  15.810
  837TIP3    H124146   3.860   1.013  15.714
  837TIP3    H224147   3.931   1.003  15.845
  838TIP3   OH224148   5.426   1.009  16.376
  838TIP3    H124149   5.487   0.933  16.385
  838TIP3    H224150   5.487   1.086  16.372
  839TIP3   OH224151   5.576   0.797  16.438
  839TIP3    H124152   5.488   0.756  16.421
  839TIP3    H224153   5.633   0.718  16.431
  840TIP3   OH224154   5.312   0.573  15.256
  840TIP3    H124155   5.337   0.479  15.262
  840TIP3    H224156   5.386   0.611  15.210
  841TIP3   OH224157   5.371   0.626  15.794
  841TIP3    H124158   5.467   0.648  15.793
  841TIP3    H224159   5.353   0.638  15.889
  842TIP3   OH224160   5.377   0.700  16.063
  842TIP3    H124161   5.291   0.724  16.105
  842TIP3    H224162   5.421   0.786  16.049
  843TIP3   OH224163   3.803   0.552  16.424
  843TIP3    H124164   3.896   0.528  16.443
  843TIP3    H224165   3.757   0.469  16.451
  844TIP3   OH224166   5.619   0.102  16.608
  844TIP3    H124167   5.637   0.036  16.540
  844TIP3    H224168   5.609   0.183  16.555
  845TIP3   OH224169   5.376   0.298  15.252
  845TIP3    H124170   5.393   0.254  15.337
  845TIP3    H224171   5.316   0.233  15.209
  846TIP3   OH224172   3.920   0.383  15.709
  846TIP3    H124173   3.965   0.300  15.735
  846TIP3    H224174   3.978   0.448  15.749
  847TIP3   OH224175   3.751   0.678  15.813
  847TIP3    H124176   3.808   0.654  15.737
  847TIP3    H224177   3.797   0.759  15.840
  848TIP3   OH224178   5.559   0.311  16.437
  848TIP3    H124179   5.464   0.336  16.440
  848TIP3    H224180   5.556   0.253  16.360
  849TIP3   OH224181   3.781   0.324  15.233
  849TIP3    H124182   3.688   0.325  15.207
  849TIP3    H224183   3.828   0.348  15.153
  850TIP3   OH224184   5.261   1.801  15.417
  850TIP3    H124185   5.328   1.770  15.353
  850TIP3    H224186   5.314   1.851  15.481
  851TIP3   OH224187   3.781   0.174  16.050
  851TIP3    H124188   3.717   0.155  16.119
  851TIP3    H224189   3.735   0.239  15.994
  852TIP3   OH224190   3.997   1.498  16.475
  852TIP3    H124191   3.917   1.513  16.426
  852TIP3    H224192   3.972   1.486  16.566
  853TIP3   OH224193   4.295   1.589  16.089
  853TIP3    H124194   4.263   1.679  16.071
  853TIP3    H224195   4.389   1.600  16.065
  854TIP3   OH224196   4.728   1.733  16.386
  854TIP3    H124197   4.742   1.700  16.478
  854TIP3    H224198   4.818   1.765  16.363
  855TIP3   OH224199   4.957   1.861  16.316
  855TIP3    H124200   5.030   1.803  16.293
  855TIP3    H224201   4.994   1.905  16.396
  856TIP3   OH224202   5.463   0.127  16.222
  856TIP3    H124203   5.375   0.158  16.194
  856TIP3    H224204   5.473   0.043  16.175
  857TIP3   OH224205   4.038   1.913  16.094
  857TIP3    H124206   3.965   1.965  16.056
  857TIP3    H224207   4.009   1.895  16.184
  858TIP3   OH224208   4.286   1.874  16.001
  858TIP3    H124209   4.197   1.886  16.042
  858TIP3    H224210   4.279   1.934  15.924
  859TIP3   OH224211   4.756   1.864  15.919
  859TIP3    H124212   4.710   1.920  15.854
  859TIP3    H224213   4.769   1.928  15.993
  860TIP3   OH224214   4.984   1.745  16.022
  860TIP3    H124215   4.900   1.773  15.984
  860TIP3    H224216   5.034   1.828  16.013
  861TIP3   OH224217   5.243   1.902  16.043
  861TIP3    H124218   5.238   1.998  16.020
  861TIP3    H224219   5.265   1.864  15.956
  862TIP3   OH224220   3.985   1.780  15.789
  862TIP3    H124221   3.977   1.733  15.874
  862TIP3    H224222   4.067   1.742  15.750
  863TIP3   OH224223   4.190   1.655  15.656
  863TIP3    H124224   4.175   1.561  15.677
  863TIP3    H224225   4.278   1.667  15.698
  864TIP3   OH224226   4.453   1.700  15.742
  864TIP3    H124227   4.468   1.607  15.714
  864TIP3    H224228   4.457   1.693  15.838
  865TIP3   OH224229   4.794   0.274  15.648
  865TIP3    H124230   4.733   0.205  15.684
  865TIP3    H224231   4.859   0.218  15.604
  866TIP3   OH224232   5.310   0.073  15.664
  866TIP3    H124233   5.371   0.127  15.609
  866TIP3    H224234   5.223   0.107  15.640
  867TIP3   OH224235   5.480   0.196  15.489
  867TIP3    H124236   5.548   0.137  15.453
  867TIP3    H224237   5.529   0.280  15.500
  868TIP3   OH224238   4.040   0.132  15.424
  868TIP3    H124239   3.951   0.108  15.394
  868TIP3    H224240   4.076   0.044  15.443
  869TIP3   OH224241   3.929   0.163  15.093
  869TIP3    H124242   3.958   0.175  15.002
  869TIP3    H224243   3.833   0.165  15.084
  870TIP3   OH224244   4.510   0.164  15.453
  870TIP3    H124245   4.603   0.160  15.428
  870TIP3    H224246   4.497   0.095  15.519
  871TIP3   OH224247   5.032   0.147  15.586
  871TIP3    H124248   5.049   0.146  15.491
  871TIP3    H224249   5.024   0.050  15.601
  872TIP3   OH224250   5.177   0.127  15.155
  872TIP3    H124251   5.107   0.189  15.131
  872TIP3    H224252   5.137   0.039  15.162
  873TIP3   OH224253   3.902   1.699  15.113
  873TIP3    H124254   3.838   1.697  15.040
  873TIP3    H224255   3.900   1.792  15.136
  874TIP3   OH224256   4.600   0.324  15.106
  874TIP3    H124257   4.626   0.265  15.178
  874TIP3    H224258   4.596   0.409  15.150
  875TIP3   OH224259   5.460   1.780  15.220
  875TIP3    H124260   5.438   1.702  15.164
  875TIP3    H224261   5.454   1.853  15.154
  876TIP3   OH224262   4.016   0.181  16.380
  876TIP3    H124263   3.982   0.103  16.426
  876TIP3    H224264   4.107   0.180  16.417
  877TIP3   OH224265   4.207   0.137  16.540
  877TIP3    H124266   4.301   0.112  16.530
  877TIP3    H224267   4.186   0.053  16.585
  878TIP3   OH224268   5.057   7.414  16.559
  878TIP3    H124269   5.068   7.355  16.635
  878TIP3    H224270   5.145   7.403  16.518
  879TIP3   OH224271   5.384   1.654  16.431
  879TIP3    H124272   5.305   1.640  16.374
  879TIP3    H224273   5.374   1.749  16.449
  880TIP3   OH224274   6.830   1.040  15.426
  880TIP3    H124275   6.829   1.138  15.422
  880TIP3    H224276   6.758   1.016  15.366
  881TIP3   OH224277   6.714   0.967  15.774
  881TIP3    H124278   6.713   0.903  15.847
  881TIP3    H224279   6.680   0.915  15.699
  882TIP3   OH224280   5.948   0.936  15.934
  882TIP3    H124281   5.958   0.865  15.999
  882TIP3    H224282   6.027   0.990  15.949
  883TIP3   OH224283   7.084   1.259  15.606
  883TIP3    H124284   7.042   1.189  15.657
  883TIP3    H224285   7.091   1.329  15.673
  884TIP3   OH224286   6.043   1.378  15.786
  884TIP3    H124287   6.012   1.293  15.749
  884TIP3    H224288   6.139   1.363  15.781
  885TIP3   OH224289   5.709   0.735  15.329
  885TIP3    H124290   5.666   0.822  15.325
  885TIP3    H224291   5.652   0.681  15.273
  886TIP3   OH224292   5.779   0.959  15.544
  886TIP3    H124293   5.806   0.876  15.589
  886TIP3    H224294   5.848   0.969  15.478
  887TIP3   OH224295   6.800   1.779  15.628
  887TIP3    H124296   6.862   1.708  15.598
  887TIP3    H224297   6.774   1.744  15.713
  888TIP3   OH224298   6.550   1.205  15.826
  888TIP3    H124299   6.585   1.144  15.758
  888TIP3    H224300   6.632   1.223  15.875
  889TIP3   OH224301   6.868   0.653  15.855
  889TIP3    H124302   6.888   0.557  15.854
  889TIP3    H224303   6.859   0.668  15.758
  890TIP3   OH224304   6.179   0.466  15.575
  890TIP3    H124305   6.192   0.549  15.524
  890TIP3    H224306   6.141   0.407  15.507
  891TIP3   OH224307   6.958   0.468  15.414
  891TIP3    H124308   7.022   0.443  15.485
  891TIP3    H224309   7.007   0.530  15.357
  892TIP3   OH224310   5.843   0.704  15.650
  892TIP3    H124311   5.909   0.649  15.694
  892TIP3    H224312   5.853   0.673  15.559
  893TIP3   OH224313   6.358   0.859  15.583
  893TIP3    H124314   6.426   0.801  15.621
  893TIP3    H224315   6.307   0.794  15.530
  894TIP3   OH224316   6.072   0.357  15.981
  894TIP3    H124317   6.041   0.409  15.904
  894TIP3    H224318   6.002   0.376  16.048
  895TIP3   OH224319   6.796   1.298  15.336
  895TIP3    H124320   6.773   1.277  15.246
  895TIP3    H224321   6.772   1.393  15.342
  896TIP3   OH224322   6.320   1.118  16.015
  896TIP3    H124323   6.252   1.187  16.016
  896TIP3    H224324   6.393   1.171  15.975
  897TIP3   OH224325   7.115   0.400  15.617
  897TIP3    H124326   7.107   0.324  15.674
  897TIP3    H224327   7.188   0.448  15.662
  898TIP3   OH224328   6.028   0.539  15.782
  898TIP3    H124329   6.090   0.606  15.815
  898TIP3    H224330   6.081   0.497  15.709
  899TIP3   OH224331   6.165   1.317  16.089
  899TIP3    H124332   6.166   1.407  16.050
  899TIP3    H224333   6.072   1.319  16.125
  900TIP3   OH224334   5.765   1.283  15.163
  900TIP3    H124335   5.745   1.311  15.074
  900TIP3    H224336   5.781   1.364  15.215
  901TIP3   OH224337   7.128   1.441  15.848
  901TIP3    H124338   7.031   1.455  15.854
  901TIP3    H224339   7.160   1.529  15.822
  902TIP3   OH224340   7.159   0.292  15.974
  902TIP3    H124341   7.084   0.352  15.966
  902TIP3    H224342   7.228   0.329  15.918
  903TIP3   OH224343   6.493   0.105  15.723
  903TIP3    H124344   6.482   0.010  15.722
  903TIP3    H224345   6.402   0.131  15.746
  904TIP3   OH224346   6.960   1.620  15.504
  904TIP3    H124347   7.005   1.551  15.452
  904TIP3    H224348   7.003   1.699  15.464
  905TIP3   OH224349   7.082   1.414  15.350
  905TIP3    H124350   7.056   1.343  15.290
  905TIP3    H224351   7.087   1.365  15.435
  906TIP3   OH224352   7.224   1.286  16.208
  906TIP3    H124353   7.255   1.217  16.146
  906TIP3    H224354   7.264   1.365  16.166
  907TIP3   OH224355   6.698   0.976  15.182
  907TIP3    H124356   6.621   1.013  15.139
  907TIP3    H224357   6.762   0.967  15.108
  908TIP3   OH224358   7.039   0.989  15.268
  908TIP3    H124359   6.966   1.012  15.330
  908TIP3    H224360   7.086   0.923  15.324
  909TIP3   OH224361   7.027   0.800  16.180
  909TIP3    H124362   7.032   0.881  16.233
  909TIP3    H224363   6.968   0.832  16.109
  910TIP3   OH224364   6.200   1.053  15.463
  910TIP3    H124365   6.169   1.014  15.377
  910TIP3    H224366   6.263   0.985  15.494
  911TIP3   OH224367   6.332   1.390  15.731
  911TIP3    H124368   6.331   1.339  15.648
  911TIP3    H224369   6.412   1.356  15.773
  912TIP3   OH224370   6.233   0.928  15.830
  912TIP3    H124371   6.287   0.935  15.747
  912TIP3    H224372   6.275   0.994  15.888
  913TIP3   OH224373   6.871   1.485  15.897
  913TIP3    H124374   6.849   1.548  15.967
  913TIP3    H224375   6.851   1.399  15.940
  914TIP3   OH224376   6.321   1.362  16.300
  914TIP3    H124377   6.290   1.443  16.346
  914TIP3    H224378   6.263   1.361  16.221
  915TIP3   OH224379   6.927   0.907  15.042
  915TIP3    H124380   6.979   0.927  15.123
  915TIP3    H224381   6.968   0.956  14.971
  916TIP3   OH224382   6.007   0.970  16.215
  916TIP3    H124383   5.997   1.018  16.299
  916TIP3    H224384   5.914   0.984  16.185
  917TIP3   OH224385   6.699   1.578  15.381
  917TIP3    H124386   6.742   1.607  15.463
  917TIP3    H224387   6.643   1.654  15.362
  918TIP3   OH224388   6.154   1.569  16.372
  918TIP3    H124389   6.147   1.569  16.275
  918TIP3    H224390   6.060   1.563  16.399
  919TIP3   OH224391   6.096   0.960  15.227
  919TIP3    H124392   6.068   1.032  15.171
  919TIP3    H224393   6.035   0.890  15.200
  920TIP3   OH224394   5.710   1.196  16.112
  920TIP3    H124395   5.661   1.190  16.028
  920TIP3    H224396   5.711   1.100  16.134
  921TIP3   OH224397   5.683   1.472  15.789
  921TIP3    H124398   5.779   1.459  15.788
  921TIP3    H224399   5.675   1.553  15.841
  922TIP3   OH224400   6.601   1.495  16.246
  922TIP3    H124401   6.608   1.578  16.298
  922TIP3    H224402   6.515   1.459  16.272
  923TIP3   OH224403   6.649   1.868  15.224
  923TIP3    H124404   6.636   1.869  15.129
  923TIP3    H224405   6.649   1.964  15.244
  924TIP3   OH224406   6.009   1.759  15.410
  924TIP3    H124407   6.026   1.718  15.498
  924TIP3    H224408   5.925   1.717  15.387
  925TIP3   OH224409   6.921   1.786  15.206
  925TIP3    H124410   6.825   1.792  15.222
  925TIP3    H224411   6.947   1.709  15.257
  926TIP3   OH224412   7.186   0.698  16.412
  926TIP3    H124413   7.172   0.736  16.325
  926TIP3    H224414   7.229   0.613  16.388
  927TIP3   OH224415   5.939   1.320  16.206
  927TIP3    H124416   5.948   1.299  16.301
  927TIP3    H224417   5.847   1.292  16.185
  928TIP3   OH224418   6.199   0.193  15.807
  928TIP3    H124419   6.112   0.173  15.766
  928TIP3    H224420   6.181   0.273  15.856
  929TIP3   OH224421   6.665   0.140  16.138
  929TIP3    H124422   6.705   0.106  16.218
  929TIP3    H224423   6.569   0.135  16.155
  930TIP3   OH224424   6.993   0.524  16.225
  930TIP3    H124425   6.940   0.509  16.306
  930TIP3    H224426   6.980   0.619  16.206
  931TIP3   OH224427   6.214   0.675  15.930
  931TIP3    H124428   6.137   0.671  15.990
  931TIP3    H224429   6.208   0.764  15.888
  932TIP3   OH224430   6.210   0.686  15.413
  932TIP3    H124431   6.117   0.662  15.399
  932TIP3    H224432   6.249   0.657  15.327
  933TIP3   OH224433   6.764   0.735  15.288
  933TIP3    H124434   6.722   0.815  15.253
  933TIP3    H224435   6.830   0.717  15.219
  934TIP3   OH224436   6.667   0.757  16.434
  934TIP3    H124437   6.617   0.678  16.464
  934TIP3    H224438   6.751   0.746  16.481
  935TIP3   OH224439   6.867   0.687  15.573
  935TIP3    H124440   6.837   0.741  15.498
  935TIP3    H224441   6.873   0.600  15.529
  936TIP3   OH224442   5.976   0.698  16.094
  936TIP3    H124443   5.982   0.737  16.183
  936TIP3    H224444   5.930   0.614  16.114
  937TIP3   OH224445   6.314   0.430  14.775
  937TIP3    H124446   6.273   0.397  14.855
  937TIP3    H224447   6.248   0.485  14.732
  938TIP3   OH224448   5.642   0.414  15.495
  938TIP3    H124449   5.710   0.407  15.564
  938TIP3    H224450   5.684   0.374  15.416
  939TIP3   OH224451   6.785   0.842  16.029
  939TIP3    H124452   6.825   0.773  15.972
  939TIP3    H224453   6.738   0.790  16.097
  940TIP3   OH224454   6.464   0.441  15.514
  940TIP3    H124455   6.371   0.436  15.544
  940TIP3    H224456   6.513   0.425  15.596
  941TIP3   OH224457   5.943   0.590  15.405
  941TIP3    H124458   5.857   0.609  15.361
  941TIP3    H224459   5.975   0.509  15.360
  942TIP3   OH224460   6.307   0.608  15.172
  942TIP3    H124461   6.404   0.607  15.175
  942TIP3    H224462   6.289   0.662  15.092
  943TIP3   OH224463   6.902   0.364  15.836
  943TIP3    H124464   6.834   0.368  15.907
  943TIP3    H224465   6.851   0.341  15.757
  944TIP3   OH224466   7.222   1.929  16.474
  944TIP3    H124467   7.252   1.963  16.389
  944TIP3    H224468   7.295   1.959  16.530
  945TIP3   OH224469   6.001   1.172  16.426
  945TIP3    H124470   6.063   1.201  16.496
  945TIP3    H224471   5.918   1.181  16.481
  946TIP3   OH224472   6.595   0.714  15.703
  946TIP3    H124473   6.655   0.658  15.651
  946TIP3    H224474   6.579   0.661  15.782
  947TIP3   OH224475   6.094   0.335  15.339
  947TIP3    H124476   6.063   0.242  15.345
  947TIP3    H224477   6.173   0.325  15.285
  948TIP3   OH224478   6.456   0.548  15.945
  948TIP3    H124479   6.375   0.602  15.953
  948TIP3    H224480   6.513   0.584  16.016
  949TIP3   OH224481   7.220   1.098  15.995
  949TIP3    H124482   7.284   1.115  15.923
  949TIP3    H224483   7.137   1.094  15.943
  950TIP3   OH224484   6.904   0.456  14.931
  950TIP3    H124485   6.809   0.469  14.914
  950TIP3    H224486   6.923   0.544  14.967
  951TIP3   OH224487   6.658   1.198  16.236
  951TIP3    H124488   6.633   1.157  16.319
  951TIP3    H224489   6.647   1.292  16.251
  952TIP3   OH224490   6.974   0.643  15.100
  952TIP3    H124491   7.063   0.634  15.138
  952TIP3    H224492   6.972   0.726  15.048
  953TIP3   OH224493   6.029   1.111  15.696
  953TIP3    H124494   6.095   1.103  15.624
  953TIP3    H224495   6.033   1.023  15.737
  954TIP3   OH224496   5.726   0.952  16.222
  954TIP3    H124497   5.739   0.904  16.306
  954TIP3    H224498   5.663   0.892  16.175
  955TIP3   OH224499   6.427   0.909  16.436
  955TIP3    H124500   6.398   0.871  16.352
  955TIP3    H224501   6.519   0.875  16.440
  956TIP3   OH224502   6.893   1.439  16.233
  956TIP3    H124503   6.801   1.459  16.210
  956TIP3    H224504   6.894   1.469  16.326
  957TIP3   OH224505   7.284   1.541  15.116
  957TIP3    H124506   7.251   1.457  15.147
  957TIP3    H224507   7.317   1.523  15.026
  958TIP3   OH224508   7.006   1.020  15.825
  958TIP3    H124509   6.912   0.999  15.809
  958TIP3    H224510   7.053   0.948  15.780
  959TIP3   OH224511   6.261   1.458  15.435
  959TIP3    H124512   6.314   1.537  15.414
  959TIP3    H224513   6.174   1.482  15.403
  960TIP3   OH224514   6.450   1.642  16.026
  960TIP3    H124515   6.498   1.722  15.997
  960TIP3    H224516   6.512   1.607  16.093
  961TIP3   OH224517   6.275   1.720  15.345
  961TIP3    H124518   6.179   1.737  15.350
  961TIP3    H224519   6.310   1.807  15.372
  962TIP3   OH224520   6.804   1.240  15.987
  962TIP3    H124521   6.770   1.221  16.078
  962TIP3    H224522   6.867   1.169  15.971
  963TIP3   OH224523   7.036   1.328  14.894
  963TIP3    H124524   7.066   1.302  14.982
  963TIP3    H224525   6.941   1.338  14.906
  964TIP3   OH224526   7.081   1.702  16.236
  964TIP3    H124527   7.015   1.649  16.187
  964TIP3    H224528   7.104   1.769  16.168
  965TIP3   OH224529   5.891   0.423  16.178
  965TIP3    H124530   5.800   0.459  16.173
  965TIP3    H224531   5.877   0.335  16.219
  966TIP3   OH224532   7.113   1.207  15.123
  966TIP3    H124533   7.092   1.129  15.179
  966TIP3    H224534   7.208   1.217  15.142
  967TIP3   OH224535   5.852   1.604  16.017
  967TIP3    H124536   5.881   1.512  16.017
  967TIP3    H224537   5.877   1.635  16.105
  968TIP3   OH224538   6.762   0.398  16.074
  968TIP3    H124539   6.838   0.408  16.134
  968TIP3    H224540   6.728   0.309  16.092
  969TIP3   OH224541   6.848   0.359  15.181
  969TIP3    H124542   6.857   0.411  15.099
  969TIP3    H224543   6.894   0.410  15.248
  970TIP3   OH224544   6.602   1.575  15.064
  970TIP3    H124545   6.526   1.633  15.066
  970TIP3    H224546   6.660   1.618  14.999
  971TIP3   OH224547   6.561   0.531  15.265
  971TIP3    H124548   6.639   0.590  15.263
  971TIP3    H224549   6.536   0.524  15.359
  972TIP3   OH224550   6.618   0.635  16.181
  972TIP3    H124551   6.627   0.692  16.260
  972TIP3    H224552   6.684   0.565  16.190
  973TIP3   OH224553   6.648   0.237  15.357
  973TIP3    H124554   6.613   0.306  15.416
  973TIP3    H224555   6.711   0.292  15.304
  974TIP3   OH224556   7.232   0.413  16.258
  974TIP3    H124557   7.143   0.454  16.252
  974TIP3    H224558   7.264   0.423  16.168
  975TIP3   OH224559   7.098   0.804  15.672
  975TIP3    H124560   7.015   0.761  15.639
  975TIP3    H224561   7.137   0.729  15.720
  976TIP3   OH224562   7.207   1.729  15.835
  976TIP3    H124563   7.190   1.798  15.767
  976TIP3    H224564   7.301   1.738  15.852
  977TIP3   OH224565   5.930   0.155  15.716
  977TIP3    H124566   5.933   0.145  15.619
  977TIP3    H224567   5.921   0.062  15.740
  978TIP3   OH224568   5.841   1.530  15.319
  978TIP3    H124569   5.760   1.582  15.327
  978TIP3    H224570   5.901   1.582  15.265
  979TIP3   OH224571   5.766   1.798  16.458
  979TIP3    H124572   5.827   1.779  16.532
  979TIP3    H224573   5.726   1.712  16.441
  980TIP3   OH224574   6.236   1.686  16.618
  980TIP3    H124575   6.314   1.639  16.651
  980TIP3    H224576   6.234   1.660  16.524
  981TIP3   OH224577   6.887   1.528  16.493
  981TIP3    H124578   6.856   1.439  16.519
  981TIP3    H224579   6.964   1.540  16.551
  982TIP3   OH224580   5.762   1.174  16.552
  982TIP3    H124581   5.773   1.081  16.526
  982TIP3    H224582   5.684   1.200  16.500
  983TIP3   OH224583   6.428   1.173  16.493
  983TIP3    H124584   6.401   1.207  16.406
  983TIP3    H224585   6.440   1.076  16.482
  984TIP3   OH224586   6.997   1.156  16.230
  984TIP3    H124587   7.076   1.215  16.227
  984TIP3    H224588   6.930   1.225  16.238
  985TIP3   OH224589   5.858   0.901  16.497
  985TIP3    H124590   5.890   0.811  16.487
  985TIP3    H224591   5.827   0.899  16.590
  986TIP3   OH224592   6.243   0.794  16.232
  986TIP3    H124593   6.177   0.859  16.256
  986TIP3    H224594   6.281   0.826  16.148
  987TIP3   OH224595   6.745   1.051  16.576
  987TIP3    H124596   6.839   1.046  16.550
  987TIP3    H224597   6.732   0.969  16.625
  988TIP3   OH224598   6.283   0.530  16.335
  988TIP3    H124599   6.293   0.458  16.270
  988TIP3    H224600   6.278   0.609  16.280
  989TIP3   OH224601   6.322   0.370  16.090
  989TIP3    H124602   6.373   0.417  16.020
  989TIP3    H224603   6.232   0.358  16.050
  990TIP3   OH224604   6.473   0.918  16.115
  990TIP3    H124605   6.550   0.899  16.061
  990TIP3    H224606   6.444   1.003  16.080
  991TIP3   OH224607   6.916   0.692  16.614
  991TIP3    H124608   6.938   0.598  16.601
  991TIP3    H224609   7.004   0.733  16.610
  992TIP3   OH224610   7.044   0.974  16.429
  992TIP3    H124611   7.023   1.046  16.367
  992TIP3    H224612   7.140   0.968  16.411
  993TIP3   OH224613   6.128   0.655  16.529
  993TIP3    H124614   6.050   0.598  16.511
  993TIP3    H224615   6.192   0.618  16.465
  994TIP3   OH224616   6.392   0.127  16.148
  994TIP3    H124617   6.382   0.223  16.126
  994TIP3    H224618   6.327   0.088  16.088
  995TIP3   OH224619   6.527   0.545  16.495
  995TIP3    H124620   6.496   0.515  16.582
  995TIP3    H224621   6.450   0.525  16.438
  996TIP3   OH224622   6.797   0.465  16.405
  996TIP3    H124623   6.701   0.463  16.416
  996TIP3    H224624   6.827   0.398  16.470
  997TIP3   OH224625   6.966   0.329  16.598
  997TIP3    H124626   6.952   0.231  16.593
  997TIP3    H224627   6.932   0.352  16.687
  998TIP3   OH224628   5.935   0.445  16.505
  998TIP3    H124629   5.962   0.373  16.446
  998TIP3    H224630   5.929   0.400  16.592
  999TIP3   OH224631   6.419   7.390  16.399
  999TIP3    H124632   6.488   7.323  16.406
  999TIP3    H224633   6.414   7.414  16.304
 1000TIP3   OH224634   6.457   0.216  16.607
 1000TIP3    H124635   6.442   0.160  16.528
 1000TIP3    H224636   6.398   0.292  16.597
 1001TIP3   OH224637   5.639   1.902  15.373
 1001TIP3    H124638   5.568   1.853  15.326
 1001TIP3    H224639   5.666   1.835  15.440
 1002TIP3   OH224640   5.722   1.714  15.561
 1002TIP3    H124641   5.685   1.627  15.581
 1002TIP3    H224642   5.745   1.746  15.650
 1003TIP3   OH224643   7.256   1.338  16.600
 1003TIP3    H124644   7.181   1.320  16.659
 1003TIP3    H224645   7.310   1.398  16.655
 1004TIP3   OH224646   7.274   1.517  16.078
 1004TIP3    H124647   7.208   1.562  16.132
 1004TIP3    H224648   7.220   1.484  16.002
 1005TIP3   OH224649   7.188   0.815  15.405
 1005TIP3    H124650   7.205   0.721  15.414
 1005TIP3    H224651   7.186   0.842  15.498
 1006TIP3   OH224652   5.726   1.022  15.809
 1006TIP3    H124653   5.743   1.012  15.713
 1006TIP3    H224654   5.814   1.001  15.845
 1007TIP3   OH224655  -0.041   1.010  16.399
 1007TIP3    H124656   0.019   0.934  16.401
 1007TIP3    H224657   0.014   1.084  16.369
 1008TIP3   OH224658   7.194   0.560  15.236
 1008TIP3    H124659   7.229   0.482  15.279
 1008TIP3    H224660   7.271   0.609  15.207
 1009TIP3   OH224661   7.214   0.575  15.784
 1009TIP3    H124662   7.310   0.585  15.770
 1009TIP3    H224663   7.216   0.621  15.870
 1010TIP3   OH224664   7.261   0.698  16.085
 1010TIP3    H124665   7.171   0.728  16.106
 1010TIP3    H224666   7.302   0.775  16.043
 1011TIP3   OH224667   5.691   0.554  16.426
 1011TIP3    H124668   5.783   0.527  16.444
 1011TIP3    H224669   5.641   0.471  16.449
 1012TIP3   OH224670   5.805   0.383  15.709
 1012TIP3    H124671   5.851   0.300  15.735
 1012TIP3    H224672   5.863   0.448  15.749
 1013TIP3   OH224673   5.636   0.680  15.813
 1013TIP3    H124674   5.693   0.655  15.738
 1013TIP3    H224675   5.682   0.759  15.842
 1014TIP3   OH224676   5.677   0.309  15.225
 1014TIP3    H124677   5.580   0.319  15.212
 1014TIP3    H224678   5.712   0.352  15.147
 1015TIP3   OH224679   7.134   1.787  15.422
 1015TIP3    H124680   7.198   1.753  15.359
 1015TIP3    H224681   7.188   1.845  15.479
 1016TIP3   OH224682   5.667   0.175  16.049
 1016TIP3    H124683   5.602   0.156  16.119
 1016TIP3    H224684   5.620   0.239  15.994
 1017TIP3   OH224685   5.892   1.487  16.467
 1017TIP3    H124686   5.808   1.515  16.425
 1017TIP3    H224687   5.866   1.487  16.560
 1018TIP3   OH224688   6.182   1.591  16.095
 1018TIP3    H124689   6.149   1.678  16.068
 1018TIP3    H224690   6.275   1.602  16.064
 1019TIP3   OH224691   6.614   1.733  16.385
 1019TIP3    H124692   6.626   1.699  16.477
 1019TIP3    H224693   6.704   1.764  16.362
 1020TIP3   OH224694   6.845   1.862  16.316
 1020TIP3    H124695   6.919   1.804  16.293
 1020TIP3    H224696   6.881   1.906  16.396
 1021TIP3   OH224697   5.923   1.913  16.094
 1021TIP3    H124698   5.851   1.965  16.055
 1021TIP3    H224699   5.893   1.897  16.184
 1022TIP3   OH224700   6.171   1.873  16.001
 1022TIP3    H124701   6.082   1.890  16.040
 1022TIP3    H224702   6.166   1.932  15.923
 1023TIP3   OH224703   6.642   1.864  15.919
 1023TIP3    H124704   6.596   1.920  15.854
 1023TIP3    H224705   6.655   1.928  15.993
 1024TIP3   OH224706   6.872   1.744  16.021
 1024TIP3    H124707   6.786   1.772  15.985
 1024TIP3    H224708   6.917   1.830  16.014
 1025TIP3   OH224709   7.125   1.907  16.045
 1025TIP3    H124710   7.118   2.002  16.021
 1025TIP3    H224711   7.152   1.867  15.960
 1026TIP3   OH224712   5.871   1.781  15.789
 1026TIP3    H124713   5.862   1.734  15.875
 1026TIP3    H224714   5.952   1.742  15.750
 1027TIP3   OH224715   6.076   1.653  15.656
 1027TIP3    H124716   6.061   1.559  15.678
 1027TIP3    H224717   6.163   1.668  15.698
 1028TIP3   OH224718   6.335   1.699  15.742
 1028TIP3    H124719   6.353   1.607  15.715
 1028TIP3    H224720   6.343   1.693  15.838
 1029TIP3   OH224721   6.681   0.274  15.651
 1029TIP3    H124722   6.619   0.205  15.683
 1029TIP3    H224723   6.744   0.219  15.603
 1030TIP3   OH224724   7.186   0.080  15.675
 1030TIP3    H124725   7.251   0.121  15.617
 1030TIP3    H224726   7.102   0.108  15.638
 1031TIP3   OH224727   5.927   0.131  15.419
 1031TIP3    H124728   5.835   0.105  15.396
 1031TIP3    H224729   5.962   0.043  15.442
 1032TIP3   OH224730   5.760   0.194  14.970
 1032TIP3    H124731   5.856   0.180  14.966
 1032TIP3    H224732   5.734   0.172  15.061
 1033TIP3   OH224733   6.394   0.165  15.455
 1033TIP3    H124734   6.486   0.161  15.423
 1033TIP3    H224735   6.384   0.094  15.518
 1034TIP3   OH224736   6.919   0.144  15.588
 1034TIP3    H124737   6.931   0.149  15.493
 1034TIP3    H224738   6.909   0.047  15.600
 1035TIP3   OH224739   6.472   0.321  15.109
 1035TIP3    H124740   6.512   0.266  15.177
 1035TIP3    H224741   6.489   0.410  15.146
 1036TIP3   OH224742   5.901   0.181  16.380
 1036TIP3    H124743   5.868   0.103  16.426
 1036TIP3    H224744   5.993   0.180  16.417
 1037TIP3   OH224745   6.092   0.137  16.540
 1037TIP3    H124746   6.186   0.113  16.530
 1037TIP3    H224747   6.072   0.053  16.585
 1038TIP3   OH224748   6.948   7.419  16.559
 1038TIP3    H124749   6.950   7.355  16.633
 1038TIP3    H224750   7.032   7.394  16.519
 1039TIP3   OH224751   7.260   1.649  16.441
 1039TIP3    H124752   7.192   1.636  16.372
 1039TIP3    H224753   7.254   1.747  16.448
 1040TIP3   OH224754   1.169   2.926  15.431
 1040TIP3    H124755   1.176   3.024  15.420
 1040TIP3    H224756   1.101   2.907  15.367
 1041TIP3   OH224757   1.057   2.852  15.775
 1041TIP3    H124758   1.057   2.788  15.847
 1041TIP3    H224759   1.022   2.801  15.700
 1042TIP3   OH224760   0.297   2.819  15.928
 1042TIP3    H124761   0.302   2.751  15.998
 1042TIP3    H224762   0.370   2.878  15.953
 1043TIP3   OH224763   1.425   3.147  15.605
 1043TIP3    H124764   1.385   3.075  15.655
 1043TIP3    H224765   1.429   3.218  15.671
 1044TIP3   OH224766   0.381   3.265  15.782
 1044TIP3    H124767   0.351   3.178  15.750
 1044TIP3    H224768   0.477   3.247  15.785
 1045TIP3   OH224769   0.070   2.623  15.299
 1045TIP3    H124770   0.021   2.702  15.330
 1045TIP3    H224771  -0.005   2.566  15.287
 1046TIP3   OH224772   0.118   2.838  15.540
 1046TIP3    H124773   0.146   2.761  15.592
 1046TIP3    H224774   0.192   2.852  15.479
 1047TIP3   OH224775   1.140   3.664  15.628
 1047TIP3    H124776   1.204   3.595  15.598
 1047TIP3    H224777   1.117   3.629  15.714
 1048TIP3   OH224778   0.895   3.092  15.824
 1048TIP3    H124779   0.929   3.030  15.757
 1048TIP3    H224780   0.977   3.108  15.875
 1049TIP3   OH224781   1.755   2.265  15.897
 1049TIP3    H124782   1.799   2.309  15.972
 1049TIP3    H224783   1.812   2.296  15.825
 1050TIP3   OH224784   1.215   2.539  15.854
 1050TIP3    H124785   1.228   2.443  15.854
 1050TIP3    H224786   1.200   2.554  15.759
 1051TIP3   OH224787   0.524   2.348  15.575
 1051TIP3    H124788   0.535   2.431  15.526
 1051TIP3    H224789   0.484   2.291  15.506
 1052TIP3   OH224790   1.298   2.357  15.410
 1052TIP3    H124791   1.361   2.325  15.480
 1052TIP3    H224792   1.357   2.415  15.360
 1053TIP3   OH224793   0.188   2.587  15.641
 1053TIP3    H124794   0.255   2.537  15.693
 1053TIP3    H224795   0.204   2.553  15.551
 1054TIP3   OH224796   0.703   2.745  15.581
 1054TIP3    H124797   0.768   2.686  15.622
 1054TIP3    H224798   0.650   2.679  15.531
 1055TIP3   OH224799   1.833   2.409  16.144
 1055TIP3    H124800   1.794   2.498  16.144
 1055TIP3    H224801   1.816   2.382  16.237
 1056TIP3   OH224802   0.415   2.238  15.980
 1056TIP3    H124803   0.387   2.295  15.905
 1056TIP3    H224804   0.346   2.261  16.047
 1057TIP3   OH224805   1.143   3.184  15.336
 1057TIP3    H124806   1.121   3.163  15.244
 1057TIP3    H224807   1.114   3.278  15.341
 1058TIP3   OH224808   0.668   3.003  16.003
 1058TIP3    H124809   0.595   3.066  16.026
 1058TIP3    H224810   0.737   3.064  15.974
 1059TIP3   OH224811   1.478   2.295  15.610
 1059TIP3    H124812   1.456   2.216  15.661
 1059TIP3    H224813   1.545   2.336  15.666
 1060TIP3   OH224814   0.370   2.420  15.783
 1060TIP3    H124815   0.430   2.491  15.816
 1060TIP3    H224816   0.425   2.383  15.709
 1061TIP3   OH224817   0.509   3.202  16.084
 1061TIP3    H124818   0.504   3.294  16.052
 1061TIP3    H224819   0.421   3.194  16.128
 1062TIP3   OH224820   0.111   3.172  15.163
 1062TIP3    H124821   0.099   3.197  15.071
 1062TIP3    H224822   0.126   3.251  15.218
 1063TIP3   OH224823   1.479   3.331  15.841
 1063TIP3    H124824   1.382   3.342  15.853
 1063TIP3    H224825   1.506   3.423  15.820
 1064TIP3   OH224826   1.516   2.189  15.995
 1064TIP3    H124827   1.430   2.219  15.962
 1064TIP3    H224828   1.576   2.192  15.917
 1065TIP3   OH224829   0.808   1.972  15.725
 1065TIP3    H124830   0.794   1.875  15.719
 1065TIP3    H224831   0.721   2.002  15.758
 1066TIP3   OH224832   1.306   3.508  15.500
 1066TIP3    H124833   1.348   3.437  15.448
 1066TIP3    H224834   1.349   3.587  15.460
 1067TIP3   OH224835   1.431   3.303  15.352
 1067TIP3    H124836   1.396   3.235  15.291
 1067TIP3    H224837   1.430   3.252  15.434
 1068TIP3   OH224838   1.588   3.162  16.201
 1068TIP3    H124839   1.603   3.097  16.129
 1068TIP3    H224840   1.609   3.246  16.156
 1069TIP3   OH224841   1.774   2.790  16.002
 1069TIP3    H124842   1.713   2.866  16.009
 1069TIP3    H224843   1.827   2.819  15.925
 1070TIP3   OH224844   1.379   2.865  15.269
 1070TIP3    H124845   1.313   2.900  15.331
 1070TIP3    H224846   1.434   2.807  15.323
 1071TIP3   OH224847   1.374   2.690  16.181
 1071TIP3    H124848   1.375   2.771  16.234
 1071TIP3    H224849   1.309   2.718  16.113
 1072TIP3   OH224850   0.547   2.939  15.462
 1072TIP3    H124851   0.509   2.898  15.380
 1072TIP3    H224852   0.606   2.868  15.495
 1073TIP3   OH224853   0.676   3.275  15.728
 1073TIP3    H124854   0.676   3.224  15.647
 1073TIP3    H224855   0.754   3.240  15.775
 1074TIP3   OH224856   0.578   2.813  15.828
 1074TIP3    H124857   0.632   2.823  15.747
 1074TIP3    H224858   0.616   2.880  15.888
 1075TIP3   OH224859   1.219   3.370  15.899
 1075TIP3    H124860   1.189   3.434  15.964
 1075TIP3    H224861   1.193   3.285  15.940
 1076TIP3   OH224862   0.672   3.255  16.297
 1076TIP3    H124863   0.630   3.329  16.346
 1076TIP3    H224864   0.605   3.235  16.227
 1077TIP3   OH224865   0.371   2.873  16.216
 1077TIP3    H124866   0.372   2.942  16.285
 1077TIP3    H224867   0.277   2.879  16.190
 1078TIP3   OH224868   1.042   3.466  15.380
 1078TIP3    H124869   1.086   3.495  15.461
 1078TIP3    H224870   0.985   3.540  15.360
 1079TIP3   OH224871   0.497   3.458  16.371
 1079TIP3    H124872   0.488   3.449  16.275
 1079TIP3    H224873   0.404   3.446  16.400
 1080TIP3   OH224874   0.444   2.837  15.226
 1080TIP3    H124875   0.418   2.915  15.172
 1080TIP3    H224876   0.376   2.776  15.200
 1081TIP3   OH224877   0.093   3.074  16.091
 1081TIP3    H124878   0.021   3.079  16.026
 1081TIP3    H224879   0.066   2.989  16.131
 1082TIP3   OH224880   0.043   3.373  15.771
 1082TIP3    H124881   0.131   3.339  15.792
 1082TIP3    H224882   0.024   3.431  15.845
 1083TIP3   OH224883   1.849   3.427  16.356
 1083TIP3    H124884   1.838   3.331  16.357
 1083TIP3    H224885   1.763   3.452  16.400
 1084TIP3   OH224886   0.945   3.381  16.246
 1084TIP3    H124887   0.951   3.464  16.298
 1084TIP3    H224888   0.858   3.345  16.270
 1085TIP3   OH224889   0.991   3.754  15.226
 1085TIP3    H124890   0.979   3.746  15.130
 1085TIP3    H224891   0.993   3.850  15.242
 1086TIP3   OH224892   0.355   3.642  15.407
 1086TIP3    H124893   0.371   3.602  15.496
 1086TIP3    H224894   0.270   3.602  15.385
 1087TIP3   OH224895   1.264   3.679  15.213
 1087TIP3    H124896   1.167   3.674  15.216
 1087TIP3    H224897   1.288   3.596  15.255
 1088TIP3   OH224898   1.567   2.574  16.402
 1088TIP3    H124899   1.514   2.619  16.335
 1088TIP3    H224900   1.559   2.481  16.377
 1089TIP3   OH224901   0.280   3.220  16.209
 1089TIP3    H124902   0.296   3.179  16.296
 1089TIP3    H224903   0.195   3.178  16.181
 1090TIP3   OH224904   0.548   2.064  15.800
 1090TIP3    H124905   0.458   2.051  15.764
 1090TIP3    H224906   0.533   2.145  15.850
 1091TIP3   OH224907   1.009   2.034  16.139
 1091TIP3    H124908   1.052   1.985  16.213
 1091TIP3    H224909   0.913   2.016  16.153
 1092TIP3   OH224910   1.343   2.416  16.229
 1092TIP3    H124911   1.284   2.391  16.304
 1092TIP3    H224912   1.318   2.507  16.206
 1093TIP3   OH224913   0.980   2.286  14.873
 1093TIP3    H124914   0.944   2.280  14.964
 1093TIP3    H224915   0.949   2.202  14.838
 1094TIP3   OH224916   0.557   2.560  15.927
 1094TIP3    H124917   0.483   2.558  15.991
 1094TIP3    H224918   0.550   2.650  15.891
 1095TIP3   OH224919   0.553   2.571  15.413
 1095TIP3    H124920   0.459   2.546  15.400
 1095TIP3    H224921   0.590   2.540  15.329
 1096TIP3   OH224922   1.099   2.619  15.283
 1096TIP3    H124923   1.066   2.706  15.256
 1096TIP3    H224924   1.176   2.606  15.227
 1097TIP3   OH224925   1.011   2.642  16.432
 1097TIP3    H124926   0.958   2.565  16.464
 1097TIP3    H224927   1.094   2.631  16.482
 1098TIP3   OH224928   1.209   2.571  15.573
 1098TIP3    H124929   1.181   2.627  15.500
 1098TIP3    H224930   1.218   2.484  15.529
 1099TIP3   OH224931   0.320   2.583  16.095
 1099TIP3    H124932   0.325   2.625  16.182
 1099TIP3    H224933   0.273   2.500  16.115
 1100TIP3   OH224934   0.656   2.330  14.782
 1100TIP3    H124935   0.612   2.279  14.853
 1100TIP3    H224936   0.583   2.364  14.729
 1101TIP3   OH224937   0.014   2.319  15.480
 1101TIP3    H124938   0.054   2.288  15.564
 1101TIP3    H224939   0.037   2.250  15.417
 1102TIP3   OH224940   0.110   2.379  15.025
 1102TIP3    H124941   0.162   2.436  14.967
 1102TIP3    H224942   0.040   2.438  15.053
 1103TIP3   OH224943   1.127   2.729  16.030
 1103TIP3    H124944   1.164   2.661  15.970
 1103TIP3    H224945   1.081   2.676  16.097
 1104TIP3   OH224946   0.807   2.327  15.514
 1104TIP3    H124947   0.714   2.327  15.544
 1104TIP3    H224948   0.856   2.309  15.596
 1105TIP3   OH224949   0.297   2.482  15.397
 1105TIP3    H124950   0.206   2.496  15.363
 1105TIP3    H224951   0.318   2.394  15.360
 1106TIP3   OH224952   0.648   2.489  15.167
 1106TIP3    H124953   0.745   2.492  15.182
 1106TIP3    H224954   0.632   2.555  15.099
 1107TIP3   OH224955   1.251   2.247  15.839
 1107TIP3    H124956   1.180   2.254  15.907
 1107TIP3    H224957   1.199   2.224  15.760
 1108TIP3   OH224958   1.568   3.814  16.472
 1108TIP3    H124959   1.597   3.851  16.387
 1108TIP3    H224960   1.639   3.843  16.531
 1109TIP3   OH224961   0.340   3.060  16.426
 1109TIP3    H124962   0.408   3.085  16.491
 1109TIP3    H224963   0.261   3.070  16.484
 1110TIP3   OH224964   0.936   2.602  15.701
 1110TIP3    H124965   0.997   2.548  15.651
 1110TIP3    H224966   0.921   2.548  15.781
 1111TIP3   OH224967   0.437   2.219  15.343
 1111TIP3    H124968   0.405   2.126  15.345
 1111TIP3    H224969   0.518   2.208  15.292
 1112TIP3   OH224970   0.801   2.436  15.943
 1112TIP3    H124971   0.718   2.487  15.953
 1112TIP3    H224972   0.856   2.470  16.016
 1113TIP3   OH224973   0.862   3.042  15.119
 1113TIP3    H124974   0.776   3.016  15.089
 1113TIP3    H224975   0.841   3.074  15.209
 1114TIP3   OH224976   1.580   2.973  15.994
 1114TIP3    H124977   1.634   3.025  15.932
 1114TIP3    H224978   1.493   2.980  15.950
 1115TIP3   OH224979   1.008   3.084  16.238
 1115TIP3    H124980   0.973   3.041  16.317
 1115TIP3    H224981   0.983   3.176  16.249
 1116TIP3   OH224982   0.373   2.998  15.694
 1116TIP3    H124983   0.437   2.988  15.622
 1116TIP3    H224984   0.377   2.913  15.740
 1117TIP3   OH224985   1.066   3.202  15.027
 1117TIP3    H124986   1.037   3.291  15.049
 1117TIP3    H224987   0.991   3.143  15.040
 1118TIP3   OH224988   0.093   2.814  16.194
 1118TIP3    H124989   0.102   2.792  16.288
 1118TIP3    H224990   0.008   2.774  16.172
 1119TIP3   OH224991   0.770   2.793  16.437
 1119TIP3    H124992   0.738   2.761  16.352
 1119TIP3    H224993   0.863   2.761  16.437
 1120TIP3   OH224994   1.239   3.326  16.234
 1120TIP3    H124995   1.147   3.344  16.210
 1120TIP3    H224996   1.236   3.356  16.327
 1121TIP3   OH224997   1.801   2.548  15.076
 1121TIP3    H124998   1.753   2.513  15.002
 1121TIP3    H224999   1.820   2.639  15.045
 1122TIP3   OH225000   1.805   3.129  16.352
 1122TIP3    H125001   1.716   3.153  16.316
 1122TIP3    H225002   1.859   3.126  16.271
 1123TIP3   OH225003   1.355   2.909  15.824
 1123TIP3    H125004   1.261   2.888  15.812
 1123TIP3    H225005   1.398   2.834  15.778
 1124TIP3   OH225006   0.607   3.342  15.432
 1124TIP3    H125007   0.657   3.423  15.413
 1124TIP3    H225008   0.520   3.365  15.398
 1125TIP3   OH225009   0.750   3.109  15.384
 1125TIP3    H125010   0.718   3.201  15.394
 1125TIP3    H225011   0.678   3.060  15.429
 1126TIP3   OH225012   0.795   3.527  16.026
 1126TIP3    H125013   0.840   3.607  15.996
 1126TIP3    H225014   0.857   3.492  16.092
 1127TIP3   OH225015   0.617   3.607  15.339
 1127TIP3    H125016   0.522   3.622  15.355
 1127TIP3    H225017   0.654   3.690  15.373
 1128TIP3   OH225018   1.145   3.126  15.987
 1128TIP3    H125019   1.114   3.107  16.078
 1128TIP3    H225020   1.210   3.056  15.971
 1129TIP3   OH225021   1.429   3.584  16.236
 1129TIP3    H125022   1.359   3.536  16.189
 1129TIP3    H225023   1.447   3.655  16.170
 1130TIP3   OH225024   0.233   2.307  16.168
 1130TIP3    H125025   0.145   2.346  16.176
 1130TIP3    H225026   0.223   2.226  16.221
 1131TIP3   OH225027   0.200   3.492  16.014
 1131TIP3    H125028   0.222   3.398  16.017
 1131TIP3    H225029   0.219   3.517  16.105
 1132TIP3   OH225030   0.336   3.020  15.058
 1132TIP3    H125031   0.253   3.058  15.091
 1132TIP3    H225032   0.370   3.092  15.000
 1133TIP3   OH225033   1.112   2.288  16.070
 1133TIP3    H125034   1.178   2.294  16.139
 1133TIP3    H225035   1.070   2.202  16.092
 1134TIP3   OH225036   1.184   2.247  15.177
 1134TIP3    H125037   1.202   2.296  15.098
 1134TIP3    H225038   1.239   2.288  15.246
 1135TIP3   OH225039   0.901   2.426  15.262
 1135TIP3    H125040   0.984   2.477  15.269
 1135TIP3    H225041   0.877   2.407  15.355
 1136TIP3   OH225042   0.961   2.523  16.181
 1136TIP3    H125043   0.968   2.577  16.262
 1136TIP3    H225044   1.027   2.453  16.191
 1137TIP3   OH225045   0.987   2.130  15.353
 1137TIP3    H125046   0.955   2.193  15.420
 1137TIP3    H225047   1.059   2.181  15.308
 1138TIP3   OH225048   0.679   3.566  15.065
 1138TIP3    H125049   0.706   3.643  15.011
 1138TIP3    H225050   0.663   3.600  15.155
 1139TIP3   OH225051   0.562   2.240  15.021
 1139TIP3    H125052   0.552   2.327  15.062
 1139TIP3    H225053   0.650   2.210  15.050
 1140TIP3   OH225054   1.580   2.314  16.265
 1140TIP3    H125055   1.484   2.338  16.258
 1140TIP3    H225056   1.600   2.284  16.177
 1141TIP3   OH225057   1.439   2.688  15.672
 1141TIP3    H125058   1.358   2.645  15.638
 1141TIP3    H225059   1.487   2.616  15.717
 1142TIP3   OH225060   1.546   3.614  15.833
 1142TIP3    H125061   1.537   3.683  15.764
 1142TIP3    H225062   1.642   3.619  15.851
 1143TIP3   OH225063   0.292   2.027  15.713
 1143TIP3    H125064   0.276   2.026  15.616
 1143TIP3    H225065   0.253   1.941  15.739
 1144TIP3   OH225066   0.189   3.420  15.329
 1144TIP3    H125067   0.104   3.465  15.329
 1144TIP3    H225068   0.244   3.467  15.267
 1145TIP3   OH225069   0.131   3.683  16.452
 1145TIP3    H125070   0.176   3.661  16.536
 1145TIP3    H225071   0.075   3.603  16.442
 1146TIP3   OH225072   0.579   3.567  16.624
 1146TIP3    H125073   0.662   3.524  16.646
 1146TIP3    H225074   0.575   3.548  16.527
 1147TIP3   OH225075   1.226   3.415  16.493
 1147TIP3    H125076   1.197   3.325  16.519
 1147TIP3    H225077   1.306   3.426  16.548
 1148TIP3   OH225078   0.117   3.059  16.554
 1148TIP3    H125079   0.120   2.966  16.527
 1148TIP3    H225080   0.034   3.090  16.513
 1149TIP3   OH225081   0.774   3.058  16.492
 1149TIP3    H125082   0.740   3.090  16.407
 1149TIP3    H225083   0.781   2.960  16.481
 1150TIP3   OH225084   1.343   3.046  16.235
 1150TIP3    H125085   1.422   3.103  16.229
 1150TIP3    H225086   1.273   3.113  16.239
 1151TIP3   OH225087   0.187   2.781  16.494
 1151TIP3    H125088   0.237   2.698  16.487
 1151TIP3    H225089   0.176   2.786  16.591
 1152TIP3   OH225090   0.583   2.678  16.231
 1152TIP3    H125091   0.521   2.749  16.256
 1152TIP3    H225092   0.623   2.714  16.150
 1153TIP3   OH225093   1.091   2.935  16.573
 1153TIP3    H125094   1.186   2.931  16.551
 1153TIP3    H225095   1.075   2.856  16.625
 1154TIP3   OH225096   0.629   2.416  16.334
 1154TIP3    H125097   0.636   2.345  16.269
 1154TIP3    H225098   0.617   2.497  16.281
 1155TIP3   OH225099   0.665   2.253  16.091
 1155TIP3    H125100   0.716   2.300  16.020
 1155TIP3    H225101   0.576   2.246  16.051
 1156TIP3   OH225102   0.818   2.803  16.116
 1156TIP3    H125103   0.894   2.786  16.058
 1156TIP3    H225104   0.782   2.886  16.082
 1157TIP3   OH225105   1.259   2.576  16.611
 1157TIP3    H125106   1.280   2.482  16.602
 1157TIP3    H225107   1.346   2.619  16.611
 1158TIP3   OH225108   1.394   2.860  16.432
 1158TIP3    H125109   1.367   2.929  16.368
 1158TIP3    H225110   1.489   2.854  16.408
 1159TIP3   OH225111   0.469   2.541  16.529
 1159TIP3    H125112   0.391   2.483  16.511
 1159TIP3    H225113   0.533   2.505  16.465
 1160TIP3   OH225114   0.743   1.996  16.132
 1160TIP3    H125115   0.728   2.092  16.121
 1160TIP3    H225116   0.669   1.960  16.080
 1161TIP3   OH225117   0.871   2.430  16.495
 1161TIP3    H125118   0.838   2.408  16.584
 1161TIP3    H225119   0.794   2.411  16.439
 1162TIP3   OH225120   1.143   2.343  16.399
 1162TIP3    H125121   1.047   2.350  16.414
 1162TIP3    H225122   1.170   2.281  16.469
 1163TIP3   OH225123   1.297   2.207  16.592
 1163TIP3    H125124   1.296   2.109  16.596
 1163TIP3    H225125   1.275   2.236  16.684
 1164TIP3   OH225126   0.287   2.334  16.504
 1164TIP3    H125127   0.304   2.259  16.445
 1164TIP3    H225128   0.271   2.289  16.591
 1165TIP3   OH225129   0.763   1.936  16.402
 1165TIP3    H125130   0.831   1.865  16.401
 1165TIP3    H225131   0.754   1.951  16.306
 1166TIP3   OH225132   0.800   2.096  16.611
 1166TIP3    H125133   0.783   2.046  16.527
 1166TIP3    H225134   0.743   2.175  16.600
 1167TIP3   OH225135   0.752   3.787  14.929
 1167TIP3    H125136   0.847   3.798  14.931
 1167TIP3    H225137   0.724   3.850  14.862
 1168TIP3   OH225138   7.352   3.791  15.361
 1168TIP3    H125139   7.263   3.772  15.326
 1168TIP3    H225140   7.362   3.729  15.437
 1169TIP3   OH225141   0.059   3.602  15.556
 1169TIP3    H125142   0.029   3.512  15.581
 1169TIP3    H225143   0.088   3.633  15.644
 1170TIP3   OH225144   1.818   3.678  15.853
 1170TIP3    H125145   1.821   3.694  15.949
 1170TIP3    H225146   1.888   3.737  15.823
 1171TIP3   OH225147   1.775   3.638  16.149
 1171TIP3    H125148   1.728   3.561  16.110
 1171TIP3    H225149   1.824   3.592  16.220
 1172TIP3   OH225150   1.620   3.209  16.615
 1172TIP3    H125151   1.530   3.208  16.653
 1172TIP3    H225152   1.656   3.291  16.657
 1173TIP3   OH225153   1.763   3.039  15.157
 1173TIP3    H125154   1.844   3.077  15.188
 1173TIP3    H225155   1.745   2.972  15.226
 1174TIP3   OH225156   1.791   2.848  15.347
 1174TIP3    H125157   1.711   2.802  15.384
 1174TIP3    H225158   1.847   2.862  15.426
 1175TIP3   OH225159   1.763   3.122  15.844
 1175TIP3    H125160   1.844   3.083  15.807
 1175TIP3    H225161   1.778   3.217  15.828
 1176TIP3   OH225162   1.619   3.410  16.073
 1176TIP3    H125163   1.550   3.445  16.131
 1176TIP3    H225164   1.564   3.371  16.001
 1177TIP3   OH225165   1.826   2.839  14.984
 1177TIP3    H125166   1.761   2.868  14.919
 1177TIP3    H225167   1.804   2.900  15.056
 1178TIP3   OH225168   1.568   2.697  15.403
 1178TIP3    H125169   1.551   2.602  15.400
 1178TIP3    H225170   1.538   2.720  15.493
 1179TIP3   OH225171   0.067   2.904  15.808
 1179TIP3    H125172   0.086   2.901  15.712
 1179TIP3    H225173   0.156   2.891  15.846
 1180TIP3   OH225174   1.656   2.894  16.374
 1180TIP3    H125175   1.718   2.819  16.386
 1180TIP3    H225176   1.715   2.972  16.372
 1181TIP3   OH225177   1.805   2.683  16.434
 1181TIP3    H125178   1.717   2.642  16.424
 1181TIP3    H225179   1.863   2.605  16.433
 1182TIP3   OH225180   1.535   2.449  15.247
 1182TIP3    H125181   1.571   2.362  15.269
 1182TIP3    H225182   1.613   2.499  15.217
 1183TIP3   OH225183   1.603   2.502  15.801
 1183TIP3    H125184   1.695   2.537  15.790
 1183TIP3    H225185   1.575   2.541  15.884
 1184TIP3   OH225186   1.599   2.596  16.075
 1184TIP3    H125187   1.510   2.627  16.107
 1184TIP3    H225188   1.645   2.682  16.053
 1185TIP3   OH225189   0.052   2.429  16.426
 1185TIP3    H125190   0.142   2.405  16.452
 1185TIP3    H225191  -0.005   2.357  16.461
 1186TIP3   OH225192   1.834   1.989  16.606
 1186TIP3    H125193   1.869   1.922  16.546
 1186TIP3    H225194   1.844   2.070  16.553
 1187TIP3   OH225195   0.146   2.260  15.714
 1187TIP3    H125196   0.200   2.182  15.736
 1187TIP3    H225197   0.202   2.331  15.750
 1188TIP3   OH225198   0.051   2.617  15.855
 1188TIP3    H125199   0.059   2.582  15.765
 1188TIP3    H225200   0.030   2.707  15.831
 1189TIP3   OH225201   1.786   2.202  16.440
 1189TIP3    H125202   1.691   2.225  16.441
 1189TIP3    H225203   1.788   2.141  16.364
 1190TIP3   OH225204   7.398   2.191  15.192
 1190TIP3    H125205   7.303   2.210  15.199
 1190TIP3    H225206   7.427   2.258  15.127
 1191TIP3   OH225207   1.489   3.686  15.416
 1191TIP3    H125208   1.557   3.656  15.353
 1191TIP3    H225209   1.541   3.738  15.479
 1192TIP3   OH225210   7.370   2.053  16.063
 1192TIP3    H125211   7.296   2.032  16.121
 1192TIP3    H225212   7.320   2.110  16.002
 1193TIP3   OH225213   0.236   3.382  16.469
 1193TIP3    H125214   0.152   3.398  16.425
 1193TIP3    H225215   0.207   3.367  16.559
 1194TIP3   OH225216   0.526   3.479  16.096
 1194TIP3    H125217   0.489   3.564  16.068
 1194TIP3    H225218   0.618   3.488  16.063
 1195TIP3   OH225219   0.956   3.620  16.385
 1195TIP3    H125220   0.969   3.585  16.477
 1195TIP3    H225221   1.047   3.650  16.363
 1196TIP3   OH225222   1.186   3.747  16.316
 1196TIP3    H125223   1.258   3.687  16.293
 1196TIP3    H225224   1.223   3.790  16.396
 1197TIP3   OH225225   1.690   2.013  16.224
 1197TIP3    H125226   1.602   2.032  16.185
 1197TIP3    H225227   1.704   1.926  16.178
 1198TIP3   OH225228   0.270   3.803  16.098
 1198TIP3    H125229   0.194   3.848  16.056
 1198TIP3    H225230   0.233   3.781  16.185
 1199TIP3   OH225231   0.515   3.760  16.001
 1199TIP3    H125232   0.427   3.775  16.041
 1199TIP3    H225233   0.510   3.819  15.924
 1200TIP3   OH225234   0.988   3.752  15.917
 1200TIP3    H125235   0.937   3.806  15.854
 1200TIP3    H225236   0.998   3.813  15.993
 1201TIP3   OH225237   1.213   3.630  16.022
 1201TIP3    H125238   1.129   3.659  15.984
 1201TIP3    H225239   1.262   3.714  16.013
 1202TIP3   OH225240   1.473   3.787  16.044
 1202TIP3    H125241   1.468   3.883  16.021
 1202TIP3    H225242   1.494   3.750  15.956
 1203TIP3   OH225243   0.212   3.666  15.786
 1203TIP3    H125244   0.207   3.623  15.874
 1203TIP3    H225245   0.293   3.627  15.749
 1204TIP3   OH225246   0.421   3.535  15.651
 1204TIP3    H125247   0.403   3.443  15.678
 1204TIP3    H225248   0.506   3.552  15.698
 1205TIP3   OH225249   0.682   3.585  15.742
 1205TIP3    H125250   0.697   3.493  15.715
 1205TIP3    H225251   0.684   3.577  15.839
 1206TIP3   OH225252   1.027   2.152  15.654
 1206TIP3    H125253   0.960   2.087  15.683
 1206TIP3    H225254   1.082   2.098  15.596
 1207TIP3   OH225255   1.537   1.969  15.669
 1207TIP3    H125256   1.600   2.015  15.610
 1207TIP3    H225257   1.448   1.992  15.635
 1208TIP3   OH225258   1.707   2.082  15.486
 1208TIP3    H125259   1.776   2.021  15.452
 1208TIP3    H225260   1.758   2.164  15.502
 1209TIP3   OH225261   0.260   2.011  15.443
 1209TIP3    H125262   0.185   1.992  15.384
 1209TIP3    H225263   0.312   1.929  15.431
 1210TIP3   OH225264   0.192   2.008  15.034
 1210TIP3    H125265   0.194   2.051  14.948
 1210TIP3    H225266   0.100   2.024  15.064
 1211TIP3   OH225267   0.708   2.010  15.420
 1211TIP3    H125268   0.799   2.041  15.410
 1211TIP3    H225269   0.709   1.982  15.512
 1212TIP3   OH225270   1.281   2.009  15.580
 1212TIP3    H125271   1.276   2.017  15.484
 1212TIP3    H225272   1.246   1.917  15.594
 1213TIP3   OH225273   0.824   2.212  15.104
 1213TIP3    H125274   0.850   2.150  15.175
 1213TIP3    H225275   0.832   2.296  15.153
 1214TIP3   OH225276   1.690   3.661  15.215
 1214TIP3    H125277   1.662   3.591  15.156
 1214TIP3    H225278   1.680   3.739  15.155
 1215TIP3   OH225279   0.245   2.071  16.391
 1215TIP3    H125280   0.211   1.986  16.425
 1215TIP3    H225281   0.338   2.064  16.422
 1216TIP3   OH225282   0.452   2.006  16.551
 1216TIP3    H125283   0.540   1.971  16.526
 1216TIP3    H225284   0.412   1.927  16.591
 1217TIP3   OH225285   1.293   1.935  16.566
 1217TIP3    H125286   1.303   1.886  16.650
 1217TIP3    H225287   1.384   1.931  16.530
 1218TIP3   OH225288   1.613   3.540  16.432
 1218TIP3    H125289   1.534   3.526  16.375
 1218TIP3    H225290   1.602   3.635  16.449
 1219TIP3   OH225291   3.059   2.928  15.426
 1219TIP3    H125292   3.056   3.026  15.421
 1219TIP3    H225293   2.986   2.904  15.367
 1220TIP3   OH225294   2.946   2.853  15.775
 1220TIP3    H125295   2.943   2.788  15.847
 1220TIP3    H225296   2.909   2.802  15.701
 1221TIP3   OH225297   2.183   2.817  15.927
 1221TIP3    H125298   2.184   2.755  16.002
 1221TIP3    H225299   2.252   2.880  15.953
 1222TIP3   OH225300   3.312   3.148  15.604
 1222TIP3    H125301   3.272   3.076  15.654
 1222TIP3    H225302   3.315   3.219  15.672
 1223TIP3   OH225303   2.271   3.264  15.782
 1223TIP3    H125304   2.240   3.178  15.748
 1223TIP3    H225305   2.366   3.247  15.785
 1224TIP3   OH225306   1.935   2.621  15.329
 1224TIP3    H125307   1.891   2.709  15.326
 1224TIP3    H225308   1.879   2.567  15.272
 1225TIP3   OH225309   2.006   2.843  15.546
 1225TIP3    H125310   2.034   2.761  15.591
 1225TIP3    H225311   2.075   2.854  15.479
 1226TIP3   OH225312   3.029   3.666  15.630
 1226TIP3    H125313   3.087   3.593  15.600
 1226TIP3    H225314   3.000   3.630  15.714
 1227TIP3   OH225315   2.781   3.092  15.824
 1227TIP3    H125316   2.815   3.030  15.757
 1227TIP3    H225317   2.862   3.108  15.875
 1228TIP3   OH225318   3.640   2.259  15.894
 1228TIP3    H125319   3.659   2.315  15.972
 1228TIP3    H225320   3.698   2.301  15.829
 1229TIP3   OH225321   3.101   2.541  15.856
 1229TIP3    H125322   3.115   2.444  15.856
 1229TIP3    H225323   3.088   2.554  15.760
 1230TIP3   OH225324   2.406   2.349  15.578
 1230TIP3    H125325   2.421   2.431  15.527
 1230TIP3    H225326   2.371   2.291  15.508
 1231TIP3   OH225327   3.182   2.358  15.415
 1231TIP3    H125328   3.249   2.324  15.480
 1231TIP3    H225329   3.238   2.413  15.358
 1232TIP3   OH225330   2.072   2.589  15.651
 1232TIP3    H125331   2.138   2.533  15.695
 1232TIP3    H225332   2.082   2.559  15.559
 1233TIP3   OH225333   2.588   2.746  15.579
 1233TIP3    H125334   2.655   2.688  15.620
 1233TIP3    H225335   2.535   2.678  15.532
 1234TIP3   OH225336   3.685   2.397  16.123
 1234TIP3    H125337   3.623   2.473  16.113
 1234TIP3    H225338   3.689   2.388  16.219
 1235TIP3   OH225339   2.305   2.252  15.986
 1235TIP3    H125340   2.269   2.290  15.902
 1235TIP3    H225341   2.226   2.255  16.046
 1236TIP3   OH225342   3.027   3.185  15.333
 1236TIP3    H125343   2.997   3.162  15.244
 1236TIP3    H225344   2.998   3.279  15.341
 1237TIP3   OH225345   2.550   3.001  16.004
 1237TIP3    H125346   2.480   3.066  16.026
 1237TIP3    H225347   2.621   3.060  15.975
 1238TIP3   OH225348   3.365   2.292  15.613
 1238TIP3    H125349   3.342   2.214  15.665
 1238TIP3    H225350   3.432   2.335  15.668
 1239TIP3   OH225351   2.260   2.422  15.786
 1239TIP3    H125352   2.319   2.496  15.808
 1239TIP3    H225353   2.307   2.384  15.707
 1240TIP3   OH225354   2.397   3.203  16.086
 1240TIP3    H125355   2.392   3.294  16.052
 1240TIP3    H225356   2.308   3.195  16.130
 1241TIP3   OH225357   3.364   3.330  15.842
 1241TIP3    H125358   3.268   3.342  15.853
 1241TIP3    H225359   3.391   3.422  15.822
 1242TIP3   OH225360   3.397   2.159  15.980
 1242TIP3    H125361   3.325   2.223  15.970
 1242TIP3    H225362   3.469   2.201  15.928
 1243TIP3   OH225363   2.693   1.972  15.727
 1243TIP3    H125364   2.678   1.875  15.719
 1243TIP3    H225365   2.606   2.002  15.757
 1244TIP3   OH225366   3.192   3.509  15.502
 1244TIP3    H125367   3.232   3.435  15.450
 1244TIP3    H225368   3.230   3.587  15.457
 1245TIP3   OH225369   3.309   3.304  15.354
 1245TIP3    H125370   3.285   3.234  15.291
 1245TIP3    H225371   3.315   3.252  15.436
 1246TIP3   OH225372   3.474   3.159  16.200
 1246TIP3    H125373   3.489   3.100  16.125
 1246TIP3    H225374   3.492   3.246  16.159
 1247TIP3   OH225375   2.922   2.847  15.176
 1247TIP3    H125376   2.856   2.911  15.144
 1247TIP3    H225377   2.996   2.859  15.112
 1248TIP3   OH225378   3.660   2.795  16.002
 1248TIP3    H125379   3.606   2.875  15.995
 1248TIP3    H225380   3.717   2.812  15.924
 1249TIP3   OH225381   3.270   2.870  15.270
 1249TIP3    H125382   3.196   2.897  15.331
 1249TIP3    H225383   3.317   2.806  15.325
 1250TIP3   OH225384   3.272   2.700  16.176
 1250TIP3    H125385   3.250   2.771  16.238
 1250TIP3    H225386   3.197   2.715  16.114
 1251TIP3   OH225387   2.427   2.937  15.460
 1251TIP3    H125388   2.397   2.899  15.377
 1251TIP3    H225389   2.491   2.870  15.495
 1252TIP3   OH225390   2.561   3.275  15.729
 1252TIP3    H125391   2.561   3.224  15.647
 1252TIP3    H225392   2.640   3.240  15.775
 1253TIP3   OH225393   2.464   2.811  15.829
 1253TIP3    H125394   2.516   2.823  15.747
 1253TIP3    H225395   2.502   2.881  15.887
 1254TIP3   OH225396   3.105   3.370  15.899
 1254TIP3    H125397   3.074   3.435  15.963
 1254TIP3    H225398   3.080   3.285  15.941
 1255TIP3   OH225399   2.558   3.255  16.297
 1255TIP3    H125400   2.516   3.329  16.346
 1255TIP3    H225401   2.491   3.235  16.227
 1256TIP3   OH225402   3.153   2.798  15.039
 1256TIP3    H125403   3.212   2.808  15.118
 1256TIP3    H225404   3.202   2.840  14.968
 1257TIP3   OH225405   2.251   2.868  16.213
 1257TIP3    H125406   2.258   2.938  16.281
 1257TIP3    H225407   2.157   2.879  16.193
 1258TIP3   OH225408   2.931   3.464  15.383
 1258TIP3    H125409   2.972   3.494  15.466
 1258TIP3    H225410   2.870   3.537  15.362
 1259TIP3   OH225411   2.383   3.459  16.371
 1259TIP3    H125412   2.376   3.449  16.275
 1259TIP3    H225413   2.290   3.445  16.398
 1260TIP3   OH225414   2.337   2.832  15.203
 1260TIP3    H125415   2.300   2.920  15.176
 1260TIP3    H225416   2.255   2.781  15.208
 1261TIP3   OH225417   3.644   3.400  14.875
 1261TIP3    H125418   3.649   3.496  14.873
 1261TIP3    H225419   3.731   3.370  14.849
 1262TIP3   OH225420   1.935   3.083  16.114
 1262TIP3    H125421   1.891   3.075  16.027
 1262TIP3    H225422   1.944   2.988  16.134
 1263TIP3   OH225423   1.911   3.357  15.791
 1263TIP3    H125424   2.007   3.345  15.787
 1263TIP3    H225425   1.904   3.439  15.841
 1264TIP3   OH225426   3.734   3.427  16.356
 1264TIP3    H125427   3.723   3.331  16.357
 1264TIP3    H225428   3.649   3.452  16.400
 1265TIP3   OH225429   2.831   3.381  16.246
 1265TIP3    H125430   2.837   3.465  16.298
 1265TIP3    H225431   2.744   3.345  16.270
 1266TIP3   OH225432   2.880   3.755  15.226
 1266TIP3    H125433   2.859   3.747  15.133
 1266TIP3    H225434   2.876   3.852  15.243
 1267TIP3   OH225435   2.236   3.645  15.410
 1267TIP3    H125436   2.254   3.602  15.496
 1267TIP3    H225437   2.155   3.600  15.383
 1268TIP3   OH225438   3.179   3.674  14.923
 1268TIP3    H125439   3.222   3.598  14.882
 1268TIP3    H225440   3.185   3.649  15.016
 1269TIP3   OH225441   3.150   3.674  15.208
 1269TIP3    H125442   3.053   3.679  15.219
 1269TIP3    H225443   3.171   3.593  15.256
 1270TIP3   OH225444   3.453   2.575  16.400
 1270TIP3    H125445   3.394   2.614  16.334
 1270TIP3    H225446   3.448   2.481  16.378
 1271TIP3   OH225447   2.164   3.214  16.207
 1271TIP3    H125448   2.186   3.178  16.295
 1271TIP3    H225449   2.078   3.173  16.185
 1272TIP3   OH225450   2.431   2.062  15.803
 1272TIP3    H125451   2.342   2.048  15.764
 1272TIP3    H225452   2.419   2.146  15.848
 1273TIP3   OH225453   2.896   2.029  16.137
 1273TIP3    H125454   2.935   1.987  16.216
 1273TIP3    H225455   2.799   2.017  16.152
 1274TIP3   OH225456   3.228   2.417  16.229
 1274TIP3    H125457   3.169   2.390  16.304
 1274TIP3    H225458   3.202   2.506  16.204
 1275TIP3   OH225459   2.445   2.567  15.922
 1275TIP3    H125460   2.358   2.578  15.960
 1275TIP3    H225461   2.450   2.656  15.878
 1276TIP3   OH225462   2.437   2.575  15.409
 1276TIP3    H125463   2.344   2.545  15.400
 1276TIP3    H225464   2.478   2.534  15.330
 1277TIP3   OH225465   2.985   2.617  15.285
 1277TIP3    H125466   2.952   2.705  15.256
 1277TIP3    H225467   3.060   2.604  15.225
 1278TIP3   OH225468   2.896   2.642  16.433
 1278TIP3    H125469   2.844   2.565  16.464
 1278TIP3    H225470   2.979   2.631  16.482
 1279TIP3   OH225471   3.094   2.571  15.575
 1279TIP3    H125472   3.065   2.627  15.500
 1279TIP3    H225473   3.103   2.486  15.528
 1280TIP3   OH225474   2.190   2.589  16.100
 1280TIP3    H125475   2.199   2.632  16.188
 1280TIP3    H225476   2.145   2.506  16.120
 1281TIP3   OH225477   2.546   2.338  14.786
 1281TIP3    H125478   2.505   2.279  14.852
 1281TIP3    H225479   2.471   2.358  14.730
 1282TIP3   OH225480   1.872   2.293  15.489
 1282TIP3    H125481   1.939   2.291  15.560
 1282TIP3    H225482   1.920   2.257  15.415
 1283TIP3   OH225483   2.003   2.379  15.039
 1283TIP3    H125484   2.047   2.428  14.969
 1283TIP3    H225485   1.929   2.437  15.062
 1284TIP3   OH225486   3.018   2.727  16.034
 1284TIP3    H125487   3.049   2.659  15.970
 1284TIP3    H225488   2.964   2.676  16.096
 1285TIP3   OH225489   2.693   2.327  15.516
 1285TIP3    H125490   2.600   2.327  15.545
 1285TIP3    H225491   2.742   2.309  15.597
 1286TIP3   OH225492   2.178   2.485  15.395
 1286TIP3    H125493   2.087   2.496  15.361
 1286TIP3    H225494   2.204   2.397  15.363
 1287TIP3   OH225495   2.536   2.491  15.179
 1287TIP3    H125496   2.635   2.483  15.186
 1287TIP3    H225497   2.520   2.518  15.091
 1288TIP3   OH225498   3.135   2.250  15.837
 1288TIP3    H125499   3.066   2.255  15.907
 1288TIP3    H225500   3.084   2.224  15.759
 1289TIP3   OH225501   3.454   3.814  16.475
 1289TIP3    H125502   3.481   3.850  16.388
 1289TIP3    H225503   3.527   3.844  16.531
 1290TIP3   OH225504   2.223   3.060  16.429
 1290TIP3    H125505   2.293   3.086  16.492
 1290TIP3    H225506   2.144   3.068  16.486
 1291TIP3   OH225507   2.822   2.603  15.703
 1291TIP3    H125508   2.881   2.549  15.649
 1291TIP3    H225509   2.809   2.547  15.781
 1292TIP3   OH225510   2.324   2.221  15.341
 1292TIP3    H125511   2.294   2.128  15.347
 1292TIP3    H225512   2.405   2.206  15.290
 1293TIP3   OH225513   2.684   2.433  15.948
 1293TIP3    H125514   2.607   2.492  15.949
 1293TIP3    H225515   2.744   2.470  16.015
 1294TIP3   OH225516   2.745   3.051  15.112
 1294TIP3    H125517   2.662   3.010  15.084
 1294TIP3    H225518   2.724   3.074  15.206
 1295TIP3   OH225519   3.465   2.971  15.995
 1295TIP3    H125520   3.519   3.026  15.933
 1295TIP3    H225521   3.378   2.982  15.949
 1296TIP3   OH225522   3.128   2.340  14.930
 1296TIP3    H125523   3.034   2.354  14.920
 1296TIP3    H225524   3.161   2.425  14.965
 1297TIP3   OH225525   2.893   3.083  16.238
 1297TIP3    H125526   2.859   3.041  16.317
 1297TIP3    H225527   2.868   3.176  16.249
 1298TIP3   OH225528   3.204   2.529  15.102
 1298TIP3    H125529   3.294   2.516  15.138
 1298TIP3    H225530   3.208   2.609  15.046
 1299TIP3   OH225531   2.257   2.998  15.696
 1299TIP3    H125532   2.325   2.988  15.626
 1299TIP3    H225533   2.261   2.912  15.740
 1300TIP3   OH225534   2.957   3.201  15.019
 1300TIP3    H125535   2.923   3.286  15.053
 1300TIP3    H225536   2.882   3.142  15.041
 1301TIP3   OH225537   1.955   2.834  16.219
 1301TIP3    H125538   1.970   2.794  16.307
 1301TIP3    H225539   1.890   2.776  16.177
 1302TIP3   OH225540   2.654   2.790  16.437
 1302TIP3    H125541   2.626   2.763  16.349
 1302TIP3    H225542   2.748   2.762  16.439
 1303TIP3   OH225543   3.125   3.326  16.234
 1303TIP3    H125544   3.033   3.344  16.210
 1303TIP3    H225545   3.121   3.356  16.327
 1304TIP3   OH225546   3.689   2.547  15.074
 1304TIP3    H125547   3.635   2.515  15.000
 1304TIP3    H225548   3.699   2.640  15.044
 1305TIP3   OH225549   3.689   3.125  16.352
 1305TIP3    H125550   3.602   3.156  16.317
 1305TIP3    H225551   3.746   3.130  16.273
 1306TIP3   OH225552   3.525   3.426  15.117
 1306TIP3    H125553   3.481   3.345  15.144
 1306TIP3    H225554   3.546   3.408  15.022
 1307TIP3   OH225555   3.242   2.907  15.827
 1307TIP3    H125556   3.147   2.891  15.809
 1307TIP3    H225557   3.283   2.834  15.776
 1308TIP3   OH225558   2.494   3.342  15.430
 1308TIP3    H125559   2.542   3.424  15.409
 1308TIP3    H225560   2.406   3.365  15.400
 1309TIP3   OH225561   2.075   2.827  14.887
 1309TIP3    H125562   2.129   2.894  14.930
 1309TIP3    H225563   1.985   2.850  14.916
 1310TIP3   OH225564   2.633   3.109  15.382
 1310TIP3    H125565   2.603   3.201  15.392
 1310TIP3    H225566   2.563   3.061  15.430
 1311TIP3   OH225567   2.679   3.527  16.026
 1311TIP3    H125568   2.726   3.607  15.997
 1311TIP3    H225569   2.741   3.493  16.093
 1312TIP3   OH225570   2.503   3.604  15.349
 1312TIP3    H125571   2.406   3.620  15.349
 1312TIP3    H225572   2.538   3.693  15.369
 1313TIP3   OH225573   3.032   3.127  15.988
 1313TIP3    H125574   2.998   3.108  16.078
 1313TIP3    H225575   3.094   3.055  15.970
 1314TIP3   OH225576   3.262   3.227  14.897
 1314TIP3    H125577   3.294   3.184  14.979
 1314TIP3    H225578   3.167   3.220  14.907
 1315TIP3   OH225579   3.315   3.585  16.236
 1315TIP3    H125580   3.245   3.536  16.189
 1315TIP3    H225581   3.332   3.655  16.170
 1316TIP3   OH225582   2.119   2.313  16.175
 1316TIP3    H125583   2.028   2.346  16.175
 1316TIP3    H225584   2.109   2.228  16.222
 1317TIP3   OH225585   3.343   3.097  15.125
 1317TIP3    H125586   3.319   3.017  15.176
 1317TIP3    H225587   3.439   3.101  15.139
 1318TIP3   OH225588   2.081   3.488  16.018
 1318TIP3    H125589   2.112   3.397  16.019
 1318TIP3    H225590   2.107   3.518  16.106
 1319TIP3   OH225591   2.209   3.018  15.038
 1319TIP3    H125592   2.141   3.056  15.095
 1319TIP3    H225593   2.258   3.099  15.015
 1320TIP3   OH225594   2.994   2.288  16.072
 1320TIP3    H125595   3.065   2.294  16.136
 1320TIP3    H225596   2.955   2.201  16.092
 1321TIP3   OH225597   3.069   2.244  15.178
 1321TIP3    H125598   3.091   2.294  15.098
 1321TIP3    H225599   3.124   2.288  15.244
 1322TIP3   OH225600   2.783   2.429  15.259
 1322TIP3    H125601   2.869   2.476  15.266
 1322TIP3    H225602   2.765   2.404  15.352
 1323TIP3   OH225603   2.844   2.521  16.183
 1323TIP3    H125604   2.856   2.578  16.261
 1323TIP3    H225605   2.913   2.453  16.190
 1324TIP3   OH225606   2.878   2.129  15.354
 1324TIP3    H125607   2.843   2.194  15.418
 1324TIP3    H225608   2.947   2.181  15.308
 1325TIP3   OH225609   2.442   2.236  15.019
 1325TIP3    H125610   2.434   2.322  15.062
 1325TIP3    H225611   2.531   2.206  15.048
 1326TIP3   OH225612   3.464   2.308  16.265
 1326TIP3    H125613   3.370   2.338  16.253
 1326TIP3    H225614   3.493   2.305  16.173
 1327TIP3   OH225615   3.325   2.689  15.670
 1327TIP3    H125616   3.243   2.644  15.640
 1327TIP3    H225617   3.373   2.618  15.718
 1328TIP3   OH225618   2.267   3.277  14.936
 1328TIP3    H125619   2.327   3.350  14.960
 1328TIP3    H225620   2.310   3.240  14.860
 1329TIP3   OH225621   3.431   3.612  15.831
 1329TIP3    H125622   3.421   3.685  15.769
 1329TIP3    H225623   3.527   3.618  15.854
 1330TIP3   OH225624   2.177   2.027  15.713
 1330TIP3    H125625   2.162   2.026  15.616
 1330TIP3    H225626   2.137   1.941  15.739
 1331TIP3   OH225627   2.072   3.417  15.326
 1331TIP3    H125628   1.990   3.467  15.325
 1331TIP3    H225629   2.126   3.464  15.260
 1332TIP3   OH225630   1.999   3.683  16.454
 1332TIP3    H125631   2.056   3.664  16.531
 1332TIP3    H225632   1.953   3.597  16.442
 1333TIP3   OH225633   2.466   3.572  16.618
 1333TIP3    H125634   2.543   3.524  16.651
 1333TIP3    H225635   2.463   3.546  16.524
 1334TIP3   OH225636   3.112   3.414  16.492
 1334TIP3    H125637   3.083   3.325  16.519
 1334TIP3    H225638   3.192   3.426  16.548
 1335TIP3   OH225639   1.986   3.057  16.557
 1335TIP3    H125640   2.005   2.968  16.523
 1335TIP3    H225641   1.914   3.086  16.497
 1336TIP3   OH225642   2.660   3.058  16.492
 1336TIP3    H125643   2.625   3.091  16.407
 1336TIP3    H225644   2.666   2.960  16.481
 1337TIP3   OH225645   2.959   3.201  14.734
 1337TIP3    H125646   2.943   3.216  14.828
 1337TIP3    H225647   2.949   3.107  14.723
 1338TIP3   OH225648   3.231   3.044  16.233
 1338TIP3    H125649   3.306   3.106  16.229
 1338TIP3    H225650   3.159   3.109  16.239
 1339TIP3   OH225651   2.082   2.783  16.495
 1339TIP3    H125652   2.120   2.695  16.489
 1339TIP3    H225653   2.058   2.786  16.590
 1340TIP3   OH225654   2.550   2.899  14.996
 1340TIP3    H125655   2.493   2.861  15.065
 1340TIP3    H225656   2.577   2.833  14.929
 1341TIP3   OH225657   2.459   2.672  16.217
 1341TIP3    H125658   2.414   2.748  16.258
 1341TIP3    H225659   2.514   2.720  16.152
 1342TIP3   OH225660   2.978   2.935  16.572
 1342TIP3    H125661   3.072   2.931  16.553
 1342TIP3    H225662   2.961   2.855  16.625
 1343TIP3   OH225663   2.500   2.416  16.329
 1343TIP3    H125664   2.529   2.343  16.271
 1343TIP3    H225665   2.517   2.500  16.284
 1344TIP3   OH225666   2.545   2.266  16.094
 1344TIP3    H125667   2.604   2.296  16.020
 1344TIP3    H225668   2.463   2.237  16.047
 1345TIP3   OH225669   2.700   2.799  16.112
 1345TIP3    H125670   2.780   2.787  16.060
 1345TIP3    H225671   2.669   2.887  16.083
 1346TIP3   OH225672   3.143   2.576  16.611
 1346TIP3    H125673   3.166   2.482  16.604
 1346TIP3    H225674   3.230   2.618  16.614
 1347TIP3   OH225675   3.279   2.856  16.427
 1347TIP3    H125676   3.251   2.931  16.370
 1347TIP3    H225677   3.375   2.857  16.413
 1348TIP3   OH225678   2.355   2.540  16.530
 1348TIP3    H125679   2.277   2.483  16.512
 1348TIP3    H225680   2.420   2.503  16.467
 1349TIP3   OH225681   2.628   1.998  16.132
 1349TIP3    H125682   2.612   2.094  16.121
 1349TIP3    H225683   2.555   1.959  16.080
 1350TIP3   OH225684   2.756   2.431  16.494
 1350TIP3    H125685   2.725   2.408  16.584
 1350TIP3    H225686   2.679   2.409  16.440
 1351TIP3   OH225687   3.029   2.343  16.400
 1351TIP3    H125688   2.933   2.350  16.414
 1351TIP3    H225689   3.055   2.281  16.471
 1352TIP3   OH225690   3.183   2.206  16.592
 1352TIP3    H125691   3.182   2.109  16.596
 1352TIP3    H225692   3.160   2.236  16.683
 1353TIP3   OH225693   2.165   2.335  16.503
 1353TIP3    H125694   2.187   2.258  16.447
 1353TIP3    H225695   2.155   2.292  16.591
 1354TIP3   OH225696   2.651   1.936  16.401
 1354TIP3    H125697   2.718   1.864  16.399
 1354TIP3    H225698   2.640   1.951  16.305
 1355TIP3   OH225699   2.685   2.096  16.611
 1355TIP3    H125700   2.669   2.046  16.527
 1355TIP3    H225701   2.628   2.175  16.600
 1356TIP3   OH225702   1.867   3.785  15.373
 1356TIP3    H125703   1.796   3.735  15.326
 1356TIP3    H225704   1.896   3.719  15.440
 1357TIP3   OH225705   1.949   3.595  15.558
 1357TIP3    H125706   1.914   3.509  15.583
 1357TIP3    H225707   1.972   3.631  15.646
 1358TIP3   OH225708   3.699   3.685  15.852
 1358TIP3    H125709   3.707   3.693  15.949
 1358TIP3    H225710   3.777   3.735  15.825
 1359TIP3   OH225711   3.661   3.637  16.148
 1359TIP3    H125712   3.613   3.561  16.110
 1359TIP3    H225713   3.709   3.592  16.220
 1360TIP3   OH225714   3.506   3.208  16.615
 1360TIP3    H125715   3.416   3.208  16.653
 1360TIP3    H225716   3.543   3.290  16.656
 1361TIP3   OH225717   3.637   3.039  15.159
 1361TIP3    H125718   3.720   3.082  15.179
 1361TIP3    H225719   3.635   2.968  15.227
 1362TIP3   OH225720   3.673   2.851  15.345
 1362TIP3    H125721   3.598   2.801  15.383
 1362TIP3    H225722   3.732   2.863  15.422
 1363TIP3   OH225723   3.648   3.118  15.849
 1363TIP3    H125724   3.729   3.082  15.806
 1363TIP3    H225725   3.661   3.214  15.829
 1364TIP3   OH225726   3.504   3.411  16.072
 1364TIP3    H125727   3.435   3.445  16.131
 1364TIP3    H225728   3.449   3.373  16.000
 1365TIP3   OH225729   3.707   2.834  14.987
 1365TIP3    H125730   3.650   2.862  14.914
 1365TIP3    H225731   3.694   2.907  15.050
 1366TIP3   OH225732   3.453   2.698  15.403
 1366TIP3    H125733   3.441   2.602  15.401
 1366TIP3    H225734   3.422   2.719  15.493
 1367TIP3   OH225735   1.955   2.907  15.810
 1367TIP3    H125736   1.972   2.898  15.714
 1367TIP3    H225737   2.045   2.889  15.845
 1368TIP3   OH225738   3.543   2.893  16.365
 1368TIP3    H125739   3.604   2.820  16.393
 1368TIP3    H225740   3.600   2.973  16.376
 1369TIP3   OH225741   3.689   2.684  16.432
 1369TIP3    H125742   3.602   2.638  16.426
 1369TIP3    H225743   3.749   2.606  16.433
 1370TIP3   OH225744   3.422   2.455  15.252
 1370TIP3    H125745   3.452   2.362  15.262
 1370TIP3    H225746   3.502   2.495  15.213
 1371TIP3   OH225747   3.485   2.512  15.795
 1371TIP3    H125748   3.582   2.532  15.792
 1371TIP3    H225749   3.467   2.521  15.889
 1372TIP3   OH225750   3.494   2.582  16.082
 1372TIP3    H125751   3.399   2.605  16.098
 1372TIP3    H225752   3.535   2.656  16.032
 1373TIP3   OH225753   1.918   2.434  16.421
 1373TIP3    H125754   2.010   2.417  16.447
 1373TIP3    H225755   1.873   2.354  16.456
 1374TIP3   OH225756   3.721   1.988  16.605
 1374TIP3    H125757   3.756   1.920  16.545
 1374TIP3    H225758   3.730   2.069  16.552
 1375TIP3   OH225759   3.490   2.185  15.253
 1375TIP3    H125760   3.509   2.141  15.339
 1375TIP3    H225761   3.426   2.121  15.212
 1376TIP3   OH225762   2.036   2.266  15.716
 1376TIP3    H125763   2.084   2.182  15.735
 1376TIP3    H225764   2.096   2.335  15.749
 1377TIP3   OH225765   1.868   2.562  15.819
 1377TIP3    H125766   1.919   2.540  15.738
 1377TIP3    H225767   1.911   2.647  15.838
 1378TIP3   OH225768   3.671   2.199  16.442
 1378TIP3    H125769   3.577   2.227  16.439
 1378TIP3    H225770   3.674   2.144  16.362
 1379TIP3   OH225771   3.364   3.678  15.400
 1379TIP3    H125772   3.437   3.647  15.343
 1379TIP3    H225773   3.397   3.703  15.484
 1380TIP3   OH225774   1.897   2.058  16.052
 1380TIP3    H125775   1.829   2.032  16.118
 1380TIP3    H225776   1.851   2.121  15.995
 1381TIP3   OH225777   2.121   3.378  16.468
 1381TIP3    H125778   2.037   3.399  16.424
 1381TIP3    H225779   2.094   3.371  16.560
 1382TIP3   OH225780   2.410   3.478  16.095
 1382TIP3    H125781   2.378   3.565  16.068
 1382TIP3    H225782   2.503   3.486  16.064
 1383TIP3   OH225783   2.842   3.619  16.385
 1383TIP3    H125784   2.855   3.585  16.477
 1383TIP3    H225785   2.933   3.650  16.363
 1384TIP3   OH225786   3.071   3.747  16.316
 1384TIP3    H125787   3.144   3.688  16.293
 1384TIP3    H225788   3.109   3.791  16.396
 1385TIP3   OH225789   3.571   2.006  16.229
 1385TIP3    H125790   3.491   2.040  16.185
 1385TIP3    H225791   3.591   1.927  16.174
 1386TIP3   OH225792   2.153   3.801  16.094
 1386TIP3    H125793   2.080   3.851  16.054
 1386TIP3    H225794   2.122   3.782  16.184
 1387TIP3   OH225795   2.400   3.759  16.001
 1387TIP3    H125796   2.311   3.774  16.041
 1387TIP3    H225797   2.394   3.818  15.924
 1388TIP3   OH225798   2.871   3.750  15.918
 1388TIP3    H125799   2.824   3.806  15.854
 1388TIP3    H225800   2.884   3.813  15.992
 1389TIP3   OH225801   3.099   3.630  16.023
 1389TIP3    H125802   3.014   3.659  15.984
 1389TIP3    H225803   3.148   3.714  16.014
 1390TIP3   OH225804   3.357   3.787  16.043
 1390TIP3    H125805   3.352   3.884  16.022
 1390TIP3    H225806   3.379   3.750  15.956
 1391TIP3   OH225807   2.099   3.666  15.789
 1391TIP3    H125808   2.091   3.620  15.875
 1391TIP3    H225809   2.181   3.628  15.750
 1392TIP3   OH225810   2.305   3.537  15.655
 1392TIP3    H125811   2.290   3.443  15.677
 1392TIP3    H225812   2.392   3.553  15.698
 1393TIP3   OH225813   2.567   3.585  15.742
 1393TIP3    H125814   2.582   3.493  15.715
 1393TIP3    H225815   2.572   3.579  15.838
 1394TIP3   OH225816   2.912   2.150  15.656
 1394TIP3    H125817   2.844   2.086  15.683
 1394TIP3    H225818   2.967   2.097  15.597
 1395TIP3   OH225819   3.426   1.954  15.662
 1395TIP3    H125820   3.487   2.014  15.612
 1395TIP3    H225821   3.337   1.990  15.638
 1396TIP3   OH225822   3.592   2.079  15.489
 1396TIP3    H125823   3.662   2.022  15.449
 1396TIP3    H225824   3.642   2.163  15.503
 1397TIP3   OH225825   2.149   2.014  15.444
 1397TIP3    H125826   2.073   1.991  15.387
 1397TIP3    H225827   2.197   1.928  15.435
 1398TIP3   OH225828   2.594   2.008  15.421
 1398TIP3    H125829   2.685   2.040  15.410
 1398TIP3    H225830   2.594   1.982  15.512
 1399TIP3   OH225831   3.167   2.007  15.582
 1399TIP3    H125832   3.163   2.018  15.486
 1399TIP3    H225833   3.129   1.917  15.594
 1400TIP3   OH225834   3.294   2.015  15.159
 1400TIP3    H125835   3.219   2.068  15.130
 1400TIP3    H225836   3.254   1.924  15.167
 1401TIP3   OH225837   2.006   3.583  15.114
 1401TIP3    H125838   1.956   3.591  15.032
 1401TIP3    H225839   2.027   3.677  15.129
 1402TIP3   OH225840   2.702   2.211  15.108
 1402TIP3    H125841   2.736   2.149  15.175
 1402TIP3    H225842   2.723   2.295  15.152
 1403TIP3   OH225843   3.571   3.668  15.222
 1403TIP3    H125844   3.552   3.588  15.166
 1403TIP3    H225845   3.569   3.738  15.152
 1404TIP3   OH225846   2.138   2.069  16.382
 1404TIP3    H125847   2.098   1.991  16.424
 1404TIP3    H225848   2.228   2.063  16.423
 1405TIP3   OH225849   2.337   2.007  16.551
 1405TIP3    H125850   2.425   1.972  16.526
 1405TIP3    H225851   2.300   1.926  16.592
 1406TIP3   OH225852   2.204   3.682  14.812
 1406TIP3    H125853   2.169   3.708  14.898
 1406TIP3    H225854   2.280   3.628  14.831
 1407TIP3   OH225855   3.179   1.930  16.563
 1407TIP3    H125856   3.188   1.889  16.651
 1407TIP3    H225857   3.271   1.933  16.531
 1408TIP3   OH225858   3.499   3.539  16.431
 1408TIP3    H125859   3.420   3.526  16.374
 1408TIP3    H225860   3.488   3.635  16.449
 1409TIP3   OH225861   4.945   2.928  15.426
 1409TIP3    H125862   4.942   3.026  15.423
 1409TIP3    H225863   4.871   2.904  15.368
 1410TIP3   OH225864   4.829   2.852  15.775
 1410TIP3    H125865   4.828   2.788  15.847
 1410TIP3    H225866   4.794   2.801  15.701
 1411TIP3   OH225867   4.064   2.821  15.932
 1411TIP3    H125868   4.074   2.751  16.000
 1411TIP3    H225869   4.139   2.878  15.953
 1412TIP3   OH225870   5.197   3.149  15.605
 1412TIP3    H125871   5.157   3.076  15.653
 1412TIP3    H225872   5.200   3.218  15.673
 1413TIP3   OH225873   4.157   3.265  15.780
 1413TIP3    H125874   4.126   3.178  15.748
 1413TIP3    H225875   4.252   3.246  15.787
 1414TIP3   OH225876   3.823   2.623  15.323
 1414TIP3    H125877   3.776   2.708  15.325
 1414TIP3    H225878   3.763   2.568  15.271
 1415TIP3   OH225879   3.891   2.842  15.545
 1415TIP3    H125880   3.919   2.760  15.591
 1415TIP3    H225881   3.962   2.852  15.480
 1416TIP3   OH225882   4.910   3.664  15.628
 1416TIP3    H125883   4.974   3.595  15.598
 1416TIP3    H225884   4.888   3.629  15.715
 1417TIP3   OH225885   4.667   3.092  15.824
 1417TIP3    H125886   4.700   3.030  15.757
 1417TIP3    H225887   4.748   3.108  15.875
 1418TIP3   OH225888   5.526   2.259  15.895
 1418TIP3    H125889   5.544   2.317  15.972
 1418TIP3    H225890   5.583   2.301  15.829
 1419TIP3   OH225891   4.983   2.539  15.855
 1419TIP3    H125892   5.000   2.443  15.855
 1419TIP3    H225893   4.973   2.553  15.759
 1420TIP3   OH225894   4.293   2.349  15.576
 1420TIP3    H125895   4.306   2.432  15.526
 1420TIP3    H225896   4.255   2.292  15.506
 1421TIP3   OH225897   5.067   2.357  15.416
 1421TIP3    H125898   5.134   2.324  15.480
 1421TIP3    H225899   5.123   2.413  15.359
 1422TIP3   OH225900   3.957   2.589  15.650
 1422TIP3    H125901   4.024   2.535  15.695
 1422TIP3    H225902   3.968   2.558  15.559
 1423TIP3   OH225903   4.472   2.745  15.582
 1423TIP3    H125904   4.540   2.687  15.621
 1423TIP3    H225905   4.422   2.680  15.529
 1424TIP3   OH225906   5.571   2.398  16.123
 1424TIP3    H125907   5.510   2.475  16.112
 1424TIP3    H225908   5.574   2.391  16.220
 1425TIP3   OH225909   4.186   2.238  15.980
 1425TIP3    H125910   4.157   2.296  15.905
 1425TIP3    H225911   4.118   2.261  16.048
 1426TIP3   OH225912   4.914   3.186  15.336
 1426TIP3    H125913   4.883   3.161  15.248
 1426TIP3    H225914   4.884   3.280  15.340
 1427TIP3   OH225915   4.437   3.002  16.003
 1427TIP3    H125916   4.367   3.067  16.026
 1427TIP3    H225917   4.508   3.062  15.975
 1428TIP3   OH225918   5.251   2.291  15.612
 1428TIP3    H125919   5.228   2.214  15.664
 1428TIP3    H225920   5.316   2.335  15.669
 1429TIP3   OH225921   4.143   2.424  15.783
 1429TIP3    H125922   4.206   2.492  15.815
 1429TIP3    H225923   4.194   2.383  15.709
 1430TIP3   OH225924   4.282   3.203  16.086
 1430TIP3    H125925   4.277   3.294  16.052
 1430TIP3    H225926   4.194   3.195  16.130
 1431TIP3   OH225927   5.250   3.331  15.841
 1431TIP3    H125928   5.153   3.343  15.853
 1431TIP3    H225929   5.277   3.423  15.820
 1432TIP3   OH225930   5.283   2.159  15.980
 1432TIP3    H125931   5.211   2.223  15.970
 1432TIP3    H225932   5.355   2.201  15.928
 1433TIP3   OH225933   4.579   1.972  15.725
 1433TIP3    H125934   4.565   1.876  15.718
 1433TIP3    H225935   4.492   2.003  15.757
 1434TIP3   OH225936   5.077   3.508  15.500
 1434TIP3    H125937   5.119   3.438  15.447
 1434TIP3    H225938   5.120   3.588  15.461
 1435TIP3   OH225939   5.204   3.301  15.350
 1435TIP3    H125940   5.166   3.232  15.294
 1435TIP3    H225941   5.202   3.254  15.436
 1436TIP3   OH225942   5.359   3.162  16.201
 1436TIP3    H125943   5.373   3.097  16.129
 1436TIP3    H225944   5.380   3.246  16.156
 1437TIP3   OH225945   4.809   2.849  15.175
 1437TIP3    H125946   4.739   2.911  15.145
 1437TIP3    H225947   4.880   2.861  15.111
 1438TIP3   OH225948   5.548   2.793  16.005
 1438TIP3    H125949   5.482   2.866  16.009
 1438TIP3    H225950   5.598   2.817  15.925
 1439TIP3   OH225951   5.151   2.863  15.264
 1439TIP3    H125952   5.084   2.897  15.329
 1439TIP3    H225953   5.203   2.807  15.324
 1440TIP3   OH225954   5.147   2.689  16.182
 1440TIP3    H125955   5.148   2.770  16.234
 1440TIP3    H225956   5.084   2.718  16.113
 1441TIP3   OH225957   4.314   2.938  15.462
 1441TIP3    H125958   4.285   2.898  15.378
 1441TIP3    H225959   4.377   2.870  15.495
 1442TIP3   OH225960   4.447   3.276  15.729
 1442TIP3    H125961   4.446   3.224  15.647
 1442TIP3    H225962   4.525   3.240  15.775
 1443TIP3   OH225963   4.348   2.813  15.828
 1443TIP3    H125964   4.403   2.822  15.747
 1443TIP3    H225965   4.387   2.879  15.889
 1444TIP3   OH225966   4.990   3.370  15.897
 1444TIP3    H125967   4.961   3.433  15.964
 1444TIP3    H225968   4.965   3.285  15.941
 1445TIP3   OH225969   4.444   3.256  16.297
 1445TIP3    H125970   4.402   3.329  16.347
 1445TIP3    H225971   4.377   3.235  16.228
 1446TIP3   OH225972   5.038   2.796  15.034
 1446TIP3    H125973   5.090   2.807  15.119
 1446TIP3    H225974   5.091   2.839  14.968
 1447TIP3   OH225975   4.139   2.871  16.212
 1447TIP3    H125976   4.144   2.938  16.283
 1447TIP3    H225977   4.045   2.881  16.191
 1448TIP3   OH225978   4.812   3.464  15.386
 1448TIP3    H125979   4.857   3.496  15.464
 1448TIP3    H225980   4.758   3.539  15.357
 1449TIP3   OH225981   4.268   3.459  16.371
 1449TIP3    H125982   4.262   3.449  16.275
 1449TIP3    H225983   4.175   3.445  16.399
 1450TIP3   OH225984   5.412   1.962  15.030
 1450TIP3    H125985   5.316   1.975  15.051
 1450TIP3    H225986   5.430   2.043  14.982
 1451TIP3   OH225987   4.215   2.839  15.216
 1451TIP3    H125988   4.184   2.920  15.171
 1451TIP3    H225989   4.142   2.778  15.208
 1452TIP3   OH225990   3.818   3.083  16.115
 1452TIP3    H125991   3.778   3.076  16.026
 1452TIP3    H225992   3.832   2.989  16.134
 1453TIP3   OH225993   3.797   3.356  15.793
 1453TIP3    H125994   3.893   3.346  15.787
 1453TIP3    H225995   3.789   3.437  15.844
 1454TIP3   OH225996   5.620   3.426  16.356
 1454TIP3    H125997   5.607   3.330  16.358
 1454TIP3    H225998   5.535   3.452  16.399
 1455TIP3   OH225999   4.715   3.383  16.242
 1455TIP3    H126000   4.723   3.463  16.299
 1455TIP3    H226001   4.630   3.344  16.273
 1456TIP3   OH226002   4.759   3.756  15.227
 1456TIP3    H126003   4.750   3.750  15.132
 1456TIP3    H226004   4.764   3.852  15.246
 1457TIP3   OH226005   4.125   3.640  15.409
 1457TIP3    H126006   4.139   3.602  15.498
 1457TIP3    H226007   4.040   3.603  15.383
 1458TIP3   OH226008   5.031   3.674  15.207
 1458TIP3    H126009   4.935   3.675  15.224
 1458TIP3    H226010   5.059   3.598  15.260
 1459TIP3   OH226011   5.334   2.575  16.405
 1459TIP3    H126012   5.287   2.619  16.333
 1459TIP3    H226013   5.334   2.483  16.376
 1460TIP3   OH226014   4.050   3.215  16.206
 1460TIP3    H126015   4.071   3.178  16.294
 1460TIP3    H226016   3.963   3.176  16.185
 1461TIP3   OH226017   4.318   2.063  15.800
 1461TIP3    H126018   4.227   2.049  15.765
 1461TIP3    H226019   4.304   2.145  15.850
 1462TIP3   OH226020   4.782   2.028  16.137
 1462TIP3    H126021   4.821   1.986  16.216
 1462TIP3    H226022   4.685   2.017  16.152
 1463TIP3   OH226023   5.111   2.414  16.226
 1463TIP3    H126024   5.055   2.392  16.304
 1463TIP3    H226025   5.092   2.507  16.205
 1464TIP3   OH226026   4.328   2.560  15.927
 1464TIP3    H126027   4.254   2.559  15.991
 1464TIP3    H226028   4.323   2.650  15.890
 1465TIP3   OH226029   4.324   2.572  15.413
 1465TIP3    H126030   4.230   2.545  15.400
 1465TIP3    H226031   4.364   2.539  15.330
 1466TIP3   OH226032   4.873   2.619  15.289
 1466TIP3    H126033   4.836   2.703  15.255
 1466TIP3    H226034   4.945   2.602  15.226
 1467TIP3   OH226035   4.782   2.642  16.433
 1467TIP3    H126036   4.729   2.564  16.464
 1467TIP3    H226037   4.865   2.631  16.482
 1468TIP3   OH226038   4.980   2.572  15.574
 1468TIP3    H126039   4.952   2.627  15.500
 1468TIP3    H226040   4.989   2.486  15.528
 1469TIP3   OH226041   4.090   2.584  16.095
 1469TIP3    H126042   4.099   2.625  16.182
 1469TIP3    H226043   4.046   2.500  16.116
 1470TIP3   OH226044   4.432   2.331  14.787
 1470TIP3    H126045   4.386   2.278  14.853
 1470TIP3    H226046   4.360   2.351  14.726
 1471TIP3   OH226047   3.756   2.294  15.493
 1471TIP3    H126048   3.824   2.290  15.564
 1471TIP3    H226049   3.801   2.257  15.415
 1472TIP3   OH226050   4.899   2.729  16.030
 1472TIP3    H126051   4.937   2.660  15.972
 1472TIP3    H226052   4.852   2.676  16.097
 1473TIP3   OH226053   4.579   2.327  15.515
 1473TIP3    H126054   4.486   2.327  15.543
 1473TIP3    H226055   4.627   2.309  15.596
 1474TIP3   OH226056   4.062   2.484  15.393
 1474TIP3    H126057   3.969   2.493  15.363
 1474TIP3    H226058   4.088   2.395  15.363
 1475TIP3   OH226059   4.420   2.496  15.169
 1475TIP3    H126060   4.517   2.489  15.179
 1475TIP3    H226061   4.409   2.552  15.092
 1476TIP3   OH226062   5.019   2.250  15.838
 1476TIP3    H126063   4.951   2.255  15.909
 1476TIP3    H226064   4.969   2.224  15.760
 1477TIP3   OH226065   5.338   3.814  16.474
 1477TIP3    H126066   5.366   3.850  16.388
 1477TIP3    H226067   5.412   3.844  16.530
 1478TIP3   OH226068   4.109   3.060  16.428
 1478TIP3    H126069   4.179   3.085  16.491
 1478TIP3    H226070   4.030   3.068  16.486
 1479TIP3   OH226071   4.707   2.602  15.703
 1479TIP3    H126072   4.768   2.549  15.650
 1479TIP3    H226073   4.693   2.547  15.781
 1480TIP3   OH226074   4.208   2.220  15.345
 1480TIP3    H126075   4.176   2.127  15.346
 1480TIP3    H226076   4.290   2.210  15.294
 1481TIP3   OH226077   4.571   2.435  15.945
 1481TIP3    H126078   4.489   2.487  15.953
 1481TIP3    H226079   4.627   2.470  16.017
 1482TIP3   OH226080   4.632   3.052  15.115
 1482TIP3    H126081   4.549   3.012  15.082
 1482TIP3    H226082   4.609   3.072  15.208
 1483TIP3   OH226083   5.349   2.978  15.995
 1483TIP3    H126084   5.405   3.026  15.931
 1483TIP3    H226085   5.263   2.982  15.949
 1484TIP3   OH226086   5.014   2.337  14.937
 1484TIP3    H126087   4.922   2.352  14.911
 1484TIP3    H226088   5.043   2.424  14.968
 1485TIP3   OH226089   4.778   3.084  16.238
 1485TIP3    H126090   4.745   3.043  16.319
 1485TIP3    H226091   4.755   3.177  16.251
 1486TIP3   OH226092   5.088   2.534  15.100
 1486TIP3    H126093   5.177   2.516  15.137
 1486TIP3    H226094   5.097   2.612  15.044
 1487TIP3   OH226095   4.142   2.997  15.694
 1487TIP3    H126096   4.211   2.987  15.625
 1487TIP3    H226097   4.147   2.912  15.740
 1488TIP3   OH226098   4.846   3.199  15.030
 1488TIP3    H126099   4.809   3.288  15.049
 1488TIP3    H226100   4.765   3.145  15.038
 1489TIP3   OH226101   3.834   2.839  16.223
 1489TIP3    H126102   3.860   2.794  16.306
 1489TIP3    H226103   3.786   2.770  16.176
 1490TIP3   OH226104   4.541   2.792  16.438
 1490TIP3    H126105   4.510   2.763  16.352
 1490TIP3    H226106   4.634   2.761  16.438
 1491TIP3   OH226107   5.006   3.320  16.222
 1491TIP3    H126108   4.914   3.345  16.209
 1491TIP3    H226109   5.012   3.350  16.316
 1492TIP3   OH226110   5.575   3.128  16.353
 1492TIP3    H126111   5.487   3.153  16.315
 1492TIP3    H226112   5.631   3.125  16.272
 1493TIP3   OH226113   5.415   3.426  15.113
 1493TIP3    H126114   5.369   3.349  15.151
 1493TIP3    H226115   5.427   3.406  15.020
 1494TIP3   OH226116   5.127   2.909  15.823
 1494TIP3    H126117   5.033   2.889  15.813
 1494TIP3    H226118   5.170   2.833  15.779
 1495TIP3   OH226119   4.377   3.340  15.430
 1495TIP3    H126120   4.429   3.421  15.415
 1495TIP3    H226121   4.291   3.368  15.399
 1496TIP3   OH226122   4.520   3.108  15.385
 1496TIP3    H126123   4.491   3.200  15.394
 1496TIP3    H226124   4.449   3.059  15.431
 1497TIP3   OH226125   4.565   3.527  16.026
 1497TIP3    H126126   4.611   3.607  15.997
 1497TIP3    H226127   4.627   3.493  16.093
 1498TIP3   OH226128   4.388   3.607  15.339
 1498TIP3    H126129   4.292   3.619  15.355
 1498TIP3    H226130   4.424   3.691  15.373
 1499TIP3   OH226131   4.916   3.125  15.986
 1499TIP3    H126132   4.885   3.107  16.077
 1499TIP3    H226133   4.981   3.055  15.970
 1500TIP3   OH226134   5.200   3.586  16.235
 1500TIP3    H126135   5.129   3.537  16.190
 1500TIP3    H226136   5.217   3.655  16.168
 1501TIP3   OH226137   4.005   2.311  16.176
 1501TIP3    H126138   3.915   2.346  16.174
 1501TIP3    H226139   3.994   2.226  16.222
 1502TIP3   OH226140   3.966   3.488  16.018
 1502TIP3    H126141   3.998   3.397  16.019
 1502TIP3    H226142   3.993   3.518  16.106
 1503TIP3   OH226143   4.093   3.013  15.045
 1503TIP3    H126144   4.021   3.053  15.094
 1503TIP3    H226145   4.148   3.087  15.021
 1504TIP3   OH226146   4.879   2.288  16.072
 1504TIP3    H126147   4.950   2.294  16.136
 1504TIP3    H226148   4.840   2.200  16.093
 1505TIP3   OH226149   4.956   2.247  15.184
 1505TIP3    H126150   4.976   2.289  15.098
 1505TIP3    H226151   5.014   2.293  15.245
 1506TIP3   OH226152   4.727   3.469  15.068
 1506TIP3    H126153   4.638   3.509  15.066
 1506TIP3    H226154   4.775   3.505  14.993
 1507TIP3   OH226155   4.672   2.424  15.262
 1507TIP3    H126156   4.754   2.477  15.267
 1507TIP3    H226157   4.649   2.405  15.355
 1508TIP3   OH226158   4.732   2.523  16.182
 1508TIP3    H126159   4.739   2.577  16.262
 1508TIP3    H226160   4.797   2.452  16.191
 1509TIP3   OH226161   4.761   2.125  15.350
 1509TIP3    H126162   4.728   2.191  15.414
 1509TIP3    H226163   4.830   2.179  15.305
 1510TIP3   OH226164   4.454   3.566  15.064
 1510TIP3    H126165   4.474   3.647  15.014
 1510TIP3    H226166   4.434   3.599  15.154
 1511TIP3   OH226167   5.349   2.311  16.266
 1511TIP3    H126168   5.256   2.341  16.253
 1511TIP3    H226169   5.379   2.307  16.173
 1512TIP3   OH226170   5.211   2.687  15.668
 1512TIP3    H126171   5.128   2.643  15.639
 1512TIP3    H226172   5.257   2.619  15.720
 1513TIP3   OH226173   5.317   3.614  15.834
 1513TIP3    H126174   5.308   3.682  15.764
 1513TIP3    H226175   5.413   3.619  15.851
 1514TIP3   OH226176   4.066   2.026  15.715
 1514TIP3    H126177   4.047   2.028  15.618
 1514TIP3    H226178   4.025   1.940  15.740
 1515TIP3   OH226179   3.880   3.683  16.457
 1515TIP3    H126180   3.941   3.664  16.532
 1515TIP3    H226181   3.840   3.596  16.441
 1516TIP3   OH226182   4.351   3.572  16.619
 1516TIP3    H126183   4.429   3.525  16.651
 1516TIP3    H226184   4.350   3.545  16.525
 1517TIP3   OH226185   5.029   3.415  16.457
 1517TIP3    H126186   4.974   3.345  16.497
 1517TIP3    H226187   5.074   3.437  16.540
 1518TIP3   OH226188   3.873   3.059  16.558
 1518TIP3    H126189   3.891   2.969  16.525
 1518TIP3    H226190   3.801   3.087  16.498
 1519TIP3   OH226191   4.543   3.058  16.491
 1519TIP3    H126192   4.509   3.090  16.405
 1519TIP3    H226193   4.552   2.961  16.481
 1520TIP3   OH226194   5.114   3.045  16.235
 1520TIP3    H126195   5.193   3.103  16.229
 1520TIP3    H226196   5.044   3.113  16.239
 1521TIP3   OH226197   3.960   2.782  16.494
 1521TIP3    H126198   4.006   2.698  16.486
 1521TIP3    H226199   3.943   2.786  16.590
 1522TIP3   OH226200   4.430   2.892  15.000
 1522TIP3    H126201   4.386   2.840  15.068
 1522TIP3    H226202   4.460   2.829  14.933
 1523TIP3   OH226203   4.355   2.677  16.230
 1523TIP3    H126204   4.295   2.750  16.256
 1523TIP3    H226205   4.395   2.714  16.150
 1524TIP3   OH226206   4.864   2.927  16.569
 1524TIP3    H126207   4.959   2.929  16.553
 1524TIP3    H226208   4.846   2.852  16.628
 1525TIP3   OH226209   4.396   2.416  16.334
 1525TIP3    H126210   4.407   2.345  16.269
 1525TIP3    H226211   4.391   2.497  16.279
 1526TIP3   OH226212   4.436   2.253  16.092
 1526TIP3    H126213   4.487   2.300  16.021
 1526TIP3    H226214   4.347   2.246  16.051
 1527TIP3   OH226215   4.589   2.803  16.116
 1527TIP3    H126216   4.665   2.786  16.059
 1527TIP3    H226217   4.553   2.886  16.082
 1528TIP3   OH226218   5.030   2.578  16.612
 1528TIP3    H126219   5.052   2.484  16.604
 1528TIP3    H226220   5.118   2.619  16.611
 1529TIP3   OH226221   5.167   2.863  16.436
 1529TIP3    H126222   5.137   2.927  16.368
 1529TIP3    H226223   5.260   2.851  16.406
 1530TIP3   OH226224   4.244   2.539  16.531
 1530TIP3    H126225   4.165   2.484  16.511
 1530TIP3    H226226   4.306   2.504  16.464
 1531TIP3   OH226227   4.513   1.996  16.132
 1531TIP3    H126228   4.496   2.092  16.122
 1531TIP3    H226229   4.440   1.960  16.080
 1532TIP3   OH226230   4.642   2.430  16.495
 1532TIP3    H126231   4.609   2.408  16.584
 1532TIP3    H226232   4.565   2.411  16.439
 1533TIP3   OH226233   4.914   2.344  16.401
 1533TIP3    H126234   4.818   2.352  16.415
 1533TIP3    H226235   4.941   2.281  16.470
 1534TIP3   OH226236   5.069   2.207  16.592
 1534TIP3    H126237   5.067   2.109  16.596
 1534TIP3    H226238   5.046   2.236  16.683
 1535TIP3   OH226239   4.050   2.334  16.503
 1535TIP3    H126240   4.075   2.260  16.446
 1535TIP3    H226241   4.041   2.291  16.590
 1536TIP3   OH226242   4.537   1.936  16.400
 1536TIP3    H126243   4.605   1.866  16.398
 1536TIP3    H226244   4.525   1.951  16.305
 1537TIP3   OH226245   4.571   2.097  16.611
 1537TIP3    H126246   4.555   2.047  16.527
 1537TIP3    H226247   4.514   2.175  16.600
 1538TIP3   OH226248   4.523   3.790  14.932
 1538TIP3    H126249   4.617   3.804  14.937
 1538TIP3    H226250   4.494   3.851  14.863
 1539TIP3   OH226251   3.737   3.785  15.385
 1539TIP3    H126252   3.690   3.732  15.316
 1539TIP3    H226253   3.788   3.718  15.434
 1540TIP3   OH226254   3.831   3.599  15.562
 1540TIP3    H126255   3.800   3.510  15.583
 1540TIP3    H226256   3.863   3.629  15.649
 1541TIP3   OH226257   5.589   3.678  15.853
 1541TIP3    H126258   5.592   3.694  15.949
 1541TIP3    H226259   5.659   3.737  15.823
 1542TIP3   OH226260   5.546   3.638  16.148
 1542TIP3    H126261   5.499   3.561  16.110
 1542TIP3    H226262   5.595   3.593  16.219
 1543TIP3   OH226263   5.393   3.201  16.629
 1543TIP3    H126264   5.298   3.213  16.650
 1543TIP3    H226265   5.429   3.290  16.654
 1544TIP3   OH226266   5.524   3.038  15.154
 1544TIP3    H126267   5.608   3.079  15.178
 1544TIP3    H226268   5.521   2.970  15.224
 1545TIP3   OH226269   5.558   2.849  15.346
 1545TIP3    H126270   5.482   2.802  15.387
 1545TIP3    H226271   5.617   2.865  15.423
 1546TIP3   OH226272   5.534   3.119  15.846
 1546TIP3    H126273   5.615   3.082  15.807
 1546TIP3    H226274   5.548   3.215  15.829
 1547TIP3   OH226275   5.390   3.410  16.073
 1547TIP3    H126276   5.320   3.445  16.131
 1547TIP3    H226277   5.335   3.371  16.002
 1548TIP3   OH226278   5.340   2.697  15.403
 1548TIP3    H126279   5.324   2.602  15.402
 1548TIP3    H226280   5.308   2.720  15.492
 1549TIP3   OH226281   3.841   2.904  15.811
 1549TIP3    H126282   3.858   2.899  15.714
 1549TIP3    H226283   3.932   2.889  15.844
 1550TIP3   OH226284   5.426   2.895  16.380
 1550TIP3    H126285   5.487   2.818  16.383
 1550TIP3    H226286   5.487   2.971  16.369
 1551TIP3   OH226287   5.574   2.683  16.441
 1551TIP3    H126288   5.488   2.641  16.420
 1551TIP3    H226289   5.633   2.606  16.431
 1552TIP3   OH226290   5.352   2.297  14.758
 1552TIP3    H126291   5.405   2.254  14.823
 1552TIP3    H226292   5.263   2.262  14.770
 1553TIP3   OH226293   5.306   2.453  15.250
 1553TIP3    H126294   5.336   2.360  15.264
 1553TIP3    H226295   5.385   2.496  15.215
 1554TIP3   OH226296   5.371   2.510  15.794
 1554TIP3    H126297   5.467   2.533  15.793
 1554TIP3    H226298   5.352   2.524  15.888
 1555TIP3   OH226299   5.378   2.583  16.074
 1555TIP3    H126300   5.289   2.611  16.104
 1555TIP3    H226301   5.421   2.668  16.050
 1556TIP3   OH226302   3.802   2.436  16.423
 1556TIP3    H126303   3.895   2.417  16.444
 1556TIP3    H226304   3.758   2.354  16.454
 1557TIP3   OH226305   5.606   1.989  16.606
 1557TIP3    H126306   5.640   1.921  16.545
 1557TIP3    H226307   5.615   2.070  16.552
 1558TIP3   OH226308   5.371   2.185  15.255
 1558TIP3    H126309   5.394   2.142  15.340
 1558TIP3    H226310   5.311   2.119  15.213
 1559TIP3   OH226311   3.923   2.266  15.711
 1559TIP3    H126312   3.969   2.183  15.736
 1559TIP3    H226313   3.978   2.335  15.749
 1560TIP3   OH226314   3.750   2.568  15.815
 1560TIP3    H126315   3.806   2.539  15.739
 1560TIP3    H226316   3.801   2.646  15.839
 1561TIP3   OH226317   5.557   2.199  16.442
 1561TIP3    H126318   5.463   2.226  16.439
 1561TIP3    H226319   5.559   2.144  16.362
 1562TIP3   OH226320   3.786   2.196  15.222
 1562TIP3    H126321   3.691   2.210  15.211
 1562TIP3    H226322   3.827   2.237  15.146
 1563TIP3   OH226323   5.261   3.686  15.414
 1563TIP3    H126324   5.329   3.656  15.353
 1563TIP3    H226325   5.312   3.736  15.480
 1564TIP3   OH226326   3.782   2.057  16.050
 1564TIP3    H126327   3.716   2.038  16.119
 1564TIP3    H226328   3.736   2.124  15.996
 1565TIP3   OH226329   4.006   3.379  16.467
 1565TIP3    H126330   3.922   3.399  16.425
 1565TIP3    H226331   3.980   3.371  16.560
 1566TIP3   OH226332   4.296   3.478  16.095
 1566TIP3    H126333   4.264   3.565  16.068
 1566TIP3    H226334   4.389   3.486  16.064
 1567TIP3   OH226335   4.727   3.620  16.382
 1567TIP3    H126336   4.738   3.585  16.474
 1567TIP3    H226337   4.819   3.648  16.363
 1568TIP3   OH226338   4.958   3.750  16.314
 1568TIP3    H126339   5.028   3.687  16.294
 1568TIP3    H226340   4.994   3.789  16.397
 1569TIP3   OH226341   5.459   2.008  16.228
 1569TIP3    H126342   5.376   2.038  16.186
 1569TIP3    H226343   5.475   1.926  16.176
 1570TIP3   OH226344   4.038   3.801  16.093
 1570TIP3    H126345   3.965   3.851  16.055
 1570TIP3    H226346   4.008   3.782  16.184
 1571TIP3   OH226347   4.285   3.759  16.001
 1571TIP3    H126348   4.196   3.774  16.041
 1571TIP3    H226349   4.280   3.818  15.924
 1572TIP3   OH226350   4.756   3.750  15.918
 1572TIP3    H126351   4.710   3.806  15.854
 1572TIP3    H226352   4.769   3.813  15.992
 1573TIP3   OH226353   4.984   3.630  16.022
 1573TIP3    H126354   4.899   3.659  15.984
 1573TIP3    H226355   5.034   3.714  16.013
 1574TIP3   OH226356   5.243   3.788  16.042
 1574TIP3    H126357   5.238   3.884  16.020
 1574TIP3    H226358   5.265   3.750  15.955
 1575TIP3   OH226359   3.981   3.665  15.786
 1575TIP3    H126360   3.976   3.622  15.875
 1575TIP3    H226361   4.065   3.629  15.750
 1576TIP3   OH226362   4.192   3.536  15.653
 1576TIP3    H126363   4.176   3.443  15.678
 1576TIP3    H226364   4.277   3.553  15.698
 1577TIP3   OH226365   4.452   3.585  15.742
 1577TIP3    H126366   4.468   3.493  15.716
 1577TIP3    H226367   4.457   3.580  15.838
 1578TIP3   OH226368   4.798   2.150  15.656
 1578TIP3    H126369   4.730   2.086  15.684
 1578TIP3    H226370   4.852   2.097  15.597
 1579TIP3   OH226371   5.310   1.955  15.663
 1579TIP3    H126372   5.372   2.014  15.612
 1579TIP3    H226373   5.223   1.991  15.639
 1580TIP3   OH226374   5.477   2.080  15.490
 1580TIP3    H126375   5.546   2.022  15.450
 1580TIP3    H226376   5.528   2.162  15.506
 1581TIP3   OH226377   4.035   2.015  15.439
 1581TIP3    H126378   3.953   1.993  15.391
 1581TIP3    H226379   4.080   1.928  15.434
 1582TIP3   OH226380   4.483   2.002  15.419
 1582TIP3    H126381   4.571   2.043  15.412
 1582TIP3    H226382   4.479   1.984  15.513
 1583TIP3   OH226383   5.053   2.007  15.581
 1583TIP3    H126384   5.048   2.019  15.485
 1583TIP3    H226385   5.016   1.916  15.593
 1584TIP3   OH226386   5.180   2.012  15.151
 1584TIP3    H126387   5.104   2.069  15.129
 1584TIP3    H226388   5.136   1.926  15.169
 1585TIP3   OH226389   4.593   2.204  15.103
 1585TIP3    H126390   4.620   2.149  15.176
 1585TIP3    H226391   4.602   2.292  15.144
 1586TIP3   OH226392   5.466   3.668  15.211
 1586TIP3    H126393   5.432   3.589  15.163
 1586TIP3    H226394   5.450   3.741  15.150
 1587TIP3   OH226395   4.023   2.067  16.385
 1587TIP3    H126396   3.984   1.987  16.426
 1587TIP3    H226397   4.114   2.062  16.423
 1588TIP3   OH226398   4.223   2.007  16.552
 1588TIP3    H126399   4.310   1.972  16.525
 1588TIP3    H226400   4.185   1.926  16.590
 1589TIP3   OH226401   5.064   1.935  16.565
 1589TIP3    H126402   5.073   1.886  16.649
 1589TIP3    H226403   5.155   1.931  16.530
 1590TIP3   OH226404   5.387   3.541  16.426
 1590TIP3    H126405   5.304   3.524  16.376
 1590TIP3    H226406   5.372   3.634  16.450
 1591TIP3   OH226407   6.829   2.926  15.427
 1591TIP3    H126408   6.829   3.024  15.421
 1591TIP3    H226409   6.757   2.903  15.367
 1592TIP3   OH226410   6.715   2.852  15.776
 1592TIP3    H126411   6.713   2.788  15.848
 1592TIP3    H226412   6.680   2.801  15.701
 1593TIP3   OH226413   5.950   2.820  15.931
 1593TIP3    H126414   5.958   2.752  16.000
 1593TIP3    H226415   6.025   2.877  15.953
 1594TIP3   OH226416   7.084   3.144  15.608
 1594TIP3    H126417   7.042   3.074  15.657
 1594TIP3    H226418   7.091   3.214  15.674
 1595TIP3   OH226419   6.042   3.265  15.780
 1595TIP3    H126420   6.011   3.178  15.749
 1595TIP3    H226421   6.138   3.247  15.785
 1596TIP3   OH226422   5.709   2.623  15.322
 1596TIP3    H126423   5.663   2.709  15.327
 1596TIP3    H226424   5.645   2.566  15.280
 1597TIP3   OH226425   5.776   2.841  15.541
 1597TIP3    H126426   5.805   2.761  15.589
 1597TIP3    H226427   5.849   2.856  15.479
 1598TIP3   OH226428   6.799   3.665  15.631
 1598TIP3    H126429   6.861   3.595  15.598
 1598TIP3    H226430   6.773   3.627  15.714
 1599TIP3   OH226431   6.552   3.092  15.824
 1599TIP3    H126432   6.585   3.030  15.758
 1599TIP3    H226433   6.633   3.108  15.875
 1600TIP3   OH226434   6.867   2.539  15.854
 1600TIP3    H126435   6.886   2.444  15.855
 1600TIP3    H226436   6.858   2.553  15.758
 1601TIP3   OH226437   6.179   2.349  15.576
 1601TIP3    H126438   6.192   2.432  15.527
 1601TIP3    H226439   6.142   2.291  15.507
 1602TIP3   OH226440   6.955   2.359  15.417
 1602TIP3    H126441   7.023   2.326  15.481
 1602TIP3    H226442   7.007   2.413  15.355
 1603TIP3   OH226443   5.843   2.591  15.651
 1603TIP3    H126444   5.909   2.536  15.696
 1603TIP3    H226445   5.854   2.560  15.560
 1604TIP3   OH226446   6.357   2.744  15.583
 1604TIP3    H126447   6.426   2.686  15.621
 1604TIP3    H226448   6.308   2.679  15.530
 1605TIP3   OH226449   6.071   2.238  15.980
 1605TIP3    H126450   6.043   2.296  15.905
 1605TIP3    H226451   6.004   2.261  16.048
 1606TIP3   OH226452   6.797   3.186  15.336
 1606TIP3    H126453   6.775   3.161  15.245
 1606TIP3    H226454   6.769   3.280  15.340
 1607TIP3   OH226455   6.322   3.003  16.003
 1607TIP3    H126456   6.252   3.067  16.026
 1607TIP3    H226457   6.394   3.063  15.975
 1608TIP3   OH226458   7.117   2.288  15.618
 1608TIP3    H126459   7.109   2.209  15.671
 1608TIP3    H226460   7.189   2.337  15.663
 1609TIP3   OH226461   6.029   2.423  15.784
 1609TIP3    H126462   6.091   2.493  15.815
 1609TIP3    H226463   6.080   2.384  15.709
 1610TIP3   OH226464   6.167   3.203  16.086
 1610TIP3    H126465   6.163   3.294  16.052
 1610TIP3    H226466   6.079   3.195  16.130
 1611TIP3   OH226467   5.773   3.168  15.164
 1611TIP3    H126468   5.753   3.196  15.074
 1611TIP3    H226469   5.783   3.248  15.220
 1612TIP3   OH226470   7.127   3.327  15.849
 1612TIP3    H126471   7.031   3.341  15.854
 1612TIP3    H226472   7.160   3.415  15.822
 1613TIP3   OH226473   7.161   2.171  15.966
 1613TIP3    H126474   7.085   2.232  15.969
 1613TIP3    H226475   7.229   2.219  15.920
 1614TIP3   OH226476   6.465   1.972  15.728
 1614TIP3    H126477   6.451   1.875  15.719
 1614TIP3    H226478   6.377   2.002  15.757
 1615TIP3   OH226479   6.959   3.506  15.500
 1615TIP3    H126480   7.006   3.436  15.449
 1615TIP3    H226481   7.005   3.586  15.465
 1616TIP3   OH226482   7.085   3.299  15.348
 1616TIP3    H126483   7.051   3.229  15.290
 1616TIP3    H226484   7.087   3.251  15.433
 1617TIP3   OH226485   7.224   3.171  16.209
 1617TIP3    H126486   7.254   3.103  16.146
 1617TIP3    H226487   7.264   3.250  16.167
 1618TIP3   OH226488   6.695   2.855  15.179
 1618TIP3    H126489   6.625   2.911  15.140
 1618TIP3    H226490   6.765   2.857  15.110
 1619TIP3   OH226491   7.038   2.874  15.271
 1619TIP3    H126492   6.965   2.898  15.332
 1619TIP3    H226493   7.087   2.807  15.324
 1620TIP3   OH226494   7.026   2.686  16.180
 1620TIP3    H126495   7.032   2.767  16.233
 1620TIP3    H226496   6.968   2.719  16.109
 1621TIP3   OH226497   6.201   2.938  15.462
 1621TIP3    H126498   6.169   2.899  15.376
 1621TIP3    H226499   6.262   2.868  15.495
 1622TIP3   OH226500   6.333   3.277  15.729
 1622TIP3    H126501   6.332   3.224  15.648
 1622TIP3    H226502   6.411   3.240  15.775
 1623TIP3   OH226503   6.233   2.812  15.828
 1623TIP3    H126504   6.288   2.822  15.747
 1623TIP3    H226505   6.273   2.879  15.888
 1624TIP3   OH226506   6.869   3.372  15.897
 1624TIP3    H126507   6.850   3.431  15.970
 1624TIP3    H226508   6.852   3.283  15.939
 1625TIP3   OH226509   6.331   3.258  16.295
 1625TIP3    H126510   6.286   3.328  16.347
 1625TIP3    H226511   6.262   3.236  16.227
 1626TIP3   OH226512   6.924   2.796  15.037
 1626TIP3    H126513   6.979   2.810  15.117
 1626TIP3    H226514   6.970   2.843  14.967
 1627TIP3   OH226515   6.024   2.872  16.212
 1627TIP3    H126516   6.029   2.938  16.283
 1627TIP3    H226517   5.929   2.880  16.191
 1628TIP3   OH226518   6.700   3.463  15.380
 1628TIP3    H126519   6.743   3.494  15.460
 1628TIP3    H226520   6.642   3.537  15.359
 1629TIP3   OH226521   6.154   3.459  16.371
 1629TIP3    H126522   6.146   3.448  16.275
 1629TIP3    H226523   6.061   3.446  16.399
 1630TIP3   OH226524   7.278   1.959  15.022
 1630TIP3    H126525   7.187   1.980  15.053
 1630TIP3    H226526   7.304   2.039  14.977
 1631TIP3   OH226527   6.097   2.842  15.227
 1631TIP3    H126528   6.071   2.918  15.170
 1631TIP3    H226529   6.032   2.777  15.202
 1632TIP3   OH226530   5.708   3.083  16.111
 1632TIP3    H126531   5.662   3.074  16.025
 1632TIP3    H226532   5.715   2.988  16.134
 1633TIP3   OH226533   5.683   3.356  15.792
 1633TIP3    H126534   5.779   3.345  15.789
 1633TIP3    H226535   5.675   3.438  15.841
 1634TIP3   OH226536   6.600   3.386  16.242
 1634TIP3    H126537   6.607   3.463  16.304
 1634TIP3    H226538   6.517   3.343  16.270
 1635TIP3   OH226539   6.646   3.756  15.225
 1635TIP3    H126540   6.638   3.748  15.128
 1635TIP3    H226541   6.650   3.852  15.243
 1636TIP3   OH226542   6.011   3.641  15.408
 1636TIP3    H126543   6.027   3.602  15.497
 1636TIP3    H226544   5.924   3.605  15.388
 1637TIP3   OH226545   6.952   3.678  14.925
 1637TIP3    H126546   6.993   3.601  14.880
 1637TIP3    H226547   6.955   3.649  15.018
 1638TIP3   OH226548   6.921   3.668  15.202
 1638TIP3    H126549   6.826   3.675  15.219
 1638TIP3    H226550   6.946   3.594  15.260
 1639TIP3   OH226551   7.185   2.582  16.411
 1639TIP3    H126552   7.172   2.621  16.324
 1639TIP3    H226553   7.228   2.497  16.386
 1640TIP3   OH226554   5.935   3.215  16.206
 1640TIP3    H126555   5.957   3.178  16.294
 1640TIP3    H226556   5.848   3.175  16.185
 1641TIP3   OH226557   6.203   2.063  15.800
 1641TIP3    H126558   6.113   2.049  15.765
 1641TIP3    H226559   6.189   2.145  15.850
 1642TIP3   OH226560   6.667   2.028  16.137
 1642TIP3    H126561   6.707   1.986  16.216
 1642TIP3    H226562   6.570   2.017  16.152
 1643TIP3   OH226563   6.993   2.413  16.225
 1643TIP3    H126564   6.941   2.393  16.306
 1643TIP3    H226565   6.978   2.507  16.207
 1644TIP3   OH226566   6.214   2.560  15.928
 1644TIP3    H126567   6.140   2.559  15.991
 1644TIP3    H226568   6.209   2.650  15.890
 1645TIP3   OH226569   6.209   2.570  15.414
 1645TIP3    H126570   6.116   2.547  15.399
 1645TIP3    H226571   6.249   2.542  15.329
 1646TIP3   OH226572   6.762   2.619  15.287
 1646TIP3    H126573   6.724   2.704  15.255
 1646TIP3    H226574   6.834   2.603  15.223
 1647TIP3   OH226575   6.667   2.643  16.433
 1647TIP3    H126576   6.617   2.564  16.464
 1647TIP3    H226577   6.751   2.631  16.481
 1648TIP3   OH226578   6.865   2.573  15.574
 1648TIP3    H126579   6.836   2.627  15.498
 1648TIP3    H226580   6.874   2.487  15.529
 1649TIP3   OH226581   5.976   2.584  16.094
 1649TIP3    H126582   5.985   2.625  16.182
 1649TIP3    H226583   5.932   2.500  16.116
 1650TIP3   OH226584   5.643   2.293  15.492
 1650TIP3    H126585   5.708   2.289  15.566
 1650TIP3    H226586   5.691   2.256  15.417
 1651TIP3   OH226587   6.785   2.728  16.029
 1651TIP3    H126588   6.824   2.658  15.972
 1651TIP3    H226589   6.738   2.676  16.097
 1652TIP3   OH226590   6.463   2.329  15.517
 1652TIP3    H126591   6.370   2.327  15.546
 1652TIP3    H226592   6.513   2.308  15.598
 1653TIP3   OH226593   5.945   2.481  15.400
 1653TIP3    H126594   5.856   2.495  15.362
 1653TIP3    H226595   5.975   2.396  15.364
 1654TIP3   OH226596   6.305   2.493  15.169
 1654TIP3    H126597   6.403   2.486  15.183
 1654TIP3    H226598   6.293   2.557  15.098
 1655TIP3   OH226599   6.902   2.247  15.837
 1655TIP3    H126600   6.834   2.254  15.907
 1655TIP3    H226601   6.852   2.226  15.757
 1656TIP3   OH226602   7.224   3.815  16.475
 1656TIP3    H126603   7.253   3.849  16.389
 1656TIP3    H226604   7.296   3.845  16.531
 1657TIP3   OH226605   5.994   3.060  16.429
 1657TIP3    H126606   6.065   3.085  16.491
 1657TIP3    H226607   5.915   3.068  16.487
 1658TIP3   OH226608   6.593   2.602  15.703
 1658TIP3    H126609   6.654   2.548  15.650
 1658TIP3    H226610   6.578   2.547  15.781
 1659TIP3   OH226611   6.090   2.218  15.339
 1659TIP3    H126612   6.065   2.124  15.344
 1659TIP3    H226613   6.175   2.209  15.293
 1660TIP3   OH226614   6.457   2.434  15.945
 1660TIP3    H126615   6.375   2.487  15.953
 1660TIP3    H226616   6.513   2.470  16.017
 1661TIP3   OH226617   6.514   3.052  15.113
 1661TIP3    H126618   6.432   3.011  15.083
 1661TIP3    H226619   6.494   3.071  15.207
 1662TIP3   OH226620   7.220   2.983  15.995
 1662TIP3    H126621   7.284   3.001  15.923
 1662TIP3    H226622   7.137   2.980  15.943
 1663TIP3   OH226623   6.666   3.082  16.237
 1663TIP3    H126624   6.630   3.041  16.316
 1663TIP3    H226625   6.644   3.175  16.250
 1664TIP3   OH226626   6.969   2.528  15.097
 1664TIP3    H126627   7.059   2.518  15.134
 1664TIP3    H226628   6.975   2.608  15.043
 1665TIP3   OH226629   6.027   2.997  15.694
 1665TIP3    H126630   6.094   2.988  15.624
 1665TIP3    H226631   6.033   2.911  15.740
 1666TIP3   OH226632   6.727   3.202  15.023
 1666TIP3    H126633   6.693   3.289  15.053
 1666TIP3    H226634   6.650   3.143  15.037
 1667TIP3   OH226635   5.725   2.837  16.222
 1667TIP3    H126636   5.743   2.792  16.307
 1667TIP3    H226637   5.664   2.776  16.177
 1668TIP3   OH226638   6.427   2.792  16.438
 1668TIP3    H126639   6.395   2.761  16.352
 1668TIP3    H226640   6.519   2.761  16.437
 1669TIP3   OH226641   6.894   3.326  16.231
 1669TIP3    H126642   6.801   3.339  16.212
 1669TIP3    H226643   6.896   3.353  16.325
 1670TIP3   OH226644   7.234   3.410  15.106
 1670TIP3    H126645   7.248   3.329  15.156
 1670TIP3    H226646   7.303   3.408  15.039
 1671TIP3   OH226647   7.006   2.906  15.825
 1671TIP3    H126648   6.912   2.885  15.809
 1671TIP3    H226649   7.053   2.833  15.780
 1672TIP3   OH226650   6.265   3.341  15.432
 1672TIP3    H126651   6.315   3.423  15.413
 1672TIP3    H226652   6.177   3.365  15.401
 1673TIP3   OH226653   6.407   3.108  15.386
 1673TIP3    H126654   6.375   3.200  15.394
 1673TIP3    H226655   6.334   3.059  15.429
 1674TIP3   OH226656   6.450   3.530  16.032
 1674TIP3    H126657   6.495   3.602  15.987
 1674TIP3    H226658   6.512   3.486  16.093
 1675TIP3   OH226659   6.274   3.607  15.338
 1675TIP3    H126660   6.178   3.622  15.353
 1675TIP3    H226661   6.312   3.689  15.374
 1676TIP3   OH226662   6.804   3.126  15.987
 1676TIP3    H126663   6.771   3.107  16.078
 1676TIP3    H226664   6.867   3.054  15.971
 1677TIP3   OH226665   7.034   3.232  14.899
 1677TIP3    H126666   7.063   3.185  14.980
 1677TIP3    H226667   6.938   3.220  14.906
 1678TIP3   OH226668   7.077   3.590  16.236
 1678TIP3    H126669   7.017   3.533  16.187
 1678TIP3    H226670   7.106   3.654  16.168
 1679TIP3   OH226671   5.891   2.311  16.177
 1679TIP3    H126672   5.800   2.346  16.174
 1679TIP3    H226673   5.880   2.226  16.222
 1680TIP3   OH226674   7.114   3.093  15.121
 1680TIP3    H126675   7.089   3.015  15.175
 1680TIP3    H226676   7.208   3.100  15.143
 1681TIP3   OH226677   5.852   3.488  16.018
 1681TIP3    H126678   5.883   3.396  16.019
 1681TIP3    H226679   5.878   3.518  16.106
 1682TIP3   OH226680   6.329   3.294  14.989
 1682TIP3    H126681   6.352   3.244  15.067
 1682TIP3    H226682   6.334   3.387  15.019
 1683TIP3   OH226683   5.984   3.019  15.046
 1683TIP3    H126684   5.908   3.058  15.094
 1683TIP3    H226685   6.031   3.094  15.008
 1684TIP3   OH226686   6.762   2.287  16.073
 1684TIP3    H126687   6.837   2.294  16.134
 1684TIP3    H226688   6.726   2.199  16.094
 1685TIP3   OH226689   6.857   2.240  15.174
 1685TIP3    H126690   6.854   2.302  15.100
 1685TIP3    H226691   6.895   2.291  15.246
 1686TIP3   OH226692   6.608   3.458  15.059
 1686TIP3    H126693   6.525   3.509  15.071
 1686TIP3    H226694   6.662   3.514  15.002
 1687TIP3   OH226695   6.554   2.431  15.260
 1687TIP3    H126696   6.641   2.475  15.265
 1687TIP3    H226697   6.534   2.402  15.350
 1688TIP3   OH226698   6.618   2.521  16.181
 1688TIP3    H126699   6.627   2.578  16.260
 1688TIP3    H226700   6.684   2.452  16.190
 1689TIP3   OH226701   6.651   2.124  15.359
 1689TIP3    H126702   6.611   2.194  15.411
 1689TIP3    H226703   6.712   2.179  15.304
 1690TIP3   OH226704   6.351   3.570  15.066
 1690TIP3    H126705   6.355   3.650  15.012
 1690TIP3    H226706   6.320   3.599  15.154
 1691TIP3   OH226707   7.231   2.303  16.257
 1691TIP3    H126708   7.141   2.342  16.252
 1691TIP3    H226709   7.264   2.313  16.167
 1692TIP3   OH226710   7.098   2.689  15.672
 1692TIP3    H126711   7.015   2.647  15.639
 1692TIP3    H226712   7.137   2.614  15.720
 1693TIP3   OH226713   7.207   3.614  15.835
 1693TIP3    H126714   7.190   3.683  15.768
 1693TIP3    H226715   7.301   3.624  15.853
 1694TIP3   OH226716   5.950   2.027  15.713
 1694TIP3    H126717   5.931   2.027  15.616
 1694TIP3    H226718   5.910   1.941  15.739
 1695TIP3   OH226719   5.840   3.414  15.316
 1695TIP3    H126720   5.762   3.468  15.331
 1695TIP3    H226721   5.902   3.468  15.266
 1696TIP3   OH226722   5.767   3.684  16.457
 1696TIP3    H126723   5.827   3.664  16.532
 1696TIP3    H226724   5.726   3.597  16.440
 1697TIP3   OH226725   6.236   3.571  16.619
 1697TIP3    H126726   6.316   3.526  16.651
 1697TIP3    H226727   6.234   3.546  16.525
 1698TIP3   OH226728   6.887   3.413  16.488
 1698TIP3    H126729   6.855   3.327  16.520
 1698TIP3    H226730   6.964   3.428  16.548
 1699TIP3   OH226731   7.102   3.508  14.781
 1699TIP3    H126732   7.118   3.420  14.820
 1699TIP3    H226733   7.175   3.523  14.721
 1700TIP3   OH226734   5.754   3.056  16.558
 1700TIP3    H126735   5.778   2.969  16.522
 1700TIP3    H226736   5.687   3.086  16.494
 1701TIP3   OH226737   6.432   3.059  16.492
 1701TIP3    H126738   6.396   3.091  16.407
 1701TIP3    H226739   6.438   2.961  16.481
 1702TIP3   OH226740   6.997   3.042  16.230
 1702TIP3    H126741   7.076   3.101  16.227
 1702TIP3    H226742   6.931   3.112  16.240
 1703TIP3   OH226743   5.850   2.783  16.495
 1703TIP3    H126744   5.892   2.697  16.486
 1703TIP3    H226745   5.830   2.785  16.590
 1704TIP3   OH226746   6.240   2.677  16.230
 1704TIP3    H126747   6.181   2.750  16.255
 1704TIP3    H226748   6.281   2.714  16.150
 1705TIP3   OH226749   6.745   2.936  16.576
 1705TIP3    H126750   6.839   2.931  16.550
 1705TIP3    H226751   6.732   2.854  16.626
 1706TIP3   OH226752   6.282   2.416  16.334
 1706TIP3    H126753   6.293   2.345  16.269
 1706TIP3    H226754   6.277   2.497  16.279
 1707TIP3   OH226755   6.322   2.253  16.091
 1707TIP3    H126756   6.372   2.300  16.021
 1707TIP3    H226757   6.232   2.246  16.051
 1708TIP3   OH226758   6.475   2.803  16.115
 1708TIP3    H126759   6.551   2.786  16.058
 1708TIP3    H226760   6.440   2.887  16.082
 1709TIP3   OH226761   6.916   2.577  16.614
 1709TIP3    H126762   6.938   2.484  16.601
 1709TIP3    H226763   7.003   2.619  16.611
 1710TIP3   OH226764   7.044   2.859  16.429
 1710TIP3    H126765   7.023   2.931  16.367
 1710TIP3    H226766   7.140   2.854  16.411
 1711TIP3   OH226767   6.130   2.539  16.531
 1711TIP3    H126768   6.051   2.484  16.511
 1711TIP3    H226769   6.192   2.504  16.464
 1712TIP3   OH226770   6.400   1.997  16.131
 1712TIP3    H126771   6.383   2.093  16.121
 1712TIP3    H226772   6.326   1.960  16.080
 1713TIP3   OH226773   6.528   2.430  16.495
 1713TIP3    H126774   6.495   2.408  16.584
 1713TIP3    H226775   6.451   2.411  16.439
 1714TIP3   OH226776   6.798   2.345  16.402
 1714TIP3    H126777   6.701   2.349  16.416
 1714TIP3    H226778   6.828   2.282  16.469
 1715TIP3   OH226779   6.963   2.206  16.595
 1715TIP3    H126780   6.951   2.109  16.596
 1715TIP3    H226781   6.933   2.237  16.684
 1716TIP3   OH226782   5.935   2.335  16.503
 1716TIP3    H126783   5.960   2.260  16.446
 1716TIP3    H226784   5.927   2.291  16.591
 1717TIP3   OH226785   6.422   1.936  16.400
 1717TIP3    H126786   6.490   1.866  16.398
 1717TIP3    H226787   6.411   1.951  16.305
 1718TIP3   OH226788   6.456   2.096  16.611
 1718TIP3    H126789   6.440   2.046  16.527
 1718TIP3    H226790   6.399   2.175  16.600
 1719TIP3   OH226791   5.638   3.784  15.375
 1719TIP3    H126792   5.565   3.737  15.328
 1719TIP3    H226793   5.665   3.720  15.443
 1720TIP3   OH226794   5.722   3.597  15.559
 1720TIP3    H126795   5.684   3.511  15.582
 1720TIP3    H226796   5.743   3.632  15.648
 1721TIP3   OH226797   7.256   3.224  16.600
 1721TIP3    H126798   7.180   3.206  16.659
 1721TIP3    H226799   7.310   3.284  16.655
 1722TIP3   OH226800   7.273   3.402  16.077
 1722TIP3    H126801   7.207   3.447  16.132
 1722TIP3    H226802   7.220   3.369  16.002
 1723TIP3   OH226803   7.190   2.704  15.408
 1723TIP3    H126804   7.204   2.608  15.409
 1723TIP3    H226805   7.188   2.724  15.503
 1724TIP3   OH226806   5.726   2.906  15.810
 1724TIP3    H126807   5.744   2.898  15.714
 1724TIP3    H226808   5.816   2.888  15.845
 1725TIP3   OH226809  -0.041   2.897  16.399
 1725TIP3    H126810   0.018   2.820  16.401
 1725TIP3    H226811   0.015   2.970  16.369
 1726TIP3   OH226812   7.230   2.310  14.756
 1726TIP3    H126813   7.294   2.262  14.810
 1726TIP3    H226814   7.152   2.254  14.766
 1727TIP3   OH226815   7.190   2.454  15.242
 1727TIP3    H126816   7.218   2.366  15.273
 1727TIP3    H226817   7.269   2.489  15.203
 1728TIP3   OH226818   7.216   2.459  15.789
 1728TIP3    H126819   7.310   2.471  15.771
 1728TIP3    H226820   7.217   2.509  15.872
 1729TIP3   OH226821   7.261   2.584  16.086
 1729TIP3    H126822   7.171   2.614  16.106
 1729TIP3    H226823   7.302   2.661  16.042
 1730TIP3   OH226824   5.689   2.435  16.424
 1730TIP3    H126825   5.782   2.415  16.445
 1730TIP3    H226826   5.643   2.353  16.453
 1731TIP3   OH226827   7.180   2.164  15.306
 1731TIP3    H126828   7.267   2.137  15.340
 1731TIP3    H226829   7.174   2.108  15.226
 1732TIP3   OH226830   5.808   2.266  15.710
 1732TIP3    H126831   5.854   2.183  15.737
 1732TIP3    H226832   5.863   2.335  15.750
 1733TIP3   OH226833   5.636   2.566  15.814
 1733TIP3    H126834   5.693   2.541  15.738
 1733TIP3    H226835   5.683   2.646  15.841
 1734TIP3   OH226836   7.133   3.676  15.422
 1734TIP3    H126837   7.198   3.640  15.361
 1734TIP3    H226838   7.188   3.732  15.481
 1735TIP3   OH226839   5.668   2.056  16.051
 1735TIP3    H126840   5.601   2.037  16.119
 1735TIP3    H226841   5.622   2.124  15.997
 1736TIP3   OH226842   5.891   3.378  16.468
 1736TIP3    H126843   5.806   3.398  16.425
 1736TIP3    H226844   5.865   3.371  16.561
 1737TIP3   OH226845   6.181   3.477  16.097
 1737TIP3    H126846   6.148   3.563  16.068
 1737TIP3    H226847   6.272   3.483  16.063
 1738TIP3   OH226848   6.616   3.620  16.381
 1738TIP3    H126849   6.622   3.586  16.475
 1738TIP3    H226850   6.709   3.648  16.370
 1739TIP3   OH226851   6.842   3.747  16.314
 1739TIP3    H126852   6.919   3.691  16.293
 1739TIP3    H226853   6.877   3.790  16.397
 1740TIP3   OH226854   5.924   3.801  16.093
 1740TIP3    H126855   5.851   3.852  16.055
 1740TIP3    H226856   5.893   3.782  16.184
 1741TIP3   OH226857   6.172   3.760  16.001
 1741TIP3    H126858   6.082   3.773  16.040
 1741TIP3    H226859   6.164   3.818  15.924
 1742TIP3   OH226860   6.646   3.754  15.898
 1742TIP3    H126861   6.590   3.803  15.833
 1742TIP3    H226862   6.679   3.830  15.947
 1743TIP3   OH226863   6.861   3.636  16.031
 1743TIP3    H126864   6.792   3.654  15.967
 1743TIP3    H226865   6.921   3.712  16.013
 1744TIP3   OH226866   7.121   3.793  16.043
 1744TIP3    H126867   7.122   3.888  16.021
 1744TIP3    H226868   7.155   3.753  15.960
 1745TIP3   OH226869   5.871   3.666  15.788
 1745TIP3    H126870   5.862   3.620  15.874
 1745TIP3    H226871   5.952   3.628  15.750
 1746TIP3   OH226872   6.078   3.537  15.653
 1746TIP3    H126873   6.062   3.444  15.677
 1746TIP3    H226874   6.163   3.553  15.699
 1747TIP3   OH226875   6.339   3.586  15.742
 1747TIP3    H126876   6.352   3.494  15.713
 1747TIP3    H226877   6.338   3.575  15.838
 1748TIP3   OH226878   6.684   2.150  15.654
 1748TIP3    H126879   6.616   2.087  15.681
 1748TIP3    H226880   6.739   2.097  15.596
 1749TIP3   OH226881   7.199   1.954  15.664
 1749TIP3    H126882   7.253   2.019  15.617
 1749TIP3    H226883   7.109   1.988  15.642
 1750TIP3   OH226884   5.918   2.015  15.441
 1750TIP3    H126885   5.839   1.990  15.389
 1750TIP3    H226886   5.966   1.929  15.434
 1751TIP3   OH226887   6.366   2.002  15.418
 1751TIP3    H126888   6.454   2.043  15.408
 1751TIP3    H226889   6.366   1.984  15.512
 1752TIP3   OH226890   6.944   2.004  15.578
 1752TIP3    H126891   6.935   2.019  15.483
 1752TIP3    H226892   6.900   1.917  15.592
 1753TIP3   OH226893   7.057   2.004  15.140
 1753TIP3    H126894   6.986   2.071  15.136
 1753TIP3    H226895   7.011   1.921  15.170
 1754TIP3   OH226896   6.678   3.711  14.950
 1754TIP3    H126897   6.768   3.742  14.928
 1754TIP3    H226898   6.653   3.669  14.867
 1755TIP3   OH226899   5.908   2.067  16.385
 1755TIP3    H126900   5.869   1.987  16.426
 1755TIP3    H226901   5.999   2.062  16.423
 1756TIP3   OH226902   6.108   2.007  16.551
 1756TIP3    H126903   6.196   1.972  16.526
 1756TIP3    H226904   6.071   1.926  16.592
 1757TIP3   OH226905   6.951   1.936  16.564
 1757TIP3    H126906   6.958   1.887  16.648
 1757TIP3    H226907   7.042   1.931  16.527
 1758TIP3   OH226908   7.262   3.536  16.439
 1758TIP3    H126909   7.192   3.522  16.373
 1758TIP3    H226910   7.253   3.633  16.448
 1759TIP3   OH226911   1.174   4.813  15.427
 1759TIP3    H126912   1.173   4.911  15.424
 1759TIP3    H226913   1.099   4.791  15.372
 1760TIP3   OH226914   1.060   4.736  15.774
 1760TIP3    H126915   1.055   4.675  15.849
 1760TIP3    H226916   1.020   4.688  15.700
 1761TIP3   OH226917   0.297   4.705  15.928
 1761TIP3    H126918   0.302   4.637  15.999
 1761TIP3    H226919   0.370   4.763  15.953
 1762TIP3   OH226920   1.426   5.033  15.604
 1762TIP3    H126921   1.386   4.961  15.653
 1762TIP3    H226922   1.429   5.104  15.672
 1763TIP3   OH226923   0.381   5.151  15.782
 1763TIP3    H126924   0.351   5.064  15.750
 1763TIP3    H226925   0.477   5.133  15.785
 1764TIP3   OH226926   0.072   4.510  15.299
 1764TIP3    H126927   0.020   4.587  15.334
 1764TIP3    H226928  -0.002   4.453  15.286
 1765TIP3   OH226929   0.119   4.723  15.538
 1765TIP3    H126930   0.147   4.647  15.592
 1765TIP3    H226931   0.193   4.738  15.479
 1766TIP3   OH226932   1.139   5.549  15.628
 1766TIP3    H126933   1.203   5.481  15.599
 1766TIP3    H226934   1.117   5.515  15.715
 1767TIP3   OH226935   0.895   4.978  15.824
 1767TIP3    H126936   0.929   4.916  15.757
 1767TIP3    H226937   0.976   4.994  15.875
 1768TIP3   OH226938   1.755   4.145  15.896
 1768TIP3    H126939   1.773   4.203  15.972
 1768TIP3    H226940   1.812   4.185  15.829
 1769TIP3   OH226941   1.226   4.447  15.867
 1769TIP3    H126942   1.255   4.357  15.885
 1769TIP3    H226943   1.218   4.462  15.771
 1770TIP3   OH226944   0.525   4.233  15.575
 1770TIP3    H126945   0.535   4.317  15.527
 1770TIP3    H226946   0.484   4.177  15.506
 1771TIP3   OH226947   1.295   4.244  15.418
 1771TIP3    H126948   1.363   4.208  15.480
 1771TIP3    H226949   1.349   4.299  15.361
 1772TIP3   OH226950   0.189   4.474  15.642
 1772TIP3    H126951   0.255   4.423  15.694
 1772TIP3    H226952   0.203   4.438  15.553
 1773TIP3   OH226953   0.705   4.631  15.580
 1773TIP3    H126954   0.768   4.572  15.623
 1773TIP3    H226955   0.650   4.565  15.531
 1774TIP3   OH226956   1.799   4.285  16.124
 1774TIP3    H126957   1.738   4.361  16.111
 1774TIP3    H226958   1.802   4.277  16.220
 1775TIP3   OH226959   0.415   4.124  15.979
 1775TIP3    H126960   0.387   4.181  15.905
 1775TIP3    H226961   0.346   4.146  16.047
 1776TIP3   OH226962   1.142   5.072  15.338
 1776TIP3    H126963   1.119   5.048  15.249
 1776TIP3    H226964   1.113   5.167  15.341
 1777TIP3   OH226965   0.667   4.888  16.004
 1777TIP3    H126966   0.595   4.951  16.026
 1777TIP3    H226967   0.737   4.949  15.974
 1778TIP3   OH226968   1.469   4.182  15.620
 1778TIP3    H126969   1.461   4.097  15.665
 1778TIP3    H226970   1.549   4.218  15.665
 1779TIP3   OH226971   0.372   4.306  15.783
 1779TIP3    H126972   0.431   4.377  15.816
 1779TIP3    H226973   0.425   4.269  15.708
 1780TIP3   OH226974   0.509   5.088  16.084
 1780TIP3    H126975   0.504   5.180  16.052
 1780TIP3    H226976   0.421   5.080  16.128
 1781TIP3   OH226977   0.111   5.057  15.166
 1781TIP3    H126978   0.091   5.082  15.074
 1781TIP3    H226979   0.126   5.139  15.215
 1782TIP3   OH226980   1.479   5.217  15.841
 1782TIP3    H126981   1.382   5.228  15.853
 1782TIP3    H226982   1.506   5.308  15.821
 1783TIP3   OH226983   1.510   4.044  15.976
 1783TIP3    H126984   1.440   4.110  15.971
 1783TIP3    H226985   1.585   4.086  15.928
 1784TIP3   OH226986   0.809   3.860  15.727
 1784TIP3    H126987   0.796   3.763  15.718
 1784TIP3    H226988   0.719   3.887  15.757
 1785TIP3   OH226989   1.307   5.396  15.503
 1785TIP3    H126990   1.349   5.324  15.451
 1785TIP3    H226991   1.348   5.474  15.460
 1786TIP3   OH226992   1.429   5.189  15.352
 1786TIP3    H126993   1.399   5.119  15.291
 1786TIP3    H226994   1.430   5.139  15.436
 1787TIP3   OH226995   1.594   5.047  16.202
 1787TIP3    H126996   1.601   4.982  16.129
 1787TIP3    H226997   1.608   5.131  16.156
 1788TIP3   OH226998   1.777   4.679  16.006
 1788TIP3    H126999   1.710   4.750  16.008
 1788TIP3    H227000   1.827   4.702  15.925
 1789TIP3   OH227001   1.381   4.756  15.269
 1789TIP3    H127002   1.311   4.783  15.332
 1789TIP3    H227003   1.432   4.694  15.324
 1790TIP3   OH227004   1.374   4.573  16.180
 1790TIP3    H127005   1.376   4.654  16.233
 1790TIP3    H227006   1.313   4.605  16.112
 1791TIP3   OH227007   0.548   4.824  15.461
 1791TIP3    H127008   0.510   4.783  15.380
 1791TIP3    H227009   0.606   4.754  15.497
 1792TIP3   OH227010   0.675   5.161  15.730
 1792TIP3    H127011   0.675   5.110  15.649
 1792TIP3    H227012   0.754   5.126  15.775
 1793TIP3   OH227013   0.578   4.698  15.827
 1793TIP3    H127014   0.633   4.708  15.747
 1793TIP3    H227015   0.615   4.765  15.889
 1794TIP3   OH227016   1.219   5.256  15.898
 1794TIP3    H127017   1.190   5.319  15.965
 1794TIP3    H227018   1.193   5.170  15.940
 1795TIP3   OH227019   0.672   5.141  16.297
 1795TIP3    H127020   0.630   5.215  16.346
 1795TIP3    H227021   0.605   5.121  16.227
 1796TIP3   OH227022   0.371   4.756  16.220
 1796TIP3    H127023   0.372   4.829  16.284
 1796TIP3    H227024   0.278   4.764  16.190
 1797TIP3   OH227025   1.041   5.350  15.380
 1797TIP3    H127026   1.084   5.379  15.461
 1797TIP3    H227027   0.986   5.426  15.359
 1798TIP3   OH227028   0.497   5.343  16.371
 1798TIP3    H127029   0.488   5.335  16.275
 1798TIP3    H227030   0.404   5.332  16.400
 1799TIP3   OH227031   1.645   3.851  15.038
 1799TIP3    H127032   1.546   3.854  15.047
 1799TIP3    H227033   1.661   3.924  14.979
 1800TIP3   OH227034   0.447   4.723  15.210
 1800TIP3    H127035   0.413   4.809  15.181
 1800TIP3    H227036   0.372   4.663  15.209
 1801TIP3   OH227037   0.093   4.959  16.090
 1801TIP3    H127038   0.021   4.964  16.025
 1801TIP3    H227039   0.066   4.875  16.131
 1802TIP3   OH227040   0.043   5.258  15.771
 1802TIP3    H127041   0.131   5.225  15.792
 1802TIP3    H227042   0.024   5.316  15.845
 1803TIP3   OH227043   1.855   5.307  16.364
 1803TIP3    H127044   1.828   5.215  16.354
 1803TIP3    H227045   1.768   5.340  16.398
 1804TIP3   OH227046   0.946   5.267  16.246
 1804TIP3    H127047   0.951   5.350  16.298
 1804TIP3    H227048   0.858   5.232  16.270
 1805TIP3   OH227049   0.988   5.640  15.221
 1805TIP3    H127050   0.978   5.635  15.124
 1805TIP3    H227051   0.989   5.736  15.238
 1806TIP3   OH227052   0.353   5.530  15.406
 1806TIP3    H127053   0.368   5.486  15.492
 1806TIP3    H227054   0.270   5.487  15.381
 1807TIP3   OH227055   1.263   5.558  15.203
 1807TIP3    H127056   1.167   5.562  15.220
 1807TIP3    H227057   1.290   5.481  15.254
 1808TIP3   OH227058   1.564   4.459  16.404
 1808TIP3    H127059   1.516   4.504  16.332
 1808TIP3    H227060   1.563   4.367  16.375
 1809TIP3   OH227061   0.280   5.106  16.209
 1809TIP3    H127062   0.296   5.065  16.296
 1809TIP3    H227063   0.195   5.063  16.181
 1810TIP3   OH227064   0.548   3.950  15.800
 1810TIP3    H127065   0.458   3.936  15.764
 1810TIP3    H227066   0.533   4.031  15.850
 1811TIP3   OH227067   1.011   3.917  16.136
 1811TIP3    H127068   1.051   3.873  16.214
 1811TIP3    H227069   0.914   3.903  16.152
 1812TIP3   OH227070   1.335   4.298  16.221
 1812TIP3    H127071   1.286   4.278  16.305
 1812TIP3    H227072   1.324   4.394  16.208
 1813TIP3   OH227073   0.979   4.173  14.877
 1813TIP3    H127074   0.944   4.165  14.967
 1813TIP3    H227075   0.947   4.089  14.842
 1814TIP3   OH227076   0.558   4.445  15.929
 1814TIP3    H127077   0.482   4.443  15.989
 1814TIP3    H227078   0.551   4.536  15.891
 1815TIP3   OH227079   0.551   4.457  15.414
 1815TIP3    H127080   0.458   4.430  15.399
 1815TIP3    H227081   0.591   4.427  15.330
 1816TIP3   OH227082   1.106   4.507  15.289
 1816TIP3    H127083   1.063   4.587  15.257
 1816TIP3    H227084   1.175   4.490  15.222
 1817TIP3   OH227085   1.009   4.529  16.435
 1817TIP3    H127086   0.962   4.448  16.465
 1817TIP3    H227087   1.094   4.518  16.480
 1818TIP3   OH227088   1.202   4.449  15.578
 1818TIP3    H127089   1.182   4.513  15.506
 1818TIP3    H227090   1.221   4.371  15.521
 1819TIP3   OH227091   0.322   4.467  16.095
 1819TIP3    H127092   0.321   4.512  16.181
 1819TIP3    H227093   0.271   4.386  16.113
 1820TIP3   OH227094   0.013   4.203  15.479
 1820TIP3    H127095   0.055   4.172  15.562
 1820TIP3    H227096   0.037   4.136  15.414
 1821TIP3   OH227097   0.113   4.263  15.027
 1821TIP3    H127098   0.161   4.319  14.966
 1821TIP3    H227099   0.038   4.319  15.047
 1822TIP3   OH227100   1.122   4.618  16.031
 1822TIP3    H127101   1.168   4.552  15.975
 1822TIP3    H227102   1.081   4.563  16.100
 1823TIP3   OH227103   0.810   4.215  15.516
 1823TIP3    H127104   0.715   4.213  15.542
 1823TIP3    H227105   0.853   4.192  15.599
 1824TIP3   OH227106   0.297   4.369  15.395
 1824TIP3    H127107   0.205   4.380  15.363
 1824TIP3    H227108   0.318   4.279  15.363
 1825TIP3   OH227109   0.650   4.380  15.170
 1825TIP3    H127110   0.747   4.376  15.180
 1825TIP3    H227111   0.635   4.435  15.093
 1826TIP3   OH227112   1.250   4.126  15.842
 1826TIP3    H127113   1.185   4.126  15.916
 1826TIP3    H227114   1.207   4.083  15.766
 1827TIP3   OH227115   1.568   5.700  16.474
 1827TIP3    H127116   1.595   5.736  16.388
 1827TIP3    H227117   1.640   5.731  16.530
 1828TIP3   OH227118   0.339   4.946  16.426
 1828TIP3    H127119   0.407   4.973  16.490
 1828TIP3    H227120   0.260   4.956  16.484
 1829TIP3   OH227121   0.941   4.488  15.706
 1829TIP3    H127122   0.989   4.434  15.644
 1829TIP3    H227123   0.914   4.434  15.781
 1830TIP3   OH227124   0.438   4.106  15.344
 1830TIP3    H127125   0.406   4.014  15.345
 1830TIP3    H227126   0.516   4.094  15.289
 1831TIP3   OH227127   0.805   4.323  15.941
 1831TIP3    H127128   0.719   4.370  15.951
 1831TIP3    H227129   0.854   4.356  16.018
 1832TIP3   OH227130   1.578   4.863  15.994
 1832TIP3    H127131   1.634   4.911  15.931
 1832TIP3    H227132   1.492   4.868  15.948
 1833TIP3   OH227133   1.008   4.969  16.238
 1833TIP3    H127134   0.973   4.927  16.317
 1833TIP3    H227135   0.983   5.062  16.249
 1834TIP3   OH227136   1.319   4.415  15.104
 1834TIP3    H127137   1.410   4.410  15.133
 1834TIP3    H227138   1.321   4.491  15.044
 1835TIP3   OH227139   0.373   4.884  15.694
 1835TIP3    H127140   0.438   4.874  15.622
 1835TIP3    H227141   0.377   4.798  15.740
 1836TIP3   OH227142   0.094   4.699  16.194
 1836TIP3    H127143   0.102   4.678  16.288
 1836TIP3    H227144   0.008   4.660  16.172
 1837TIP3   OH227145   0.766   4.659  16.444
 1837TIP3    H127146   0.741   4.655  16.349
 1837TIP3    H227147   0.864   4.651  16.437
 1838TIP3   OH227148   1.239   5.212  16.234
 1838TIP3    H127149   1.147   5.230  16.210
 1838TIP3    H227150   1.235   5.241  16.327
 1839TIP3   OH227151   1.812   5.023  16.351
 1839TIP3    H127152   1.717   5.037  16.320
 1839TIP3    H227153   1.855   5.007  16.264
 1840TIP3   OH227154   1.635   5.312  15.113
 1840TIP3    H127155   1.599   5.230  15.147
 1840TIP3    H227156   1.658   5.292  15.022
 1841TIP3   OH227157   1.356   4.793  15.824
 1841TIP3    H127158   1.262   4.775  15.810
 1841TIP3    H227159   1.400   4.719  15.778
 1842TIP3   OH227160   0.606   5.227  15.433
 1842TIP3    H127161   0.657   5.307  15.412
 1842TIP3    H227162   0.518   5.252  15.400
 1843TIP3   OH227163   0.750   4.994  15.386
 1843TIP3    H127164   0.718   5.086  15.395
 1843TIP3    H227165   0.677   4.945  15.429
 1844TIP3   OH227166   0.795   5.412  16.026
 1844TIP3    H127167   0.840   5.493  15.997
 1844TIP3    H227168   0.856   5.378  16.093
 1845TIP3   OH227169   0.616   5.493  15.341
 1845TIP3    H127170   0.520   5.510  15.351
 1845TIP3    H227171   0.654   5.578  15.371
 1846TIP3   OH227172   1.146   5.015  15.988
 1846TIP3    H127173   1.114   4.992  16.078
 1846TIP3    H227174   1.210   4.943  15.970
 1847TIP3   OH227175   1.429   5.470  16.236
 1847TIP3    H127176   1.359   5.422  16.188
 1847TIP3    H227177   1.446   5.541  16.170
 1848TIP3   OH227178   0.235   4.195  16.171
 1848TIP3    H127179   0.146   4.232  16.177
 1848TIP3    H227180   0.224   4.111  16.220
 1849TIP3   OH227181   1.459   4.985  15.128
 1849TIP3    H127182   1.436   4.901  15.172
 1849TIP3    H227183   1.555   4.987  15.138
 1850TIP3   OH227184   0.200   5.378  16.014
 1850TIP3    H127185   0.222   5.283  16.017
 1850TIP3    H227186   0.219   5.402  16.105
 1851TIP3   OH227187   0.788   5.231  14.741
 1851TIP3    H127188   0.807   5.152  14.688
 1851TIP3    H227189   0.751   5.192  14.823
 1852TIP3   OH227190   0.672   5.176  14.990
 1852TIP3    H127191   0.692   5.133  15.073
 1852TIP3    H227192   0.674   5.272  15.016
 1853TIP3   OH227193   1.111   4.172  16.065
 1853TIP3    H127194   1.178   4.181  16.135
 1853TIP3    H227195   1.068   4.088  16.093
 1854TIP3   OH227196   1.185   4.131  15.176
 1854TIP3    H127197   1.201   4.184  15.098
 1854TIP3    H227198   1.239   4.175  15.242
 1855TIP3   OH227199   0.950   5.347  15.061
 1855TIP3    H127200   0.869   5.401  15.069
 1855TIP3    H227201   1.003   5.399  15.001
 1856TIP3   OH227202   0.901   4.312  15.259
 1856TIP3    H127203   0.983   4.363  15.266
 1856TIP3    H227204   0.876   4.291  15.351
 1857TIP3   OH227205   0.960   4.406  16.183
 1857TIP3    H127206   0.971   4.465  16.260
 1857TIP3    H227207   1.028   4.338  16.193
 1858TIP3   OH227208   0.989   4.012  15.355
 1858TIP3    H127209   0.955   4.078  15.417
 1858TIP3    H227210   1.056   4.066  15.306
 1859TIP3   OH227211   0.691   5.449  15.067
 1859TIP3    H127212   0.701   5.530  15.012
 1859TIP3    H227213   0.661   5.486  15.152
 1860TIP3   OH227214   0.557   4.119  15.033
 1860TIP3    H127215   0.551   4.212  15.056
 1860TIP3    H227216   0.650   4.098  15.048
 1861TIP3   OH227217   1.577   4.196  16.267
 1861TIP3    H127218   1.485   4.226  16.253
 1861TIP3    H227219   1.608   4.193  16.174
 1862TIP3   OH227220   1.439   4.573  15.670
 1862TIP3    H127221   1.359   4.529  15.638
 1862TIP3    H227222   1.491   4.505  15.719
 1863TIP3   OH227223   1.546   5.500  15.834
 1863TIP3    H127224   1.537   5.568  15.764
 1863TIP3    H227225   1.642   5.505  15.851
 1864TIP3   OH227226   0.292   3.913  15.713
 1864TIP3    H127227   0.276   3.912  15.616
 1864TIP3    H227228   0.253   3.826  15.740
 1865TIP3   OH227229   0.192   5.304  15.327
 1865TIP3    H127230   0.106   5.347  15.323
 1865TIP3    H227231   0.240   5.353  15.260
 1866TIP3   OH227232   0.129   5.569  16.454
 1866TIP3    H127233   0.178   5.546  16.535
 1866TIP3    H227234   0.074   5.489  16.443
 1867TIP3   OH227235   0.580   5.458  16.618
 1867TIP3    H127236   0.657   5.410  16.650
 1867TIP3    H227237   0.576   5.430  16.524
 1868TIP3   OH227238   0.996   5.408  14.768
 1868TIP3    H127239   0.919   5.349  14.780
 1868TIP3    H227240   1.063   5.350  14.732
 1869TIP3   OH227241   1.227   5.300  16.492
 1869TIP3    H127242   1.197   5.211  16.519
 1869TIP3    H227243   1.306   5.312  16.549
 1870TIP3   OH227244   0.117   4.945  16.555
 1870TIP3    H127245   0.120   4.852  16.527
 1870TIP3    H227246   0.034   4.975  16.513
 1871TIP3   OH227247   0.773   4.942  16.492
 1871TIP3    H127248   0.740   4.978  16.408
 1871TIP3    H227249   0.782   4.847  16.480
 1872TIP3   OH227250   1.343   4.931  16.235
 1872TIP3    H127251   1.422   4.989  16.229
 1872TIP3    H227252   1.273   4.998  16.239
 1873TIP3   OH227253   0.188   4.667  16.494
 1873TIP3    H127254   0.235   4.582  16.487
 1873TIP3    H227255   0.174   4.672  16.591
 1874TIP3   OH227256   0.586   4.565  16.237
 1874TIP3    H127257   0.519   4.635  16.253
 1874TIP3    H227258   0.622   4.597  16.152
 1875TIP3   OH227259   1.090   4.819  16.572
 1875TIP3    H127260   1.185   4.816  16.551
 1875TIP3    H227261   1.077   4.741  16.627
 1876TIP3   OH227262   0.627   4.303  16.330
 1876TIP3    H127263   0.635   4.227  16.267
 1876TIP3    H227264   0.616   4.378  16.268
 1877TIP3   OH227265   0.664   4.143  16.094
 1877TIP3    H127266   0.715   4.184  16.020
 1877TIP3    H227267   0.576   4.130  16.051
 1878TIP3   OH227268   0.818   4.687  16.117
 1878TIP3    H127269   0.894   4.673  16.059
 1878TIP3    H227270   0.781   4.771  16.082
 1879TIP3   OH227271   1.258   4.462  16.610
 1879TIP3    H127272   1.280   4.368  16.604
 1879TIP3    H227273   1.345   4.505  16.613
 1880TIP3   OH227274   1.391   4.743  16.429
 1880TIP3    H127275   1.366   4.815  16.367
 1880TIP3    H227276   1.487   4.739  16.409
 1881TIP3   OH227277   0.445   4.427  16.527
 1881TIP3    H127278   0.366   4.366  16.520
 1881TIP3    H227279   0.493   4.387  16.454
 1882TIP3   OH227280   0.743   3.882  16.132
 1882TIP3    H127281   0.726   3.978  16.121
 1882TIP3    H227282   0.669   3.845  16.080
 1883TIP3   OH227283   0.860   4.327  16.498
 1883TIP3    H127284   0.846   4.283  16.585
 1883TIP3    H227285   0.801   4.280  16.435
 1884TIP3   OH227286   1.143   4.231  16.402
 1884TIP3    H127287   1.047   4.233  16.414
 1884TIP3    H227288   1.172   4.166  16.470
 1885TIP3   OH227289   1.292   4.092  16.589
 1885TIP3    H127290   1.299   3.995  16.597
 1885TIP3    H227291   1.277   4.121  16.683
 1886TIP3   OH227292   0.289   4.217  16.504
 1886TIP3    H127293   0.301   4.142  16.444
 1886TIP3    H227294   0.269   4.173  16.590
 1887TIP3   OH227295   0.765   3.822  16.401
 1887TIP3    H127296   0.832   3.750  16.400
 1887TIP3    H227297   0.755   3.836  16.305
 1888TIP3   OH227298   0.801   3.984  16.609
 1888TIP3    H127299   0.785   3.928  16.528
 1888TIP3    H227300   0.739   4.057  16.600
 1889TIP3   OH227301   0.748   5.680  14.932
 1889TIP3    H127302   0.845   5.683  14.932
 1889TIP3    H227303   0.728   5.737  14.855
 1890TIP3   OH227304   0.112   5.128  14.884
 1890TIP3    H127305   0.206   5.147  14.895
 1890TIP3    H227306   0.107   5.069  14.807
 1891TIP3   OH227307   7.350   5.682  15.366
 1891TIP3    H127308   7.266   5.656  15.325
 1891TIP3    H227309   7.362   5.614  15.436
 1892TIP3   OH227310   0.058   5.488  15.556
 1892TIP3    H127311   0.030   5.397  15.579
 1892TIP3    H227312   0.088   5.518  15.643
 1893TIP3   OH227313   1.818   5.564  15.853
 1893TIP3    H127314   1.821   5.580  15.949
 1893TIP3    H227315   1.888   5.622  15.823
 1894TIP3   OH227316   1.776   5.523  16.149
 1894TIP3    H127317   1.727   5.448  16.109
 1894TIP3    H227318   1.823   5.479  16.220
 1895TIP3   OH227319   1.623   5.091  16.619
 1895TIP3    H127320   1.530   5.093  16.651
 1895TIP3    H227321   1.654   5.176  16.655
 1896TIP3   OH227322   1.792   4.730  15.344
 1896TIP3    H127323   1.712   4.690  15.384
 1896TIP3    H227324   1.846   4.753  15.422
 1897TIP3   OH227325   1.762   5.005  15.845
 1897TIP3    H127326   1.843   4.967  15.807
 1897TIP3    H227327   1.777   5.101  15.828
 1898TIP3   OH227328   1.620   5.296  16.073
 1898TIP3    H127329   1.550   5.331  16.131
 1898TIP3    H227330   1.565   5.256  16.002
 1899TIP3   OH227331   1.567   4.581  15.401
 1899TIP3    H127332   1.555   4.487  15.405
 1899TIP3    H227333   1.540   4.609  15.491
 1900TIP3   OH227334   0.067   4.790  15.808
 1900TIP3    H127335   0.086   4.786  15.711
 1900TIP3    H227336   0.156   4.777  15.846
 1901TIP3   OH227337   1.655   4.781  16.376
 1901TIP3    H127338   1.716   4.704  16.385
 1901TIP3    H227339   1.715   4.857  16.371
 1902TIP3   OH227340   1.805   4.569  16.442
 1902TIP3    H127341   1.717   4.529  16.422
 1902TIP3    H227342   1.862   4.491  16.431
 1903TIP3   OH227343   1.598   4.396  15.796
 1903TIP3    H127344   1.695   4.418  15.792
 1903TIP3    H227345   1.583   4.411  15.891
 1904TIP3   OH227346   1.605   4.467  16.069
 1904TIP3    H127347   1.519   4.498  16.106
 1904TIP3    H227348   1.650   4.553  16.048
 1905TIP3   OH227349   0.051   4.315  16.426
 1905TIP3    H127350   0.141   4.290  16.452
 1905TIP3    H227351  -0.006   4.243  16.460
 1906TIP3   OH227352   1.838   3.875  16.605
 1906TIP3    H127353   1.870   3.807  16.544
 1906TIP3    H227354   1.844   3.956  16.552
 1907TIP3   OH227355   0.145   4.146  15.714
 1907TIP3    H127356   0.199   4.067  15.736
 1907TIP3    H227357   0.202   4.217  15.750
 1908TIP3   OH227358   0.052   4.502  15.856
 1908TIP3    H127359   0.060   4.468  15.765
 1908TIP3    H227360   0.030   4.593  15.831
 1909TIP3   OH227361   1.785   4.085  16.442
 1909TIP3    H127362   1.691   4.112  16.439
 1909TIP3    H227363   1.788   4.029  16.362
 1910TIP3   OH227364   7.406   4.095  15.211
 1910TIP3    H127365   7.309   4.089  15.200
 1910TIP3    H227366   7.429   4.138  15.126
 1911TIP3   OH227367   1.491   5.571  15.415
 1911TIP3    H127368   1.559   5.542  15.351
 1911TIP3    H227369   1.542   5.622  15.479
 1912TIP3   OH227370   7.370   3.938  16.063
 1912TIP3    H127371   7.296   3.918  16.121
 1912TIP3    H227372   7.320   3.996  16.002
 1913TIP3   OH227373   0.237   5.267  16.470
 1913TIP3    H127374   0.152   5.283  16.426
 1913TIP3    H227375   0.209   5.253  16.561
 1914TIP3   OH227376   0.526   5.365  16.097
 1914TIP3    H127377   0.488   5.449  16.068
 1914TIP3    H227378   0.618   5.373  16.064
 1915TIP3   OH227379   0.956   5.504  16.385
 1915TIP3    H127380   0.969   5.470  16.477
 1915TIP3    H227381   1.047   5.535  16.363
 1916TIP3   OH227382   1.186   5.632  16.316
 1916TIP3    H127383   1.259   5.574  16.293
 1916TIP3    H227384   1.223   5.676  16.396
 1917TIP3   OH227385   1.688   3.894  16.227
 1917TIP3    H127386   1.605   3.923  16.186
 1917TIP3    H227387   1.704   3.811  16.176
 1918TIP3   OH227388   0.269   5.687  16.098
 1918TIP3    H127389   0.194   5.734  16.056
 1918TIP3    H227390   0.233   5.667  16.185
 1919TIP3   OH227391   0.516   5.648  16.003
 1919TIP3    H127392   0.426   5.660  16.042
 1919TIP3    H227393   0.509   5.702  15.923
 1920TIP3   OH227394   0.985   5.636  15.919
 1920TIP3    H127395   0.939   5.692  15.854
 1920TIP3    H227396   0.998   5.699  15.993
 1921TIP3   OH227397   1.213   5.516  16.022
 1921TIP3    H127398   1.128   5.544  15.984
 1921TIP3    H227399   1.262   5.599  16.012
 1922TIP3   OH227400   1.472   5.673  16.043
 1922TIP3    H127401   1.467   5.769  16.021
 1922TIP3    H227402   1.494   5.636  15.956
 1923TIP3   OH227403   0.212   5.552  15.786
 1923TIP3    H127404   0.207   5.509  15.874
 1923TIP3    H227405   0.293   5.512  15.749
 1924TIP3   OH227406   0.421   5.421  15.652
 1924TIP3    H127407   0.403   5.329  15.678
 1924TIP3    H227408   0.506   5.438  15.699
 1925TIP3   OH227409   0.682   5.472  15.742
 1925TIP3    H127410   0.696   5.379  15.715
 1925TIP3    H227411   0.686   5.465  15.838
 1926TIP3   OH227412   1.032   4.040  15.659
 1926TIP3    H127413   0.961   3.976  15.683
 1926TIP3    H227414   1.081   3.983  15.596
 1927TIP3   OH227415   1.539   3.843  15.664
 1927TIP3    H127416   1.601   3.899  15.612
 1927TIP3    H227417   1.451   3.876  15.638
 1928TIP3   OH227418   1.708   3.967  15.490
 1928TIP3    H127419   1.775   3.908  15.448
 1928TIP3    H227420   1.758   4.050  15.502
 1929TIP3   OH227421   0.262   3.895  15.443
 1929TIP3    H127422   0.185   3.880  15.384
 1929TIP3    H227423   0.313   3.813  15.430
 1930TIP3   OH227424   0.711   3.891  15.418
 1930TIP3    H127425   0.800   3.926  15.411
 1930TIP3    H227426   0.708   3.868  15.510
 1931TIP3   OH227427   1.278   3.897  15.581
 1931TIP3    H127428   1.279   3.901  15.485
 1931TIP3    H227429   1.245   3.804  15.595
 1932TIP3   OH227430   1.409   3.898  15.145
 1932TIP3    H127431   1.331   3.954  15.135
 1932TIP3    H227432   1.368   3.812  15.172
 1933TIP3   OH227433   0.146   5.480  15.105
 1933TIP3    H127434   0.070   5.471  15.045
 1933TIP3    H227435   0.136   5.573  15.127
 1934TIP3   OH227436   0.832   4.094  15.103
 1934TIP3    H127437   0.850   4.035  15.178
 1934TIP3    H227438   0.831   4.180  15.150
 1935TIP3   OH227439   1.019   5.602  14.947
 1935TIP3    H127440   1.110   5.626  14.928
 1935TIP3    H227441   0.998   5.548  14.867
 1936TIP3   OH227442   1.688   5.552  15.220
 1936TIP3    H127443   1.670   5.474  15.163
 1936TIP3    H227444   1.685   5.623  15.152
 1937TIP3   OH227445   0.243   3.955  16.391
 1937TIP3    H127446   0.210   3.870  16.425
 1937TIP3    H227447   0.337   3.948  16.421
 1938TIP3   OH227448   0.454   3.894  16.553
 1938TIP3    H127449   0.540   3.857  16.524
 1938TIP3    H227450   0.412   3.813  16.589
 1939TIP3   OH227451   1.294   3.818  16.564
 1939TIP3    H127452   1.303   3.774  16.651
 1939TIP3    H227453   1.386   3.817  16.532
 1940TIP3   OH227454   1.617   5.423  16.429
 1940TIP3    H127455   1.536   5.410  16.374
 1940TIP3    H227456   1.604   5.518  16.449
 1941TIP3   OH227457   3.058   4.814  15.424
 1941TIP3    H127458   3.056   4.912  15.421
 1941TIP3    H227459   2.985   4.790  15.365
 1942TIP3   OH227460   2.944   4.738  15.776
 1942TIP3    H127461   2.942   4.673  15.848
 1942TIP3    H227462   2.908   4.688  15.700
 1943TIP3   OH227463   2.179   4.706  15.930
 1943TIP3    H127464   2.187   4.637  15.999
 1943TIP3    H227465   2.254   4.763  15.953
 1944TIP3   OH227466   3.312   5.032  15.605
 1944TIP3    H127467   3.270   4.961  15.654
 1944TIP3    H227468   3.315   5.104  15.671
 1945TIP3   OH227469   2.271   5.151  15.780
 1945TIP3    H127470   2.240   5.064  15.748
 1945TIP3    H227471   2.367   5.133  15.785
 1946TIP3   OH227472   1.937   4.506  15.322
 1946TIP3    H127473   1.895   4.596  15.326
 1946TIP3    H227474   1.871   4.454  15.279
 1947TIP3   OH227475   2.007   4.728  15.545
 1947TIP3    H127476   2.035   4.645  15.589
 1947TIP3    H227477   2.075   4.741  15.477
 1948TIP3   OH227478   3.025   5.550  15.627
 1948TIP3    H127479   3.089   5.480  15.598
 1948TIP3    H227480   3.002   5.515  15.714
 1949TIP3   OH227481   2.781   4.978  15.824
 1949TIP3    H127482   2.814   4.916  15.756
 1949TIP3    H227483   2.862   4.994  15.874
 1950TIP3   OH227484   3.640   4.144  15.893
 1950TIP3    H127485   3.658   4.201  15.971
 1950TIP3    H227486   3.699   4.187  15.830
 1951TIP3   OH227487   3.098   4.424  15.855
 1951TIP3    H127488   3.115   4.328  15.855
 1951TIP3    H227489   3.087   4.439  15.759
 1952TIP3   OH227490   2.408   4.233  15.576
 1952TIP3    H127491   2.420   4.317  15.527
 1952TIP3    H227492   2.369   4.177  15.505
 1953TIP3   OH227493   3.185   4.238  15.411
 1953TIP3    H127494   3.249   4.213  15.481
 1953TIP3    H227495   3.239   4.300  15.359
 1954TIP3   OH227496   2.072   4.476  15.649
 1954TIP3    H127497   2.138   4.420  15.695
 1954TIP3    H227498   2.082   4.444  15.558
 1955TIP3   OH227499   2.587   4.631  15.582
 1955TIP3    H127500   2.655   4.573  15.621
 1955TIP3    H227501   2.536   4.565  15.531
 1956TIP3   OH227502   3.684   4.284  16.123
 1956TIP3    H127503   3.625   4.361  16.112
 1956TIP3    H227504   3.688   4.277  16.219
 1957TIP3   OH227505   2.300   4.124  15.980
 1957TIP3    H127506   2.272   4.181  15.905
 1957TIP3    H227507   2.233   4.147  16.048
 1958TIP3   OH227508   3.030   5.073  15.338
 1958TIP3    H127509   3.003   5.046  15.250
 1958TIP3    H227510   2.997   5.165  15.340
 1959TIP3   OH227511   2.552   4.888  16.003
 1959TIP3    H127512   2.482   4.952  16.026
 1959TIP3    H227513   2.622   4.948  15.974
 1960TIP3   OH227514   3.368   4.174  15.612
 1960TIP3    H127515   3.339   4.103  15.670
 1960TIP3    H227516   3.428   4.224  15.670
 1961TIP3   OH227517   2.257   4.309  15.784
 1961TIP3    H127518   2.320   4.378  15.815
 1961TIP3    H227519   2.309   4.269  15.709
 1962TIP3   OH227520   2.395   5.089  16.088
 1962TIP3    H127521   2.392   5.180  16.051
 1962TIP3    H227522   2.306   5.081  16.127
 1963TIP3   OH227523   3.365   5.217  15.841
 1963TIP3    H127524   3.268   5.228  15.853
 1963TIP3    H227525   3.392   5.308  15.820
 1964TIP3   OH227526   3.395   4.043  15.974
 1964TIP3    H127527   3.325   4.109  15.970
 1964TIP3    H227528   3.469   4.089  15.929
 1965TIP3   OH227529   2.693   3.857  15.726
 1965TIP3    H127530   2.679   3.761  15.719
 1965TIP3    H227531   2.606   3.888  15.757
 1966TIP3   OH227532   3.194   5.395  15.504
 1966TIP3    H127533   3.234   5.323  15.450
 1966TIP3    H227534   3.234   5.474  15.462
 1967TIP3   OH227535   3.314   5.189  15.350
 1967TIP3    H127536   3.284   5.118  15.290
 1967TIP3    H227537   3.316   5.140  15.434
 1968TIP3   OH227538   3.473   5.048  16.201
 1968TIP3    H127539   3.488   4.982  16.129
 1968TIP3    H227540   3.495   5.132  16.156
 1969TIP3   OH227541   2.923   4.740  15.177
 1969TIP3    H127542   2.855   4.794  15.136
 1969TIP3    H227543   2.992   4.744  15.107
 1970TIP3   OH227544   2.930   4.578  14.893
 1970TIP3    H127545   3.009   4.591  14.945
 1970TIP3    H227546   2.960   4.525  14.819
 1971TIP3   OH227547   3.663   4.679  16.005
 1971TIP3    H127548   3.597   4.751  16.009
 1971TIP3    H227549   3.712   4.702  15.925
 1972TIP3   OH227550   3.268   4.756  15.269
 1972TIP3    H127551   3.195   4.782  15.330
 1972TIP3    H227552   3.317   4.691  15.322
 1973TIP3   OH227553   3.261   4.574  16.181
 1973TIP3    H127554   3.262   4.656  16.233
 1973TIP3    H227555   3.198   4.603  16.112
 1974TIP3   OH227556   2.428   4.823  15.462
 1974TIP3    H127557   2.396   4.783  15.380
 1974TIP3    H227558   2.491   4.756  15.496
 1975TIP3   OH227559   2.560   5.162  15.732
 1975TIP3    H127560   2.560   5.111  15.649
 1975TIP3    H227561   2.640   5.126  15.775
 1976TIP3   OH227562   2.462   4.698  15.828
 1976TIP3    H127563   2.518   4.707  15.749
 1976TIP3    H227564   2.502   4.765  15.889
 1977TIP3   OH227565   3.105   5.255  15.898
 1977TIP3    H127566   3.075   5.319  15.964
 1977TIP3    H227567   3.079   5.170  15.940
 1978TIP3   OH227568   2.555   5.139  16.299
 1978TIP3    H127569   2.517   5.217  16.344
 1978TIP3    H227570   2.493   5.122  16.225
 1979TIP3   OH227571   3.155   4.675  15.035
 1979TIP3    H127572   3.207   4.697  15.115
 1979TIP3    H227573   3.198   4.729  14.967
 1980TIP3   OH227574   2.252   4.761  16.211
 1980TIP3    H127575   2.258   4.823  16.285
 1980TIP3    H227576   2.157   4.762  16.191
 1981TIP3   OH227577   2.927   5.347  15.385
 1981TIP3    H127578   2.971   5.380  15.464
 1981TIP3    H227579   2.873   5.423  15.359
 1982TIP3   OH227580   2.382   5.337  16.371
 1982TIP3    H127581   2.378   5.337  16.273
 1982TIP3    H227582   2.289   5.342  16.398
 1983TIP3   OH227583   3.526   3.852  15.033
 1983TIP3    H127584   3.430   3.862  15.048
 1983TIP3    H227585   3.549   3.928  14.980
 1984TIP3   OH227586   1.936   4.968  16.115
 1984TIP3    H127587   1.891   4.961  16.027
 1984TIP3    H227588   1.943   4.872  16.133
 1985TIP3   OH227589   1.912   5.242  15.793
 1985TIP3    H127590   2.008   5.231  15.786
 1985TIP3    H227591   1.904   5.324  15.843
 1986TIP3   OH227592   3.734   5.313  16.356
 1986TIP3    H127593   3.723   5.216  16.357
 1986TIP3    H227594   3.649   5.338  16.399
 1987TIP3   OH227595   2.832   5.267  16.246
 1987TIP3    H127596   2.837   5.350  16.298
 1987TIP3    H227597   2.745   5.230  16.271
 1988TIP3   OH227598   2.876   5.641  15.223
 1988TIP3    H127599   2.868   5.638  15.126
 1988TIP3    H227600   2.880   5.736  15.241
 1989TIP3   OH227601   2.238   5.531  15.411
 1989TIP3    H127602   2.253   5.485  15.497
 1989TIP3    H227603   2.156   5.486  15.382
 1990TIP3   OH227604   3.147   5.556  15.199
 1990TIP3    H127605   3.051   5.563  15.219
 1990TIP3    H227606   3.172   5.482  15.257
 1991TIP3   OH227607   3.449   4.459  16.404
 1991TIP3    H127608   3.401   4.504  16.333
 1991TIP3    H227609   3.448   4.367  16.375
 1992TIP3   OH227610   2.158   5.105  16.208
 1992TIP3    H127611   2.197   5.048  16.278
 1992TIP3    H227612   2.080   5.056  16.172
 1993TIP3   OH227613   2.432   3.949  15.800
 1993TIP3    H127614   2.342   3.935  15.765
 1993TIP3    H227615   2.418   4.031  15.850
 1994TIP3   OH227616   2.897   3.914  16.137
 1994TIP3    H127617   2.936   3.872  16.216
 1994TIP3    H227618   2.799   3.902  16.152
 1995TIP3   OH227619   3.225   4.300  16.226
 1995TIP3    H127620   3.169   4.278  16.305
 1995TIP3    H227621   3.207   4.393  16.205
 1996TIP3   OH227622   2.859   4.170  14.875
 1996TIP3    H127623   2.826   4.167  14.967
 1996TIP3    H227624   2.833   4.083  14.843
 1997TIP3   OH227625   2.443   4.445  15.928
 1997TIP3    H127626   2.368   4.444  15.991
 1997TIP3    H227627   2.438   4.536  15.890
 1998TIP3   OH227628   2.436   4.458  15.414
 1998TIP3    H127629   2.343   4.429  15.401
 1998TIP3    H227630   2.476   4.427  15.330
 1999TIP3   OH227631   2.990   4.507  15.289
 1999TIP3    H127632   2.951   4.589  15.253
 1999TIP3    H227633   3.059   4.489  15.223
 2000TIP3   OH227634   2.896   4.528  16.433
 2000TIP3    H127635   2.844   4.450  16.464
 2000TIP3    H227636   2.979   4.517  16.482
 2001TIP3   OH227637   3.095   4.456  15.574
 2001TIP3    H127638   3.066   4.512  15.501
 2001TIP3    H227639   3.103   4.371  15.527
 2002TIP3   OH227640   2.203   4.470  16.095
 2002TIP3    H127641   2.213   4.510  16.182
 2002TIP3    H227642   2.160   4.386  16.116
 2003TIP3   OH227643   1.871   4.183  15.491
 2003TIP3    H127644   1.936   4.176  15.564
 2003TIP3    H227645   1.917   4.141  15.416
 2004TIP3   OH227646   1.991   4.258  15.025
 2004TIP3    H127647   2.047   4.318  14.976
 2004TIP3    H227648   1.929   4.317  15.068
 2005TIP3   OH227649   3.013   4.614  16.030
 2005TIP3    H127650   3.052   4.545  15.972
 2005TIP3    H227651   2.966   4.561  16.097
 2006TIP3   OH227652   2.693   4.213  15.514
 2006TIP3    H127653   2.599   4.212  15.544
 2006TIP3    H227654   2.742   4.195  15.596
 2007TIP3   OH227655   2.178   4.368  15.397
 2007TIP3    H127656   2.087   4.381  15.363
 2007TIP3    H227657   2.204   4.280  15.363
 2008TIP3   OH227658   2.535   4.375  15.165
 2008TIP3    H127659   2.631   4.379  15.183
 2008TIP3    H227660   2.523   4.439  15.094
 2009TIP3   OH227661   3.135   4.134  15.837
 2009TIP3    H127662   3.068   4.140  15.908
 2009TIP3    H227663   3.081   4.111  15.760
 2010TIP3   OH227664   3.454   5.700  16.474
 2010TIP3    H127665   3.481   5.737  16.388
 2010TIP3    H227666   3.527   5.731  16.530
 2011TIP3   OH227667   2.220   4.961  16.430
 2011TIP3    H127668   2.298   4.966  16.490
 2011TIP3    H227669   2.150   4.938  16.495
 2012TIP3   OH227670   2.822   4.488  15.703
 2012TIP3    H127671   2.882   4.435  15.650
 2012TIP3    H227672   2.807   4.433  15.781
 2013TIP3   OH227673   2.322   4.104  15.346
 2013TIP3    H127674   2.292   4.011  15.347
 2013TIP3    H227675   2.402   4.095  15.292
 2014TIP3   OH227676   2.686   4.320  15.945
 2014TIP3    H127677   2.603   4.372  15.953
 2014TIP3    H227678   2.741   4.356  16.017
 2015TIP3   OH227679   3.464   4.863  15.995
 2015TIP3    H127680   3.520   4.912  15.931
 2015TIP3    H227681   3.378   4.867  15.948
 2016TIP3   OH227682   2.894   4.969  16.238
 2016TIP3    H127683   2.859   4.927  16.317
 2016TIP3    H227684   2.868   5.062  16.250
 2017TIP3   OH227685   3.202   4.412  15.099
 2017TIP3    H127686   3.291   4.403  15.136
 2017TIP3    H227687   3.207   4.492  15.044
 2018TIP3   OH227688   2.256   4.882  15.694
 2018TIP3    H127689   2.325   4.874  15.626
 2018TIP3    H227690   2.262   4.797  15.741
 2019TIP3   OH227691   1.953   4.724  16.224
 2019TIP3    H127692   1.971   4.675  16.306
 2019TIP3    H227693   1.894   4.663  16.176
 2020TIP3   OH227694   2.656   4.677  16.438
 2020TIP3    H127695   2.624   4.646  16.352
 2020TIP3    H227696   2.748   4.646  16.438
 2021TIP3   OH227697   3.125   5.212  16.234
 2021TIP3    H127698   3.033   5.230  16.210
 2021TIP3    H227699   3.121   5.241  16.327
 2022TIP3   OH227700   3.687   4.431  15.072
 2022TIP3    H127701   3.632   4.401  14.998
 2022TIP3    H227702   3.699   4.523  15.046
 2023TIP3   OH227703   3.690   5.016  16.352
 2023TIP3    H127704   3.601   5.038  16.316
 2023TIP3    H227705   3.744   5.011  16.271
 2024TIP3   OH227706   3.241   4.794  15.824
 2024TIP3    H127707   3.147   4.774  15.812
 2024TIP3    H227708   3.284   4.719  15.779
 2025TIP3   OH227709   2.489   5.226  15.434
 2025TIP3    H127710   2.543   5.305  15.413
 2025TIP3    H227711   2.403   5.253  15.400
 2026TIP3   OH227712   2.634   4.992  15.390
 2026TIP3    H127713   2.604   5.085  15.392
 2026TIP3    H227714   2.560   4.946  15.431
 2027TIP3   OH227715   2.678   5.413  16.027
 2027TIP3    H127716   2.725   5.493  15.997
 2027TIP3    H227717   2.741   5.378  16.093
 2028TIP3   OH227718   2.502   5.491  15.340
 2028TIP3    H127719   2.406   5.505  15.353
 2028TIP3    H227720   2.539   5.575  15.373
 2029TIP3   OH227721   3.031   5.011  15.987
 2029TIP3    H127722   3.000   4.993  16.078
 2029TIP3    H227723   3.096   4.941  15.971
 2030TIP3   OH227724   3.266   5.121  14.904
 2030TIP3    H127725   3.297   5.070  14.981
 2030TIP3    H227726   3.170   5.098  14.898
 2031TIP3   OH227727   3.315   5.470  16.236
 2031TIP3    H127728   3.245   5.421  16.189
 2031TIP3    H227729   3.332   5.541  16.170
 2032TIP3   OH227730   2.120   4.197  16.177
 2032TIP3    H127731   2.029   4.231  16.174
 2032TIP3    H227732   2.109   4.111  16.221
 2033TIP3   OH227733   3.339   4.982  15.128
 2033TIP3    H127734   3.317   4.899  15.173
 2033TIP3    H227735   3.436   4.984  15.135
 2034TIP3   OH227736   2.080   5.374  16.019
 2034TIP3    H127737   2.113   5.283  16.017
 2034TIP3    H227738   2.109   5.405  16.105
 2035TIP3   OH227739   2.994   4.174  16.071
 2035TIP3    H127740   3.065   4.180  16.136
 2035TIP3    H227741   2.955   4.086  16.092
 2036TIP3   OH227742   3.071   4.131  15.177
 2036TIP3    H127743   3.090   4.185  15.099
 2036TIP3    H227744   3.125   4.175  15.244
 2037TIP3   OH227745   2.838   5.353  15.068
 2037TIP3    H127746   2.752   5.397  15.069
 2037TIP3    H227747   2.887   5.397  14.998
 2038TIP3   OH227748   2.785   4.310  15.262
 2038TIP3    H127749   2.868   4.363  15.266
 2038TIP3    H227750   2.762   4.293  15.355
 2039TIP3   OH227751   2.847   4.409  16.182
 2039TIP3    H127752   2.854   4.463  16.262
 2039TIP3    H227753   2.912   4.338  16.191
 2040TIP3   OH227754   2.876   4.013  15.348
 2040TIP3    H127755   2.843   4.076  15.415
 2040TIP3    H227756   2.946   4.068  15.305
 2041TIP3   OH227757   2.570   5.458  15.064
 2041TIP3    H127758   2.594   5.537  15.014
 2041TIP3    H227759   2.549   5.486  15.155
 2042TIP3   OH227760   2.444   4.125  15.019
 2042TIP3    H127761   2.439   4.211  15.063
 2042TIP3    H227762   2.532   4.094  15.046
 2043TIP3   OH227763   3.463   4.195  16.266
 2043TIP3    H127764   3.371   4.227  16.254
 2043TIP3    H227765   3.494   4.193  16.174
 2044TIP3   OH227766   3.325   4.573  15.666
 2044TIP3    H127767   3.243   4.529  15.639
 2044TIP3    H227768   3.373   4.505  15.718
 2045TIP3   OH227769   3.431   5.500  15.834
 2045TIP3    H127770   3.423   5.568  15.764
 2045TIP3    H227771   3.528   5.505  15.851
 2046TIP3   OH227772   2.180   3.912  15.715
 2046TIP3    H127773   2.161   3.913  15.619
 2046TIP3    H227774   2.139   3.826  15.740
 2047TIP3   OH227775   2.080   5.317  15.339
 2047TIP3    H127776   1.989   5.344  15.323
 2047TIP3    H227777   2.121   5.346  15.255
 2048TIP3   OH227778   1.995   5.570  16.457
 2048TIP3    H127779   2.056   5.550  16.531
 2048TIP3    H227780   1.954   5.483  16.442
 2049TIP3   OH227781   2.463   5.456  16.618
 2049TIP3    H127782   2.542   5.410  16.651
 2049TIP3    H227783   2.465   5.433  16.523
 2050TIP3   OH227784   3.113   5.300  16.492
 2050TIP3    H127785   3.083   5.211  16.519
 2050TIP3    H227786   3.192   5.312  16.549
 2051TIP3   OH227787   1.988   4.948  16.550
 2051TIP3    H127788   2.003   4.853  16.526
 2051TIP3    H227789   1.906   4.966  16.501
 2052TIP3   OH227790   2.661   4.943  16.493
 2052TIP3    H127791   2.629   4.975  16.407
 2052TIP3    H227792   2.666   4.846  16.482
 2053TIP3   OH227793   3.229   4.931  16.235
 2053TIP3    H127794   3.308   4.989  16.229
 2053TIP3    H227795   3.159   4.998  16.239
 2054TIP3   OH227796   2.083   4.675  16.498
 2054TIP3    H127797   2.120   4.586  16.483
 2054TIP3    H227798   2.057   4.668  16.591
 2055TIP3   OH227799   2.468   4.563  16.230
 2055TIP3    H127800   2.410   4.636  16.256
 2055TIP3    H227801   2.509   4.600  16.150
 2056TIP3   OH227802   2.977   4.821  16.573
 2056TIP3    H127803   3.071   4.816  16.551
 2056TIP3    H227804   2.960   4.741  16.625
 2057TIP3   OH227805   2.511   4.302  16.334
 2057TIP3    H127806   2.522   4.230  16.269
 2057TIP3    H227807   2.506   4.383  16.279
 2058TIP3   OH227808   2.551   4.139  16.091
 2058TIP3    H127809   2.601   4.185  16.020
 2058TIP3    H227810   2.461   4.131  16.051
 2059TIP3   OH227811   2.704   4.688  16.115
 2059TIP3    H127812   2.780   4.672  16.059
 2059TIP3    H227813   2.668   4.771  16.081
 2060TIP3   OH227814   3.144   4.462  16.611
 2060TIP3    H127815   3.166   4.367  16.604
 2060TIP3    H227816   3.231   4.505  16.613
 2061TIP3   OH227817   3.278   4.743  16.431
 2061TIP3    H127818   3.253   4.814  16.368
 2061TIP3    H227819   3.374   4.739  16.409
 2062TIP3   OH227820   2.358   4.424  16.531
 2062TIP3    H127821   2.280   4.368  16.511
 2062TIP3    H227822   2.421   4.389  16.465
 2063TIP3   OH227823   2.629   3.882  16.131
 2063TIP3    H127824   2.611   3.979  16.121
 2063TIP3    H227825   2.554   3.846  16.080
 2064TIP3   OH227826   2.757   4.316  16.495
 2064TIP3    H127827   2.724   4.294  16.584
 2064TIP3    H227828   2.680   4.297  16.439
 2065TIP3   OH227829   3.028   4.229  16.400
 2065TIP3    H127830   2.932   4.236  16.414
 2065TIP3    H227831   3.055   4.167  16.470
 2066TIP3   OH227832   3.183   4.093  16.592
 2066TIP3    H127833   3.182   3.995  16.596
 2066TIP3    H227834   3.160   4.122  16.683
 2067TIP3   OH227835   2.165   4.220  16.503
 2067TIP3    H127836   2.189   4.146  16.445
 2067TIP3    H227837   2.156   4.176  16.590
 2068TIP3   OH227838   2.651   3.822  16.400
 2068TIP3    H127839   2.718   3.750  16.399
 2068TIP3    H227840   2.640   3.837  16.305
 2069TIP3   OH227841   2.685   3.982  16.611
 2069TIP3    H127842   2.669   3.932  16.527
 2069TIP3    H227843   2.628   4.061  16.600
 2070TIP3   OH227844   1.867   5.671  15.375
 2070TIP3    H127845   1.797   5.622  15.325
 2070TIP3    H227846   1.894   5.604  15.440
 2071TIP3   OH227847   1.949   5.483  15.560
 2071TIP3    H127848   1.914   5.395  15.579
 2071TIP3    H227849   1.972   5.516  15.649
 2072TIP3   OH227850   3.703   5.564  15.853
 2072TIP3    H127851   3.706   5.580  15.949
 2072TIP3    H227852   3.774   5.622  15.823
 2073TIP3   OH227853   3.660   5.524  16.148
 2073TIP3    H127854   3.613   5.446  16.110
 2073TIP3    H227855   3.709   5.479  16.219
 2074TIP3   OH227856   3.507   5.094  16.618
 2074TIP3    H127857   3.415   5.093  16.652
 2074TIP3    H227858   3.540   5.177  16.656
 2075TIP3   OH227859   3.634   4.925  15.161
 2075TIP3    H127860   3.719   4.968  15.173
 2075TIP3    H227861   3.637   4.853  15.226
 2076TIP3   OH227862   3.675   4.732  15.346
 2076TIP3    H127863   3.596   4.686  15.384
 2076TIP3    H227864   3.731   4.749  15.424
 2077TIP3   OH227865   3.648   5.005  15.845
 2077TIP3    H127866   3.729   4.968  15.807
 2077TIP3    H227867   3.663   5.101  15.828
 2078TIP3   OH227868   3.504   5.296  16.072
 2078TIP3    H127869   3.435   5.330  16.131
 2078TIP3    H227870   3.449   5.256  16.001
 2079TIP3   OH227871   3.540   4.439  14.839
 2079TIP3    H127872   3.546   4.507  14.771
 2079TIP3    H227873   3.521   4.358  14.789
 2080TIP3   OH227874   3.455   4.584  15.406
 2080TIP3    H127875   3.439   4.488  15.398
 2080TIP3    H227876   3.422   4.604  15.496
 2081TIP3   OH227877   1.955   4.792  15.809
 2081TIP3    H127878   1.973   4.785  15.712
 2081TIP3    H227879   2.044   4.774  15.844
 2082TIP3   OH227880   3.541   4.780  16.375
 2082TIP3    H127881   3.602   4.704  16.385
 2082TIP3    H227882   3.601   4.857  16.373
 2083TIP3   OH227883   3.690   4.568  16.438
 2083TIP3    H127884   3.602   4.528  16.422
 2083TIP3    H227885   3.748   4.490  16.431
 2084TIP3   OH227886   3.467   4.185  14.748
 2084TIP3    H127887   3.522   4.145  14.817
 2084TIP3    H227888   3.379   4.149  14.768
 2085TIP3   OH227889   3.423   4.341  15.253
 2085TIP3    H127890   3.451   4.247  15.261
 2085TIP3    H227891   3.501   4.380  15.212
 2086TIP3   OH227892   3.485   4.396  15.794
 2086TIP3    H127893   3.581   4.419  15.792
 2086TIP3    H227894   3.467   4.408  15.888
 2087TIP3   OH227895   3.492   4.468  16.071
 2087TIP3    H127896   3.404   4.497  16.104
 2087TIP3    H227897   3.535   4.554  16.050
 2088TIP3   OH227898   1.918   4.320  16.423
 2088TIP3    H127899   2.011   4.300  16.445
 2088TIP3    H227900   1.871   4.239  16.453
 2089TIP3   OH227901   3.721   3.875  16.605
 2089TIP3    H127902   3.755   3.807  16.545
 2089TIP3    H227903   3.729   3.956  16.552
 2090TIP3   OH227904   3.487   4.070  15.254
 2090TIP3    H127905   3.513   4.030  15.338
 2090TIP3    H227906   3.427   4.006  15.209
 2091TIP3   OH227907   2.038   4.151  15.711
 2091TIP3    H127908   2.083   4.068  15.736
 2091TIP3    H227909   2.093   4.220  15.750
 2092TIP3   OH227910   1.865   4.452  15.813
 2092TIP3    H127911   1.922   4.426  15.738
 2092TIP3    H227912   1.912   4.532  15.841
 2093TIP3   OH227913   3.671   4.085  16.442
 2093TIP3    H127914   3.577   4.112  16.439
 2093TIP3    H227915   3.674   4.030  16.362
 2094TIP3   OH227916   1.901   4.077  15.218
 2094TIP3    H127917   1.807   4.095  15.213
 2094TIP3    H227918   1.945   4.127  15.148
 2095TIP3   OH227919   3.375   5.573  15.414
 2095TIP3    H127920   3.445   5.541  15.355
 2095TIP3    H227921   3.426   5.622  15.480
 2096TIP3   OH227922   1.896   3.942  16.050
 2096TIP3    H127923   1.830   3.923  16.119
 2096TIP3    H227924   1.850   4.010  15.997
 2097TIP3   OH227925   2.121   5.308  16.484
 2097TIP3    H127926   2.036   5.315  16.436
 2097TIP3    H227927   2.096   5.278  16.573
 2098TIP3   OH227928   2.410   5.363  16.096
 2098TIP3    H127929   2.379   5.450  16.068
 2098TIP3    H227930   2.502   5.371  16.065
 2099TIP3   OH227931   2.842   5.505  16.385
 2099TIP3    H127932   2.855   5.471  16.477
 2099TIP3    H227933   2.933   5.536  16.363
 2100TIP3   OH227934   3.071   5.632  16.316
 2100TIP3    H127935   3.144   5.574  16.293
 2100TIP3    H227936   3.109   5.676  16.396
 2101TIP3   OH227937   3.574   3.893  16.226
 2101TIP3    H127938   3.491   3.923  16.186
 2101TIP3    H227939   3.590   3.811  16.175
 2102TIP3   OH227940   2.153   5.686  16.093
 2102TIP3    H127941   2.080   5.737  16.054
 2102TIP3    H227942   2.122   5.671  16.183
 2103TIP3   OH227943   2.400   5.644  16.002
 2103TIP3    H127944   2.310   5.658  16.041
 2103TIP3    H227945   2.394   5.703  15.924
 2104TIP3   OH227946   2.870   5.635  15.919
 2104TIP3    H127947   2.825   5.691  15.854
 2104TIP3    H227948   2.884   5.699  15.993
 2105TIP3   OH227949   3.099   5.516  16.022
 2105TIP3    H127950   3.014   5.544  15.984
 2105TIP3    H227951   3.148   5.599  16.013
 2106TIP3   OH227952   3.357   5.673  16.043
 2106TIP3    H127953   3.353   5.769  16.020
 2106TIP3    H227954   3.379   5.635  15.956
 2107TIP3   OH227955   2.099   5.552  15.789
 2107TIP3    H127956   2.091   5.505  15.875
 2107TIP3    H227957   2.180   5.513  15.750
 2108TIP3   OH227958   2.307   5.423  15.654
 2108TIP3    H127959   2.290   5.329  15.676
 2108TIP3    H227960   2.392   5.438  15.699
 2109TIP3   OH227961   2.568   5.472  15.742
 2109TIP3    H127962   2.582   5.379  15.715
 2109TIP3    H227963   2.572   5.466  15.838
 2110TIP3   OH227964   2.912   4.036  15.654
 2110TIP3    H127965   2.844   3.972  15.684
 2110TIP3    H227966   2.966   3.982  15.596
 2111TIP3   OH227967   3.422   3.845  15.667
 2111TIP3    H127968   3.480   3.920  15.640
 2111TIP3    H227969   3.331   3.880  15.647
 2112TIP3   OH227970   3.606   3.985  15.490
 2112TIP3    H127971   3.678   3.933  15.443
 2112TIP3    H227972   3.656   4.071  15.499
 2113TIP3   OH227973   2.149   3.899  15.442
 2113TIP3    H127974   2.070   3.879  15.389
 2113TIP3    H227975   2.196   3.813  15.433
 2114TIP3   OH227976   2.028   3.876  15.020
 2114TIP3    H127977   2.074   3.936  14.959
 2114TIP3    H227978   1.967   3.931  15.070
 2115TIP3   OH227979   2.596   3.895  15.420
 2115TIP3    H127980   2.687   3.926  15.411
 2115TIP3    H227981   2.594   3.867  15.511
 2116TIP3   OH227982   3.176   3.889  15.577
 2116TIP3    H127983   3.156   3.907  15.485
 2116TIP3    H227984   3.127   3.804  15.593
 2117TIP3   OH227985   3.290   3.897  15.155
 2117TIP3    H127986   3.217   3.956  15.130
 2117TIP3    H227987   3.246   3.811  15.171
 2118TIP3   OH227988   2.015   5.477  15.119
 2118TIP3    H127989   1.960   5.461  15.039
 2118TIP3    H227990   2.013   5.571  15.129
 2119TIP3   OH227991   2.709   4.099  15.106
 2119TIP3    H127992   2.735   4.038  15.177
 2119TIP3    H227993   2.719   4.184  15.153
 2120TIP3   OH227994   3.566   5.549  15.217
 2120TIP3    H127995   3.560   5.472  15.159
 2120TIP3    H227996   3.572   5.626  15.159
 2121TIP3   OH227997   2.137   3.952  16.385
 2121TIP3    H127998   2.098   3.873  16.426
 2121TIP3    H227999   2.228   3.948  16.423
 2122TIP3   OH228000   2.337   3.893  16.551
 2122TIP3    H128001   2.425   3.858  16.526
 2122TIP3    H228002   2.300   3.812  16.592
 2123TIP3   OH228003   3.178   3.820  16.565
 2123TIP3    H128004   3.188   3.772  16.649
 2123TIP3    H228005   3.270   3.817  16.530
 2124TIP3   OH228006   3.498   5.425  16.431
 2124TIP3    H128007   3.420   5.411  16.374
 2124TIP3    H228008   3.488   5.520  16.449
 2125TIP3   OH228009   4.944   4.814  15.425
 2125TIP3    H128010   4.944   4.912  15.421
 2125TIP3    H228011   4.873   4.790  15.363
 2126TIP3   OH228012   4.829   4.738  15.776
 2126TIP3    H128013   4.828   4.673  15.848
 2126TIP3    H228014   4.794   4.687  15.701
 2127TIP3   OH228015   4.064   4.706  15.931
 2127TIP3    H128016   4.073   4.637  16.000
 2127TIP3    H228017   4.139   4.763  15.953
 2128TIP3   OH228018   5.198   5.031  15.605
 2128TIP3    H128019   5.156   4.961  15.656
 2128TIP3    H228020   5.200   5.104  15.669
 2129TIP3   OH228021   4.157   5.151  15.780
 2129TIP3    H128022   4.126   5.064  15.748
 2129TIP3    H228023   4.252   5.133  15.785
 2130TIP3   OH228024   3.822   4.510  15.327
 2130TIP3    H128025   3.775   4.595  15.323
 2130TIP3    H228026   3.765   4.454  15.273
 2131TIP3   OH228027   3.892   4.728  15.544
 2131TIP3    H128028   3.919   4.646  15.590
 2131TIP3    H228029   3.963   4.739  15.479
 2132TIP3   OH228030   4.910   5.548  15.627
 2132TIP3    H128031   4.974   5.479  15.600
 2132TIP3    H228032   4.888   5.516  15.715
 2133TIP3   OH228033   4.666   4.978  15.822
 2133TIP3    H128034   4.700   4.915  15.757
 2133TIP3    H228035   4.748   4.995  15.872
 2134TIP3   OH228036   5.526   4.145  15.895
 2134TIP3    H128037   5.544   4.203  15.972
 2134TIP3    H228038   5.583   4.186  15.829
 2135TIP3   OH228039   4.983   4.425  15.855
 2135TIP3    H128040   5.000   4.329  15.855
 2135TIP3    H228041   4.973   4.439  15.759
 2136TIP3   OH228042   4.293   4.234  15.575
 2136TIP3    H128043   4.306   4.317  15.526
 2136TIP3    H228044   4.255   4.177  15.505
 2137TIP3   OH228045   5.068   4.242  15.414
 2137TIP3    H128046   5.134   4.210  15.480
 2137TIP3    H228047   5.125   4.299  15.359
 2138TIP3   OH228048   3.957   4.474  15.649
 2138TIP3    H128049   4.024   4.421  15.695
 2138TIP3    H228050   3.967   4.442  15.558
 2139TIP3   OH228051   4.472   4.630  15.583
 2139TIP3    H128052   4.541   4.572  15.621
 2139TIP3    H228053   4.421   4.565  15.532
 2140TIP3   OH228054   5.570   4.285  16.123
 2140TIP3    H128055   5.510   4.362  16.112
 2140TIP3    H228056   5.574   4.277  16.219
 2141TIP3   OH228057   4.186   4.124  15.980
 2141TIP3    H128058   4.158   4.181  15.905
 2141TIP3    H228059   4.118   4.147  16.048
 2142TIP3   OH228060   4.915   5.075  15.336
 2142TIP3    H128061   4.889   5.046  15.247
 2142TIP3    H228062   4.881   5.166  15.341
 2143TIP3   OH228063   4.436   4.888  16.003
 2143TIP3    H128064   4.366   4.952  16.026
 2143TIP3    H228065   4.507   4.948  15.974
 2144TIP3   OH228066   5.250   4.177  15.612
 2144TIP3    H128067   5.227   4.100  15.666
 2144TIP3    H228068   5.317   4.220  15.668
 2145TIP3   OH228069   4.143   4.309  15.784
 2145TIP3    H128070   4.205   4.378  15.814
 2145TIP3    H228071   4.194   4.268  15.710
 2146TIP3   OH228072   4.281   5.089  16.085
 2146TIP3    H128073   4.277   5.181  16.051
 2146TIP3    H228074   4.193   5.081  16.129
 2147TIP3   OH228075   5.251   5.217  15.842
 2147TIP3    H128076   5.154   5.228  15.853
 2147TIP3    H228077   5.277   5.309  15.820
 2148TIP3   OH228078   5.283   4.045  15.980
 2148TIP3    H128079   5.210   4.109  15.970
 2148TIP3    H228080   5.354   4.087  15.928
 2149TIP3   OH228081   4.579   3.857  15.726
 2149TIP3    H128082   4.565   3.761  15.719
 2149TIP3    H228083   4.491   3.888  15.757
 2150TIP3   OH228084   5.075   5.395  15.495
 2150TIP3    H128085   5.121   5.321  15.455
 2150TIP3    H228086   5.122   5.475  15.463
 2151TIP3   OH228087   5.354   5.047  16.200
 2151TIP3    H128088   5.376   4.982  16.129
 2151TIP3    H228089   5.382   5.131  16.157
 2152TIP3   OH228090   4.810   4.738  15.179
 2152TIP3    H128091   4.740   4.794  15.139
 2152TIP3    H228092   4.879   4.745  15.110
 2153TIP3   OH228093   5.548   4.679  16.005
 2153TIP3    H128094   5.482   4.751  16.009
 2153TIP3    H228095   5.598   4.702  15.925
 2154TIP3   OH228096   5.157   4.753  15.272
 2154TIP3    H128097   5.082   4.783  15.329
 2154TIP3    H228098   5.204   4.689  15.327
 2155TIP3   OH228099   5.146   4.574  16.183
 2155TIP3    H128100   5.148   4.657  16.233
 2155TIP3    H228101   5.085   4.602  16.111
 2156TIP3   OH228102   4.316   4.824  15.461
 2156TIP3    H128103   4.284   4.785  15.376
 2156TIP3    H228104   4.376   4.754  15.494
 2157TIP3   OH228105   4.447   5.161  15.729
 2157TIP3    H128106   4.447   5.109  15.648
 2157TIP3    H228107   4.525   5.126  15.775
 2158TIP3   OH228108   4.348   4.698  15.828
 2158TIP3    H128109   4.402   4.707  15.747
 2158TIP3    H228110   4.387   4.764  15.888
 2159TIP3   OH228111   4.991   5.257  15.896
 2159TIP3    H128112   4.962   5.320  15.962
 2159TIP3    H228113   4.966   5.171  15.937
 2160TIP3   OH228114   4.444   5.141  16.297
 2160TIP3    H128115   4.401   5.215  16.346
 2160TIP3    H228116   4.377   5.121  16.228
 2161TIP3   OH228117   5.044   4.678  15.041
 2161TIP3    H128118   5.099   4.700  15.121
 2161TIP3    H228119   5.079   4.734  14.970
 2162TIP3   OH228120   4.138   4.757  16.212
 2162TIP3    H128121   4.143   4.824  16.283
 2162TIP3    H228122   4.043   4.766  16.192
 2163TIP3   OH228123   4.818   5.356  15.376
 2163TIP3    H128124   4.854   5.378  15.463
 2163TIP3    H228125   4.751   5.422  15.365
 2164TIP3   OH228126   4.268   5.344  16.371
 2164TIP3    H128127   4.262   5.335  16.275
 2164TIP3    H228128   4.175   5.331  16.399
 2165TIP3   OH228129   4.212   4.723  15.225
 2165TIP3    H128130   4.186   4.801  15.171
 2165TIP3    H228131   4.144   4.660  15.200
 2166TIP3   OH228132   3.820   4.969  16.114
 2166TIP3    H128133   3.777   4.961  16.027
 2166TIP3    H228134   3.829   4.874  16.135
 2167TIP3   OH228135   3.796   5.243  15.791
 2167TIP3    H128136   3.892   5.231  15.787
 2167TIP3    H228137   3.789   5.325  15.841
 2168TIP3   OH228138   5.619   5.311  16.356
 2168TIP3    H128139   5.608   5.214  16.357
 2168TIP3    H228140   5.534   5.337  16.400
 2169TIP3   OH228141   4.719   5.262  16.252
 2169TIP3    H128142   4.722   5.351  16.297
 2169TIP3    H228143   4.627   5.233  16.269
 2170TIP3   OH228144   4.124   5.528  15.407
 2170TIP3    H128145   4.139   5.485  15.494
 2170TIP3    H228146   4.040   5.486  15.382
 2171TIP3   OH228147   5.030   5.562  15.205
 2171TIP3    H128148   4.937   5.556  15.224
 2171TIP3    H228149   5.063   5.487  15.257
 2172TIP3   OH228150   5.335   4.459  16.404
 2172TIP3    H128151   5.289   4.503  16.332
 2172TIP3    H228152   5.334   4.366  16.375
 2173TIP3   OH228153   4.050   5.100  16.207
 2173TIP3    H128154   4.072   5.063  16.295
 2173TIP3    H228155   3.963   5.060  16.185
 2174TIP3   OH228156   4.318   3.948  15.800
 2174TIP3    H128157   4.227   3.935  15.765
 2174TIP3    H228158   4.304   4.031  15.850
 2175TIP3   OH228159   4.782   3.914  16.137
 2175TIP3    H128160   4.822   3.872  16.216
 2175TIP3    H228161   4.685   3.902  16.152
 2176TIP3   OH228162   5.111   4.300  16.226
 2176TIP3    H128163   5.055   4.277  16.305
 2176TIP3    H228164   5.092   4.393  16.205
 2177TIP3   OH228165   4.328   4.446  15.928
 2177TIP3    H128166   4.254   4.444  15.991
 2177TIP3    H228167   4.321   4.536  15.889
 2178TIP3   OH228168   4.324   4.454  15.415
 2178TIP3    H128169   4.229   4.432  15.399
 2178TIP3    H228170   4.362   4.426  15.329
 2179TIP3   OH228171   4.871   4.502  15.286
 2179TIP3    H128172   4.837   4.590  15.257
 2179TIP3    H228173   4.947   4.489  15.226
 2180TIP3   OH228174   4.781   4.530  16.436
 2180TIP3    H128175   4.729   4.450  16.463
 2180TIP3    H228176   4.865   4.514  16.482
 2181TIP3   OH228177   4.980   4.457  15.573
 2181TIP3    H128178   4.952   4.513  15.499
 2181TIP3    H228179   4.989   4.371  15.527
 2182TIP3   OH228180   4.090   4.469  16.095
 2182TIP3    H128181   4.099   4.511  16.182
 2182TIP3    H228182   4.046   4.386  16.116
 2183TIP3   OH228183   4.432   4.212  14.781
 2183TIP3    H128184   4.384   4.169  14.855
 2183TIP3    H228185   4.359   4.243  14.726
 2184TIP3   OH228186   3.762   4.186  15.490
 2184TIP3    H128187   3.828   4.178  15.563
 2184TIP3    H228188   3.805   4.145  15.413
 2185TIP3   OH228189   3.888   4.262  15.038
 2185TIP3    H128190   3.931   4.314  14.971
 2185TIP3    H228191   3.811   4.318  15.061
 2186TIP3   OH228192   4.902   4.615  16.034
 2186TIP3    H128193   4.937   4.548  15.972
 2186TIP3    H228194   4.851   4.560  16.096
 2187TIP3   OH228195   4.579   4.213  15.515
 2187TIP3    H128196   4.485   4.213  15.544
 2187TIP3    H228197   4.627   4.195  15.597
 2188TIP3   OH228198   4.060   4.368  15.399
 2188TIP3    H128199   3.970   4.380  15.360
 2188TIP3    H228200   4.086   4.280  15.364
 2189TIP3   OH228201   4.422   4.376  15.163
 2189TIP3    H128202   4.518   4.380  15.181
 2189TIP3    H228203   4.407   4.444  15.097
 2190TIP3   OH228204   5.020   4.136  15.838
 2190TIP3    H128205   4.952   4.140  15.909
 2190TIP3    H228206   4.969   4.110  15.760
 2191TIP3   OH228207   5.338   5.699  16.474
 2191TIP3    H128208   5.367   5.736  16.388
 2191TIP3    H228209   5.410   5.730  16.531
 2192TIP3   OH228210   4.108   4.946  16.429
 2192TIP3    H128211   4.178   4.971  16.492
 2192TIP3    H228212   4.030   4.954  16.487
 2193TIP3   OH228213   4.707   4.488  15.703
 2193TIP3    H128214   4.767   4.434  15.650
 2193TIP3    H228215   4.693   4.433  15.781
 2194TIP3   OH228216   4.209   4.104  15.345
 2194TIP3    H128217   4.176   4.012  15.346
 2194TIP3    H228218   4.286   4.093  15.288
 2195TIP3   OH228219   4.571   4.320  15.944
 2195TIP3    H128220   4.489   4.372  15.953
 2195TIP3    H228221   4.627   4.356  16.017
 2196TIP3   OH228222   4.627   4.945  15.115
 2196TIP3    H128223   4.551   4.896  15.081
 2196TIP3    H228224   4.608   4.955  15.209
 2197TIP3   OH228225   5.349   4.864  15.994
 2197TIP3    H128226   5.406   4.912  15.931
 2197TIP3    H228227   5.264   4.867  15.945
 2198TIP3   OH228228   4.787   4.972  16.249
 2198TIP3    H128229   4.726   4.924  16.307
 2198TIP3    H228230   4.747   5.061  16.241
 2199TIP3   OH228231   5.087   4.411  15.100
 2199TIP3    H128232   5.177   4.399  15.136
 2199TIP3    H228233   5.096   4.494  15.050
 2200TIP3   OH228234   4.143   4.882  15.696
 2200TIP3    H128235   4.209   4.874  15.625
 2200TIP3    H228236   4.147   4.796  15.740
 2201TIP3   OH228237   4.844   5.095  15.031
 2201TIP3    H128238   4.799   5.174  15.055
 2201TIP3    H228239   4.773   5.027  15.031
 2202TIP3   OH228240   3.840   4.722  16.221
 2202TIP3    H128241   3.857   4.678  16.306
 2202TIP3    H228242   3.778   4.662  16.177
 2203TIP3   OH228243   4.544   4.681  16.436
 2203TIP3    H128244   4.508   4.646  16.353
 2203TIP3    H228245   4.633   4.642  16.437
 2204TIP3   OH228246   5.006   5.201  16.241
 2204TIP3    H128247   4.919   5.233  16.209
 2204TIP3    H228248   5.008   5.248  16.327
 2205TIP3   OH228249   5.577   4.432  15.075
 2205TIP3    H128250   5.520   4.401  15.001
 2205TIP3    H228251   5.586   4.526  15.048
 2206TIP3   OH228252   5.576   5.015  16.352
 2206TIP3    H128253   5.488   5.039  16.316
 2206TIP3    H228254   5.631   5.010  16.270
 2207TIP3   OH228255   5.127   4.794  15.824
 2207TIP3    H128256   5.033   4.774  15.810
 2207TIP3    H228257   5.170   4.719  15.778
 2208TIP3   OH228258   4.378   5.227  15.430
 2208TIP3    H128259   4.425   5.309  15.412
 2208TIP3    H228260   4.290   5.249  15.398
 2209TIP3   OH228261   4.521   4.995  15.383
 2209TIP3    H128262   4.489   5.087  15.395
 2209TIP3    H228263   4.450   4.945  15.428
 2210TIP3   OH228264   4.565   5.413  16.026
 2210TIP3    H128265   4.611   5.493  15.997
 2210TIP3    H228266   4.627   5.378  16.093
 2211TIP3   OH228267   4.391   5.490  15.341
 2211TIP3    H128268   4.293   5.504  15.349
 2211TIP3    H228269   4.423   5.576  15.374
 2212TIP3   OH228270   4.919   5.014  15.989
 2212TIP3    H128271   4.884   4.991  16.076
 2212TIP3    H228272   4.981   4.941  15.968
 2213TIP3   OH228273   5.200   5.471  16.236
 2213TIP3    H128274   5.131   5.423  16.187
 2213TIP3    H228275   5.218   5.541  16.170
 2214TIP3   OH228276   4.005   4.197  16.177
 2214TIP3    H128277   3.915   4.231  16.174
 2214TIP3    H228278   3.994   4.112  16.222
 2215TIP3   OH228279   3.967   5.374  16.018
 2215TIP3    H128280   3.998   5.282  16.019
 2215TIP3    H228281   3.993   5.403  16.106
 2216TIP3   OH228282   4.448   5.179  14.985
 2216TIP3    H128283   4.464   5.129  15.066
 2216TIP3    H228284   4.443   5.272  15.016
 2217TIP3   OH228285   4.099   4.902  15.048
 2217TIP3    H128286   4.022   4.947  15.087
 2217TIP3    H228287   4.144   4.978  15.009
 2218TIP3   OH228288   4.879   4.173  16.072
 2218TIP3    H128289   4.950   4.179  16.136
 2218TIP3    H228290   4.840   4.086  16.093
 2219TIP3   OH228291   4.956   4.133  15.173
 2219TIP3    H128292   4.980   4.188  15.098
 2219TIP3    H228293   5.009   4.172  15.245
 2220TIP3   OH228294   4.676   4.307  15.261
 2220TIP3    H128295   4.755   4.364  15.269
 2220TIP3    H228296   4.649   4.291  15.355
 2221TIP3   OH228297   4.731   4.407  16.181
 2221TIP3    H128298   4.738   4.461  16.262
 2221TIP3    H228299   4.798   4.338  16.191
 2222TIP3   OH228300   4.761   4.012  15.349
 2222TIP3    H128301   4.728   4.075  15.415
 2222TIP3    H228302   4.831   4.067  15.307
 2223TIP3   OH228303   4.458   5.449  15.064
 2223TIP3    H128304   4.473   5.530  15.011
 2223TIP3    H228305   4.430   5.483  15.151
 2224TIP3   OH228306   4.334   4.125  15.019
 2224TIP3    H128307   4.322   4.211  15.063
 2224TIP3    H228308   4.421   4.096  15.050
 2225TIP3   OH228309   5.349   4.196  16.266
 2225TIP3    H128310   5.256   4.227  16.253
 2225TIP3    H228311   5.379   4.193  16.173
 2226TIP3   OH228312   5.210   4.573  15.667
 2226TIP3    H128313   5.128   4.529  15.639
 2226TIP3    H228314   5.259   4.504  15.718
 2227TIP3   OH228315   5.317   5.499  15.832
 2227TIP3    H128316   5.308   5.569  15.764
 2227TIP3    H228317   5.413   5.504  15.850
 2228TIP3   OH228318   4.065   3.912  15.715
 2228TIP3    H128319   4.048   3.913  15.618
 2228TIP3    H228320   4.026   3.826  15.741
 2229TIP3   OH228321   3.964   5.311  15.332
 2229TIP3    H128322   3.875   5.347  15.322
 2229TIP3    H228323   4.010   5.346  15.255
 2230TIP3   OH228324   3.880   5.571  16.457
 2230TIP3    H128325   3.942   5.551  16.530
 2230TIP3    H228326   3.841   5.484  16.438
 2231TIP3   OH228327   4.351   5.458  16.618
 2231TIP3    H128328   4.428   5.410  16.651
 2231TIP3    H228329   4.349   5.432  16.524
 2232TIP3   OH228330   5.000   5.297  16.490
 2232TIP3    H128331   4.968   5.213  16.526
 2232TIP3    H228332   5.078   5.315  16.548
 2233TIP3   OH228333   3.870   4.946  16.560
 2233TIP3    H128334   3.891   4.856  16.526
 2233TIP3    H228335   3.800   4.971  16.497
 2234TIP3   OH228336   4.556   4.944  16.488
 2234TIP3    H128337   4.507   4.976  16.409
 2234TIP3    H228338   4.548   4.845  16.483
 2235TIP3   OH228339   5.109   4.936  16.248
 2235TIP3    H128340   5.193   4.984  16.228
 2235TIP3    H228341   5.048   5.007  16.226
 2236TIP3   OH228342   3.965   4.669  16.495
 2236TIP3    H128343   4.007   4.582  16.487
 2236TIP3    H228344   3.943   4.671  16.590
 2237TIP3   OH228345   4.355   4.563  16.230
 2237TIP3    H128346   4.295   4.635  16.256
 2237TIP3    H228347   4.395   4.600  16.149
 2238TIP3   OH228348   4.866   4.815  16.575
 2238TIP3    H128349   4.961   4.803  16.568
 2238TIP3    H228350   4.841   4.737  16.629
 2239TIP3   OH228351   4.397   4.302  16.334
 2239TIP3    H128352   4.407   4.230  16.269
 2239TIP3    H228353   4.391   4.383  16.279
 2240TIP3   OH228354   4.436   4.139  16.091
 2240TIP3    H128355   4.487   4.186  16.021
 2240TIP3    H228356   4.347   4.131  16.051
 2241TIP3   OH228357   4.593   4.692  16.119
 2241TIP3    H128358   4.664   4.671  16.058
 2241TIP3    H228359   4.551   4.770  16.079
 2242TIP3   OH228360   5.030   4.464  16.609
 2242TIP3    H128361   5.051   4.369  16.603
 2242TIP3    H228362   5.118   4.503  16.614
 2243TIP3   OH228363   5.163   4.747  16.432
 2243TIP3    H128364   5.144   4.814  16.363
 2243TIP3    H228365   5.259   4.736  16.412
 2244TIP3   OH228366   4.244   4.424  16.531
 2244TIP3    H128367   4.165   4.370  16.511
 2244TIP3    H228368   4.306   4.390  16.464
 2245TIP3   OH228369   4.514   3.882  16.131
 2245TIP3    H128370   4.496   3.979  16.121
 2245TIP3    H228371   4.440   3.846  16.080
 2246TIP3   OH228372   4.642   4.316  16.495
 2246TIP3    H128373   4.610   4.294  16.584
 2246TIP3    H228374   4.565   4.297  16.439
 2247TIP3   OH228375   4.914   4.229  16.401
 2247TIP3    H128376   4.818   4.235  16.414
 2247TIP3    H228377   4.941   4.166  16.471
 2248TIP3   OH228378   5.068   4.093  16.592
 2248TIP3    H128379   5.068   3.995  16.595
 2248TIP3    H228380   5.046   4.122  16.683
 2249TIP3   OH228381   4.050   4.220  16.503
 2249TIP3    H128382   4.074   4.146  16.445
 2249TIP3    H228383   4.041   4.177  16.590
 2250TIP3   OH228384   4.537   3.822  16.400
 2250TIP3    H128385   4.605   3.752  16.398
 2250TIP3    H228386   4.525   3.837  16.305
 2251TIP3   OH228387   4.571   3.982  16.611
 2251TIP3    H128388   4.555   3.931  16.527
 2251TIP3    H228389   4.514   4.060  16.600
 2252TIP3   OH228390   4.524   5.675  14.927
 2252TIP3    H128391   4.618   5.687  14.934
 2252TIP3    H228392   4.501   5.738  14.859
 2253TIP3   OH228393   3.749   5.673  15.375
 2253TIP3    H128394   3.682   5.622  15.326
 2253TIP3    H228395   3.782   5.605  15.437
 2254TIP3   OH228396   3.833   5.484  15.561
 2254TIP3    H128397   3.799   5.396  15.583
 2254TIP3    H228398   3.857   5.517  15.649
 2255TIP3   OH228399   5.589   5.564  15.853
 2255TIP3    H128400   5.592   5.580  15.949
 2255TIP3    H228401   5.659   5.622  15.823
 2256TIP3   OH228402   5.546   5.524  16.148
 2256TIP3    H128403   5.499   5.446  16.109
 2256TIP3    H228404   5.594   5.479  16.219
 2257TIP3   OH228405   5.389   5.094  16.613
 2257TIP3    H128406   5.302   5.093  16.655
 2257TIP3    H228407   5.428   5.174  16.655
 2258TIP3   OH228408   5.529   4.924  15.154
 2258TIP3    H128409   5.612   4.964  15.182
 2258TIP3    H228410   5.520   4.856  15.226
 2259TIP3   OH228411   5.558   4.739  15.346
 2259TIP3    H128412   5.483   4.686  15.383
 2259TIP3    H228413   5.617   4.750  15.423
 2260TIP3   OH228414   5.534   5.004  15.847
 2260TIP3    H128415   5.615   4.968  15.807
 2260TIP3    H228416   5.548   5.100  15.830
 2261TIP3   OH228417   5.390   5.296  16.072
 2261TIP3    H128418   5.321   5.330  16.131
 2261TIP3    H228419   5.335   5.256  16.001
 2262TIP3   OH228420   5.592   4.719  14.981
 2262TIP3    H128421   5.530   4.754  14.918
 2262TIP3    H228422   5.584   4.784  15.053
 2263TIP3   OH228423   5.437   4.440  14.838
 2263TIP3    H128424   5.413   4.505  14.772
 2263TIP3    H228425   5.400   4.363  14.794
 2264TIP3   OH228426   5.344   4.581  15.405
 2264TIP3    H128427   5.325   4.487  15.400
 2264TIP3    H228428   5.307   4.606  15.492
 2265TIP3   OH228429   3.841   4.792  15.810
 2265TIP3    H128430   3.858   4.784  15.714
 2265TIP3    H228431   3.930   4.774  15.845
 2266TIP3   OH228432   5.424   4.781  16.377
 2266TIP3    H128433   5.485   4.704  16.385
 2266TIP3    H228434   5.487   4.856  16.372
 2267TIP3   OH228435   5.575   4.569  16.438
 2267TIP3    H128436   5.488   4.527  16.422
 2267TIP3    H228437   5.633   4.491  16.430
 2268TIP3   OH228438   5.307   4.341  15.252
 2268TIP3    H128439   5.337   4.248  15.263
 2268TIP3    H228440   5.386   4.382  15.212
 2269TIP3   OH228441   5.371   4.396  15.794
 2269TIP3    H128442   5.467   4.419  15.793
 2269TIP3    H228443   5.352   4.410  15.888
 2270TIP3   OH228444   5.377   4.468  16.072
 2270TIP3    H128445   5.289   4.497  16.104
 2270TIP3    H228446   5.421   4.554  16.050
 2271TIP3   OH228447   3.803   4.321  16.424
 2271TIP3    H128448   3.897   4.300  16.445
 2271TIP3    H228449   3.757   4.239  16.453
 2272TIP3   OH228450   5.605   3.874  16.606
 2272TIP3    H128451   5.640   3.807  16.545
 2272TIP3    H228452   5.614   3.955  16.552
 2273TIP3   OH228453   5.372   4.070  15.253
 2273TIP3    H128454   5.396   4.025  15.337
 2273TIP3    H228455   5.313   4.006  15.208
 2274TIP3   OH228456   3.922   4.150  15.709
 2274TIP3    H128457   3.970   4.069  15.736
 2274TIP3    H228458   3.977   4.220  15.747
 2275TIP3   OH228459   3.751   4.453  15.815
 2275TIP3    H128460   3.807   4.427  15.739
 2275TIP3    H228461   3.799   4.533  15.841
 2276TIP3   OH228462   5.557   4.085  16.442
 2276TIP3    H128463   5.463   4.112  16.439
 2276TIP3    H228464   5.559   4.030  16.362
 2277TIP3   OH228465   3.785   4.082  15.226
 2277TIP3    H128466   3.692   4.097  15.206
 2277TIP3    H228467   3.830   4.120  15.148
 2278TIP3   OH228468   5.261   5.572  15.414
 2278TIP3    H128469   5.332   5.544  15.354
 2278TIP3    H228470   5.310   5.624  15.480
 2279TIP3   OH228471   3.782   3.942  16.051
 2279TIP3    H128472   3.715   3.923  16.119
 2279TIP3    H228473   3.738   4.011  15.998
 2280TIP3   OH228474   4.006   5.264  16.468
 2280TIP3    H128475   3.923   5.285  16.423
 2280TIP3    H228476   3.979   5.257  16.560
 2281TIP3   OH228477   4.296   5.363  16.095
 2281TIP3    H128478   4.263   5.450  16.068
 2281TIP3    H228479   4.389   5.371  16.064
 2282TIP3   OH228480   4.729   5.502  16.384
 2282TIP3    H128481   4.740   5.473  16.477
 2282TIP3    H228482   4.818   5.537  16.363
 2283TIP3   OH228483   4.957   5.632  16.316
 2283TIP3    H128484   5.030   5.574  16.293
 2283TIP3    H228485   4.994   5.676  16.396
 2284TIP3   OH228486   5.459   3.893  16.228
 2284TIP3    H128487   5.376   3.923  16.186
 2284TIP3    H228488   5.476   3.811  16.176
 2285TIP3   OH228489   4.039   5.686  16.094
 2285TIP3    H128490   3.965   5.737  16.055
 2285TIP3    H228491   4.008   5.668  16.184
 2286TIP3   OH228492   4.286   5.643  16.002
 2286TIP3    H128493   4.196   5.659  16.041
 2286TIP3    H228494   4.280   5.703  15.925
 2287TIP3   OH228495   4.756   5.636  15.918
 2287TIP3    H128496   4.710   5.691  15.854
 2287TIP3    H228497   4.769   5.700  15.992
 2288TIP3   OH228498   4.984   5.515  16.022
 2288TIP3    H128499   4.900   5.544  15.984
 2288TIP3    H228500   5.034   5.599  16.013
 2289TIP3   OH228501   5.243   5.673  16.043
 2289TIP3    H128502   5.238   5.769  16.021
 2289TIP3    H228503   5.265   5.636  15.956
 2290TIP3   OH228504   3.985   5.551  15.788
 2290TIP3    H128505   3.977   5.505  15.875
 2290TIP3    H228506   4.066   5.513  15.750
 2291TIP3   OH228507   4.192   5.423  15.654
 2291TIP3    H128508   4.175   5.329  15.676
 2291TIP3    H228509   4.278   5.438  15.699
 2292TIP3   OH228510   4.453   5.472  15.741
 2292TIP3    H128511   4.467   5.379  15.714
 2292TIP3    H228512   4.457   5.465  15.838
 2293TIP3   OH228513   4.797   4.035  15.655
 2293TIP3    H128514   4.730   3.971  15.684
 2293TIP3    H228515   4.853   3.982  15.597
 2294TIP3   OH228516   5.311   3.840  15.661
 2294TIP3    H128517   5.372   3.900  15.612
 2294TIP3    H228518   5.223   3.877  15.638
 2295TIP3   OH228519   5.478   3.967  15.489
 2295TIP3    H128520   5.547   3.910  15.450
 2295TIP3    H228521   5.529   4.050  15.502
 2296TIP3   OH228522   4.032   3.897  15.446
 2296TIP3    H128523   3.959   3.883  15.385
 2296TIP3    H228524   4.083   3.814  15.434
 2297TIP3   OH228525   4.482   3.890  15.419
 2297TIP3    H128526   4.571   3.927  15.411
 2297TIP3    H228527   4.479   3.869  15.512
 2298TIP3   OH228528   5.053   3.893  15.581
 2298TIP3    H128529   5.048   3.904  15.485
 2298TIP3    H228530   5.015   3.803  15.594
 2299TIP3   OH228531   5.182   3.895  15.152
 2299TIP3    H128532   5.109   3.956  15.133
 2299TIP3    H228533   5.137   3.810  15.170
 2300TIP3   OH228534   4.596   4.094  15.104
 2300TIP3    H128535   4.621   4.036  15.177
 2300TIP3    H228536   4.604   4.181  15.149
 2301TIP3   OH228537   5.462   5.545  15.214
 2301TIP3    H128538   5.439   5.477  15.151
 2301TIP3    H228539   5.459   5.624  15.154
 2302TIP3   OH228540   4.023   3.952  16.385
 2302TIP3    H128541   3.983   3.873  16.426
 2302TIP3    H228542   4.114   3.948  16.423
 2303TIP3   OH228543   4.223   3.892  16.551
 2303TIP3    H128544   4.311   3.857  16.526
 2303TIP3    H228545   4.186   3.811  16.592
 2304TIP3   OH228546   5.063   3.821  16.563
 2304TIP3    H128547   5.072   3.771  16.648
 2304TIP3    H228548   5.155   3.816  16.531
 2305TIP3   OH228549   5.385   5.426  16.431
 2305TIP3    H128550   5.306   5.412  16.373
 2305TIP3    H228551   5.374   5.521  16.449
 2306TIP3   OH228552   6.828   4.812  15.430
 2306TIP3    H128553   6.829   4.909  15.419
 2306TIP3    H228554   6.757   4.789  15.368
 2307TIP3   OH228555   6.715   4.738  15.775
 2307TIP3    H128556   6.713   4.673  15.848
 2307TIP3    H228557   6.680   4.687  15.700
 2308TIP3   OH228558   5.950   4.706  15.931
 2308TIP3    H128559   5.958   4.637  16.001
 2308TIP3    H228560   6.025   4.763  15.953
 2309TIP3   OH228561   7.084   5.031  15.605
 2309TIP3    H128562   7.043   4.960  15.655
 2309TIP3    H228563   7.092   5.100  15.673
 2310TIP3   OH228564   6.042   5.150  15.783
 2310TIP3    H128565   6.011   5.063  15.749
 2310TIP3    H228566   6.138   5.133  15.785
 2311TIP3   OH228567   5.705   4.507  15.333
 2311TIP3    H128568   5.662   4.594  15.324
 2311TIP3    H228569   5.650   4.452  15.275
 2312TIP3   OH228570   5.778   4.729  15.546
 2312TIP3    H128571   5.806   4.647  15.590
 2312TIP3    H228572   5.846   4.740  15.478
 2313TIP3   OH228573   6.799   5.549  15.628
 2313TIP3    H128574   6.862   5.479  15.599
 2313TIP3    H228575   6.774   5.515  15.714
 2314TIP3   OH228576   6.551   4.978  15.824
 2314TIP3    H128577   6.585   4.917  15.757
 2314TIP3    H228578   6.633   4.994  15.874
 2315TIP3   OH228579   6.867   4.425  15.854
 2315TIP3    H128580   6.886   4.329  15.855
 2315TIP3    H228581   6.858   4.438  15.757
 2316TIP3   OH228582   6.180   4.234  15.576
 2316TIP3    H128583   6.191   4.318  15.527
 2316TIP3    H228584   6.139   4.177  15.507
 2317TIP3   OH228585   6.955   4.245  15.414
 2317TIP3    H128586   7.021   4.210  15.479
 2317TIP3    H228587   7.009   4.298  15.356
 2318TIP3   OH228588   5.843   4.475  15.649
 2318TIP3    H128589   5.910   4.421  15.695
 2318TIP3    H228590   5.853   4.444  15.558
 2319TIP3   OH228591   6.358   4.630  15.582
 2319TIP3    H128592   6.426   4.573  15.620
 2319TIP3    H228593   6.308   4.565  15.528
 2320TIP3   OH228594   6.071   4.123  15.978
 2320TIP3    H128595   6.043   4.181  15.904
 2320TIP3    H228596   6.004   4.146  16.047
 2321TIP3   OH228597   6.801   5.070  15.332
 2321TIP3    H128598   6.768   5.043  15.247
 2321TIP3    H228599   6.768   5.163  15.340
 2322TIP3   OH228600   6.322   4.888  16.003
 2322TIP3    H128601   6.252   4.953  16.026
 2322TIP3    H228602   6.393   4.948  15.974
 2323TIP3   OH228603   7.116   4.174  15.617
 2323TIP3    H128604   7.110   4.095  15.670
 2323TIP3    H228605   7.189   4.222  15.663
 2324TIP3   OH228606   6.029   4.309  15.783
 2324TIP3    H128607   6.091   4.378  15.814
 2324TIP3    H228608   6.080   4.269  15.709
 2325TIP3   OH228609   6.167   5.089  16.085
 2325TIP3    H128610   6.162   5.181  16.052
 2325TIP3    H228611   6.079   5.081  16.130
 2326TIP3   OH228612   5.778   5.051  15.163
 2326TIP3    H128613   5.744   5.082  15.079
 2326TIP3    H228614   5.781   5.132  15.219
 2327TIP3   OH228615   7.128   5.212  15.848
 2327TIP3    H128616   7.031   5.227  15.854
 2327TIP3    H228617   7.160   5.300  15.822
 2328TIP3   OH228618   7.161   4.056  15.967
 2328TIP3    H128619   7.085   4.117  15.968
 2328TIP3    H228620   7.230   4.105  15.920
 2329TIP3   OH228621   6.465   3.856  15.732
 2329TIP3    H128622   6.447   3.762  15.715
 2329TIP3    H228623   6.375   3.890  15.754
 2330TIP3   OH228624   6.959   5.391  15.502
 2330TIP3    H128625   7.007   5.322  15.452
 2330TIP3    H228626   7.004   5.470  15.466
 2331TIP3   OH228627   7.078   5.185  15.348
 2331TIP3    H128628   7.060   5.110  15.290
 2331TIP3    H228629   7.087   5.137  15.433
 2332TIP3   OH228630   7.224   5.057  16.209
 2332TIP3    H128631   7.254   4.988  16.146
 2332TIP3    H228632   7.264   5.136  16.166
 2333TIP3   OH228633   6.696   4.738  15.178
 2333TIP3    H128634   6.625   4.790  15.138
 2333TIP3    H228635   6.763   4.749  15.109
 2334TIP3   OH228636   7.040   4.762  15.269
 2334TIP3    H128637   6.966   4.783  15.329
 2334TIP3    H228638   7.085   4.692  15.321
 2335TIP3   OH228639   7.028   4.572  16.180
 2335TIP3    H128640   7.032   4.653  16.233
 2335TIP3    H228641   6.968   4.604  16.110
 2336TIP3   OH228642   6.199   4.823  15.462
 2336TIP3    H128643   6.170   4.785  15.377
 2336TIP3    H228644   6.263   4.755  15.494
 2337TIP3   OH228645   6.332   5.161  15.731
 2337TIP3    H128646   6.332   5.110  15.648
 2337TIP3    H228647   6.411   5.126  15.775
 2338TIP3   OH228648   6.233   4.698  15.828
 2338TIP3    H128649   6.288   4.707  15.747
 2338TIP3    H228650   6.273   4.765  15.888
 2339TIP3   OH228651   6.871   5.256  15.897
 2339TIP3    H128652   6.849   5.319  15.967
 2339TIP3    H228653   6.850   5.170  15.941
 2340TIP3   OH228654   6.329   5.141  16.297
 2340TIP3    H128655   6.287   5.215  16.346
 2340TIP3    H228656   6.262   5.121  16.227
 2341TIP3   OH228657   6.023   4.758  16.211
 2341TIP3    H128658   6.029   4.823  16.283
 2341TIP3    H228659   5.929   4.765  16.191
 2342TIP3   OH228660   6.700   5.350  15.378
 2342TIP3    H128661   6.741   5.378  15.461
 2342TIP3    H228662   6.642   5.425  15.360
 2343TIP3   OH228663   6.154   5.344  16.372
 2343TIP3    H128664   6.147   5.335  16.275
 2343TIP3    H228665   6.061   5.331  16.399
 2344TIP3   OH228666   7.286   3.915  15.062
 2344TIP3    H128667   7.193   3.881  15.055
 2344TIP3    H228668   7.308   3.946  14.974
 2345TIP3   OH228669   6.100   4.726  15.220
 2345TIP3    H128670   6.068   4.805  15.172
 2345TIP3    H228671   6.029   4.662  15.205
 2346TIP3   OH228672   5.706   4.968  16.113
 2346TIP3    H128673   5.662   4.960  16.027
 2346TIP3    H228674   5.715   4.873  16.134
 2347TIP3   OH228675   5.683   5.242  15.790
 2347TIP3    H128676   5.779   5.230  15.787
 2347TIP3    H228677   5.675   5.324  15.841
 2348TIP3   OH228678   6.602   5.267  16.246
 2348TIP3    H128679   6.608   5.350  16.298
 2348TIP3    H228680   6.515   5.230  16.271
 2349TIP3   OH228681   6.648   5.642  15.231
 2349TIP3    H128682   6.641   5.633  15.133
 2349TIP3    H228683   6.650   5.739  15.241
 2350TIP3   OH228684   6.010   5.527  15.408
 2350TIP3    H128685   6.027   5.488  15.497
 2350TIP3    H228686   5.923   5.489  15.390
 2351TIP3   OH228687   6.920   5.555  15.203
 2351TIP3    H128688   6.824   5.563  15.218
 2351TIP3    H228689   6.946   5.482  15.260
 2352TIP3   OH228690   7.185   4.467  16.411
 2352TIP3    H128691   7.171   4.506  16.324
 2352TIP3    H228692   7.230   4.383  16.386
 2353TIP3   OH228693   5.935   5.100  16.207
 2353TIP3    H128694   5.957   5.063  16.295
 2353TIP3    H228695   5.848   5.060  16.185
 2354TIP3   OH228696   6.206   3.947  15.804
 2354TIP3    H128697   6.116   3.933  15.766
 2354TIP3    H228698   6.190   4.031  15.850
 2355TIP3   OH228699   6.667   3.938  16.157
 2355TIP3    H128700   6.710   3.892  16.233
 2355TIP3    H228701   6.569   3.929  16.167
 2356TIP3   OH228702   6.992   4.298  16.225
 2356TIP3    H128703   6.940   4.278  16.306
 2356TIP3    H228704   6.978   4.393  16.207
 2357TIP3   OH228705   6.214   4.445  15.926
 2357TIP3    H128706   6.141   4.444  15.990
 2357TIP3    H228707   6.209   4.536  15.890
 2358TIP3   OH228708   6.209   4.456  15.413
 2358TIP3    H128709   6.114   4.431  15.401
 2358TIP3    H228710   6.247   4.426  15.329
 2359TIP3   OH228711   6.762   4.505  15.287
 2359TIP3    H128712   6.726   4.591  15.257
 2359TIP3    H228713   6.834   4.489  15.224
 2360TIP3   OH228714   6.667   4.527  16.434
 2360TIP3    H128715   6.616   4.448  16.463
 2360TIP3    H228716   6.751   4.516  16.481
 2361TIP3   OH228717   6.865   4.460  15.574
 2361TIP3    H128718   6.837   4.513  15.498
 2361TIP3    H228719   6.873   4.372  15.530
 2362TIP3   OH228720   5.976   4.470  16.096
 2362TIP3    H128721   5.987   4.508  16.186
 2362TIP3    H228722   5.932   4.386  16.116
 2363TIP3   OH228723   5.641   4.181  15.492
 2363TIP3    H128724   5.708   4.177  15.563
 2363TIP3    H228725   5.686   4.143  15.415
 2364TIP3   OH228726   5.770   4.258  15.034
 2364TIP3    H128727   5.821   4.313  14.972
 2364TIP3    H228728   5.699   4.319  15.062
 2365TIP3   OH228729   6.785   4.614  16.029
 2365TIP3    H128730   6.824   4.544  15.972
 2365TIP3    H228731   6.738   4.561  16.097
 2366TIP3   OH228732   6.462   4.207  15.514
 2366TIP3    H128733   6.370   4.213  15.545
 2366TIP3    H228734   6.513   4.196  15.596
 2367TIP3   OH228735   5.945   4.367  15.399
 2367TIP3    H128736   5.855   4.382  15.361
 2367TIP3    H228737   5.973   4.283  15.359
 2368TIP3   OH228738   6.311   4.372  15.162
 2368TIP3    H128739   6.403   4.387  15.185
 2368TIP3    H228740   6.287   4.443  15.102
 2369TIP3   OH228741   6.901   4.130  15.837
 2369TIP3    H128742   6.835   4.143  15.908
 2369TIP3    H228743   6.851   4.115  15.756
 2370TIP3   OH228744   7.222   5.700  16.474
 2370TIP3    H128745   7.253   5.735  16.389
 2370TIP3    H228746   7.295   5.730  16.530
 2371TIP3   OH228747   5.994   4.949  16.428
 2371TIP3    H128748   6.064   4.972  16.491
 2371TIP3    H228749   5.915   4.954  16.486
 2372TIP3   OH228750   6.594   4.487  15.703
 2372TIP3    H128751   6.654   4.434  15.650
 2372TIP3    H228752   6.578   4.432  15.781
 2373TIP3   OH228753   6.095   4.105  15.345
 2373TIP3    H128754   6.061   4.013  15.348
 2373TIP3    H228755   6.173   4.093  15.291
 2374TIP3   OH228756   6.456   4.320  15.947
 2374TIP3    H128757   6.374   4.373  15.955
 2374TIP3    H228758   6.513   4.356  16.017
 2375TIP3   OH228759   7.220   4.868  15.995
 2375TIP3    H128760   7.284   4.887  15.923
 2375TIP3    H228761   7.138   4.866  15.943
 2376TIP3   OH228762   6.666   4.969  16.238
 2376TIP3    H128763   6.629   4.927  16.317
 2376TIP3    H228764   6.642   5.062  16.249
 2377TIP3   OH228765   6.967   4.416  15.093
 2377TIP3    H128766   7.056   4.402  15.132
 2377TIP3    H228767   6.981   4.497  15.041
 2378TIP3   OH228768   6.027   4.883  15.694
 2378TIP3    H128769   6.095   4.874  15.625
 2378TIP3    H228770   6.033   4.797  15.740
 2379TIP3   OH228771   5.725   4.723  16.223
 2379TIP3    H128772   5.745   4.677  16.306
 2379TIP3    H228773   5.665   4.660  16.178
 2380TIP3   OH228774   6.429   4.681  16.436
 2380TIP3    H128775   6.393   4.645  16.353
 2380TIP3    H228776   6.519   4.644  16.438
 2381TIP3   OH228777   6.893   5.211  16.233
 2381TIP3    H128778   6.801   5.230  16.210
 2381TIP3    H228779   6.894   5.240  16.326
 2382TIP3   OH228780   7.279   5.316  15.113
 2382TIP3    H128781   7.256   5.231  15.150
 2382TIP3    H228782   7.320   5.294  15.028
 2383TIP3   OH228783   7.006   4.792  15.824
 2383TIP3    H128784   6.912   4.771  15.809
 2383TIP3    H228785   7.053   4.719  15.780
 2384TIP3   OH228786   6.263   5.228  15.437
 2384TIP3    H128787   6.315   5.307  15.412
 2384TIP3    H228788   6.177   5.252  15.401
 2385TIP3   OH228789   6.409   4.997  15.392
 2385TIP3    H128790   6.374   5.087  15.392
 2385TIP3    H228791   6.334   4.946  15.428
 2386TIP3   OH228792   6.450   5.413  16.026
 2386TIP3    H128793   6.497   5.493  15.997
 2386TIP3    H228794   6.512   5.378  16.093
 2387TIP3   OH228795   6.273   5.488  15.350
 2387TIP3    H128796   6.178   5.509  15.353
 2387TIP3    H228797   6.312   5.575  15.370
 2388TIP3   OH228798   6.804   5.011  15.987
 2388TIP3    H128799   6.771   4.993  16.078
 2388TIP3    H228800   6.867   4.940  15.971
 2389TIP3   OH228801   7.082   5.474  16.236
 2389TIP3    H128802   7.015   5.421  16.188
 2389TIP3    H228803   7.105   5.541  16.168
 2390TIP3   OH228804   5.893   4.195  16.176
 2390TIP3    H128805   5.802   4.231  16.174
 2390TIP3    H228806   5.881   4.111  16.222
 2391TIP3   OH228807   7.119   4.985  15.135
 2391TIP3    H128808   7.093   4.897  15.171
 2391TIP3    H228809   7.215   4.980  15.141
 2392TIP3   OH228810   5.852   5.374  16.018
 2392TIP3    H128811   5.884   5.283  16.018
 2392TIP3    H228812   5.878   5.403  16.106
 2393TIP3   OH228813   5.974   4.903  15.033
 2393TIP3    H128814   5.912   4.942  15.097
 2393TIP3    H228815   6.036   4.975  15.016
 2394TIP3   OH228816   6.765   4.174  16.069
 2394TIP3    H128817   6.836   4.184  16.134
 2394TIP3    H228818   6.726   4.089  16.096
 2395TIP3   OH228819   6.839   4.133  15.176
 2395TIP3    H128820   6.866   4.184  15.099
 2395TIP3    H228821   6.894   4.172  15.245
 2396TIP3   OH228822   6.622   4.408  16.179
 2396TIP3    H128823   6.627   4.464  16.260
 2396TIP3    H228824   6.685   4.336  16.192
 2397TIP3   OH228825   6.642   4.012  15.347
 2397TIP3    H128826   6.614   4.075  15.415
 2397TIP3    H228827   6.716   4.065  15.308
 2398TIP3   OH228828   7.231   4.188  16.257
 2398TIP3    H128829   7.141   4.227  16.252
 2398TIP3    H228830   7.262   4.198  16.167
 2399TIP3   OH228831   7.097   4.574  15.673
 2399TIP3    H128832   7.015   4.533  15.638
 2399TIP3    H228833   7.137   4.499  15.720
 2400TIP3   OH228834   5.870   4.433  14.836
 2400TIP3    H128835   5.870   4.526  14.857
 2400TIP3    H228836   5.781   4.411  14.808
 2401TIP3   OH228837   7.207   5.500  15.834
 2401TIP3    H128838   7.190   5.569  15.767
 2401TIP3    H228839   7.301   5.510  15.853
 2402TIP3   OH228840   5.952   3.911  15.714
 2402TIP3    H128841   5.932   3.913  15.618
 2402TIP3    H228842   5.910   3.827  15.740
 2403TIP3   OH228843   5.838   5.300  15.315
 2403TIP3    H128844   5.760   5.355  15.331
 2403TIP3    H228845   5.899   5.355  15.267
 2404TIP3   OH228846   5.769   5.572  16.459
 2404TIP3    H128847   5.827   5.547  16.533
 2404TIP3    H228848   5.727   5.486  16.439
 2405TIP3   OH228849   6.235   5.459  16.617
 2405TIP3    H128850   6.312   5.412  16.652
 2405TIP3    H228851   6.235   5.430  16.524
 2406TIP3   OH228852   6.887   5.300  16.493
 2406TIP3    H128853   6.856   5.211  16.519
 2406TIP3    H228854   6.964   5.312  16.551
 2407TIP3   OH228855   5.757   4.943  16.557
 2407TIP3    H128856   5.777   4.853  16.525
 2407TIP3    H228857   5.686   4.971  16.497
 2408TIP3   OH228858   6.434   4.946  16.490
 2408TIP3    H128859   6.396   4.977  16.407
 2408TIP3    H228860   6.438   4.848  16.481
 2409TIP3   OH228861   6.997   4.927  16.230
 2409TIP3    H128862   7.076   4.987  16.227
 2409TIP3    H228863   6.930   4.996  16.238
 2410TIP3   OH228864   5.845   4.669  16.494
 2410TIP3    H128865   5.894   4.586  16.485
 2410TIP3    H228866   5.830   4.670  16.591
 2411TIP3   OH228867   6.313   4.777  14.998
 2411TIP3    H128868   6.265   4.731  15.068
 2411TIP3    H228869   6.343   4.711  14.936
 2412TIP3   OH228870   6.244   4.564  16.230
 2412TIP3    H128871   6.181   4.632  16.258
 2412TIP3    H228872   6.280   4.602  16.148
 2413TIP3   OH228873   6.745   4.822  16.576
 2413TIP3    H128874   6.839   4.817  16.550
 2413TIP3    H228875   6.732   4.740  16.626
 2414TIP3   OH228876   6.291   4.300  16.334
 2414TIP3    H128877   6.292   4.229  16.268
 2414TIP3    H228878   6.274   4.381  16.283
 2415TIP3   OH228879   6.323   4.133  16.089
 2415TIP3    H128880   6.371   4.188  16.022
 2415TIP3    H228881   6.232   4.133  16.052
 2416TIP3   OH228882   6.477   4.689  16.114
 2416TIP3    H128883   6.552   4.672  16.057
 2416TIP3    H228884   6.441   4.773  16.081
 2417TIP3   OH228885   6.916   4.463  16.614
 2417TIP3    H128886   6.939   4.370  16.601
 2417TIP3    H228887   7.003   4.505  16.611
 2418TIP3   OH228888   7.044   4.745  16.429
 2418TIP3    H128889   7.023   4.817  16.367
 2418TIP3    H228890   7.140   4.739  16.411
 2419TIP3   OH228891   6.095   4.450  16.460
 2419TIP3    H128892   6.047   4.379  16.510
 2419TIP3    H228893   6.181   4.403  16.467
 2420TIP3   OH228894   6.406   3.879  16.125
 2420TIP3    H128895   6.384   3.976  16.121
 2420TIP3    H228896   6.324   3.847  16.082
 2421TIP3   OH228897   6.527   4.315  16.494
 2421TIP3    H128898   6.496   4.287  16.582
 2421TIP3    H228899   6.449   4.297  16.439
 2422TIP3   OH228900   6.798   4.229  16.402
 2422TIP3    H128901   6.702   4.235  16.417
 2422TIP3    H228902   6.829   4.167  16.471
 2423TIP3   OH228903   6.963   4.092  16.595
 2423TIP3    H128904   6.950   3.995  16.596
 2423TIP3    H228905   6.931   4.122  16.684
 2424TIP3   OH228906   5.929   4.217  16.500
 2424TIP3    H128907   5.962   4.144  16.445
 2424TIP3    H228908   5.933   4.181  16.592
 2425TIP3   OH228909   6.418   3.816  16.395
 2425TIP3    H128910   6.488   3.748  16.403
 2425TIP3    H228911   6.410   3.835  16.301
 2426TIP3   OH228912   6.476   3.955  16.599
 2426TIP3    H128913   6.441   3.917  16.517
 2426TIP3    H228914   6.420   4.036  16.603
 2427TIP3   OH228915   5.638   5.671  15.374
 2427TIP3    H128916   5.567   5.625  15.324
 2427TIP3    H228917   5.665   5.606  15.441
 2428TIP3   OH228918   5.721   5.481  15.560
 2428TIP3    H128919   5.685   5.396  15.587
 2428TIP3    H228920   5.743   5.518  15.647
 2429TIP3   OH228921   7.256   5.109  16.600
 2429TIP3    H128922   7.181   5.091  16.659
 2429TIP3    H228923   7.310   5.169  16.655
 2430TIP3   OH228924   7.273   5.288  16.078
 2430TIP3    H128925   7.208   5.333  16.132
 2430TIP3    H228926   7.220   5.255  16.002
 2431TIP3   OH228927   7.326   4.439  14.843
 2431TIP3    H128928   7.303   4.513  14.780
 2431TIP3    H228929   7.290   4.367  14.790
 2432TIP3   OH228930   7.193   4.589  15.409
 2432TIP3    H128931   7.202   4.493  15.410
 2432TIP3    H228932   7.187   4.609  15.505
 2433TIP3   OH228933   5.726   4.792  15.810
 2433TIP3    H128934   5.744   4.784  15.714
 2433TIP3    H228935   5.816   4.774  15.845
 2434TIP3   OH228936  -0.040   4.782  16.400
 2434TIP3    H128937   0.019   4.705  16.401
 2434TIP3    H228938   0.015   4.855  16.369
 2435TIP3   OH228939   7.191   4.338  15.242
 2435TIP3    H128940   7.219   4.249  15.273
 2435TIP3    H228941   7.271   4.372  15.202
 2436TIP3   OH228942   7.216   4.344  15.789
 2436TIP3    H128943   7.310   4.357  15.771
 2436TIP3    H228944   7.217   4.395  15.872
 2437TIP3   OH228945   7.261   4.469  16.084
 2437TIP3    H128946   7.171   4.499  16.106
 2437TIP3    H228947   7.302   4.547  16.042
 2438TIP3   OH228948   5.686   4.321  16.421
 2438TIP3    H128949   5.781   4.302  16.443
 2438TIP3    H228950   5.644   4.239  16.455
 2439TIP3   OH228951   7.179   4.048  15.306
 2439TIP3    H128952   7.268   4.026  15.338
 2439TIP3    H228953   7.179   3.997  15.222
 2440TIP3   OH228954   5.808   4.151  15.710
 2440TIP3    H128955   5.854   4.069  15.736
 2440TIP3    H228956   5.863   4.221  15.748
 2441TIP3   OH228957   5.636   4.451  15.814
 2441TIP3    H128958   5.693   4.426  15.738
 2441TIP3    H228959   5.683   4.532  15.841
 2442TIP3   OH228960   5.670   4.081  15.223
 2442TIP3    H128961   5.577   4.098  15.207
 2442TIP3    H228962   5.714   4.126  15.149
 2443TIP3   OH228963   7.133   5.561  15.423
 2443TIP3    H128964   7.196   5.526  15.358
 2443TIP3    H228965   7.187   5.620  15.478
 2444TIP3   OH228966   5.667   3.942  16.050
 2444TIP3    H128967   5.601   3.923  16.119
 2444TIP3    H228968   5.622   4.010  15.996
 2445TIP3   OH228969   5.892   5.265  16.468
 2445TIP3    H128970   5.808   5.284  16.425
 2445TIP3    H228971   5.865   5.257  16.560
 2446TIP3   OH228972   6.181   5.364  16.097
 2446TIP3    H128973   6.149   5.450  16.068
 2446TIP3    H228974   6.274   5.371  16.065
 2447TIP3   OH228975   6.613   5.507  16.385
 2447TIP3    H128976   6.626   5.471  16.476
 2447TIP3    H228977   6.704   5.536  16.362
 2448TIP3   OH228978   6.845   5.633  16.316
 2448TIP3    H128979   6.919   5.575  16.293
 2448TIP3    H228980   6.881   5.677  16.396
 2449TIP3   OH228981   5.926   5.690  16.096
 2449TIP3    H128982   5.851   5.736  16.053
 2449TIP3    H228983   5.892   5.666  16.183
 2450TIP3   OH228984   6.171   5.644  16.001
 2450TIP3    H128985   6.082   5.661  16.041
 2450TIP3    H228986   6.166   5.703  15.924
 2451TIP3   OH228987   6.642   5.635  15.919
 2451TIP3    H128988   6.596   5.691  15.854
 2451TIP3    H228989   6.655   5.699  15.993
 2452TIP3   OH228990   6.872   5.516  16.021
 2452TIP3    H128991   6.786   5.543  15.985
 2452TIP3    H228992   6.917   5.601  16.014
 2453TIP3   OH228993   7.125   5.678  16.045
 2453TIP3    H128994   7.118   5.773  16.021
 2453TIP3    H228995   7.152   5.638  15.960
 2454TIP3   OH228996   5.870   5.551  15.789
 2454TIP3    H128997   5.862   5.505  15.875
 2454TIP3    H228998   5.952   5.513  15.750
 2455TIP3   OH228999   6.077   5.422  15.654
 2455TIP3    H129000   6.062   5.329  15.678
 2455TIP3    H229001   6.163   5.439  15.698
 2456TIP3   OH229002   6.336   5.472  15.743
 2456TIP3    H129003   6.353   5.380  15.715
 2456TIP3    H229004   6.343   5.465  15.839
 2457TIP3   OH229005   6.685   4.036  15.656
 2457TIP3    H129006   6.615   3.974  15.679
 2457TIP3    H229007   6.740   3.984  15.596
 2458TIP3   OH229008   7.199   3.840  15.664
 2458TIP3    H129009   7.253   3.904  15.615
 2458TIP3    H229010   7.109   3.874  15.643
 2459TIP3   OH229011   5.922   3.899  15.440
 2459TIP3    H129012   5.841   3.880  15.389
 2459TIP3    H229013   5.967   3.812  15.434
 2460TIP3   OH229014   5.799   3.875  15.024
 2460TIP3    H129015   5.842   3.933  14.958
 2460TIP3    H229016   5.737   3.935  15.066
 2461TIP3   OH229017   6.365   3.888  15.420
 2461TIP3    H129018   6.455   3.927  15.411
 2461TIP3    H229019   6.363   3.869  15.514
 2462TIP3   OH229020   6.944   3.890  15.580
 2462TIP3    H129021   6.936   3.906  15.485
 2462TIP3    H229022   6.901   3.802  15.592
 2463TIP3   OH229023   7.051   3.885  15.142
 2463TIP3    H129024   6.985   3.955  15.133
 2463TIP3    H229025   7.003   3.805  15.172
 2464TIP3   OH229026   6.680   5.589  14.949
 2464TIP3    H129027   6.763   5.633  14.924
 2464TIP3    H229028   6.650   5.558  14.863
 2465TIP3   OH229029   5.910   3.951  16.383
 2465TIP3    H129030   5.870   3.874  16.427
 2465TIP3    H229031   6.000   3.950  16.424
 2466TIP3   OH229032   6.108   3.889  16.544
 2466TIP3    H129033   6.198   3.857  16.527
 2466TIP3    H229034   6.072   3.813  16.593
 2467TIP3   OH229035   6.946   3.823  16.558
 2467TIP3    H129036   6.956   3.776  16.643
 2467TIP3    H229037   7.039   3.817  16.528
 2468TIP3   OH229038   7.260   5.420  16.441
 2468TIP3    H129039   7.192   5.407  16.372
 2468TIP3    H229040   7.254   5.519  16.448
 2469TIP3   OH229041   1.173   6.698  15.425
 2469TIP3    H129042   1.170   6.796  15.421
 2469TIP3    H229043   1.099   6.675  15.367
 2470TIP3   OH229044   1.061   6.623  15.775
 2470TIP3    H129045   1.056   6.560  15.848
 2470TIP3    H229046   1.023   6.573  15.701
 2471TIP3   OH229047   0.301   6.586  15.925
 2471TIP3    H129048   0.300   6.524  16.001
 2471TIP3    H229049   0.367   6.651  15.954
 2472TIP3   OH229050   1.431   6.913  15.608
 2472TIP3    H129051   1.380   6.848  15.655
 2472TIP3    H229052   1.429   6.989  15.669
 2473TIP3   OH229053   0.384   7.032  15.788
 2473TIP3    H129054   0.353   6.947  15.751
 2473TIP3    H229055   0.480   7.018  15.785
 2474TIP3   OH229056   0.068   6.392  15.304
 2474TIP3    H129057   0.017   6.473  15.324
 2474TIP3    H229058  -0.001   6.334  15.271
 2475TIP3   OH229059   0.118   6.610  15.540
 2475TIP3    H129060   0.147   6.533  15.591
 2475TIP3    H229061   0.191   6.625  15.479
 2476TIP3   OH229062   0.894   6.860  15.825
 2476TIP3    H129063   0.928   6.800  15.757
 2476TIP3    H229064   0.976   6.880  15.874
 2477TIP3   OH229065   1.752   6.032  15.894
 2477TIP3    H129066   1.773   6.087  15.973
 2477TIP3    H229067   1.814   6.071  15.830
 2478TIP3   OH229068   1.211   6.310  15.855
 2478TIP3    H129069   1.229   6.215  15.856
 2478TIP3    H229070   1.200   6.323  15.759
 2479TIP3   OH229071   0.522   6.122  15.580
 2479TIP3    H129072   0.534   6.201  15.522
 2479TIP3    H229073   0.485   6.063  15.509
 2480TIP3   OH229074   1.295   6.126  15.414
 2480TIP3    H129075   1.361   6.094  15.479
 2480TIP3    H229076   1.350   6.182  15.357
 2481TIP3   OH229077   0.189   6.361  15.638
 2481TIP3    H129078   0.248   6.305  15.689
 2481TIP3    H229079   0.201   6.326  15.549
 2482TIP3   OH229080   0.697   6.513  15.587
 2482TIP3    H129081   0.772   6.459  15.618
 2482TIP3    H229082   0.652   6.451  15.526
 2483TIP3   OH229083   1.799   6.169  16.124
 2483TIP3    H129084   1.738   6.246  16.113
 2483TIP3    H229085   1.803   6.162  16.220
 2484TIP3   OH229086   0.419   6.020  15.978
 2484TIP3    H129087   0.372   6.062  15.903
 2484TIP3    H229088   0.348   6.029  16.048
 2485TIP3   OH229089   1.143   6.957  15.334
 2485TIP3    H129090   1.112   6.933  15.245
 2485TIP3    H229091   1.114   7.050  15.341
 2486TIP3   OH229092   0.668   6.773  16.005
 2486TIP3    H129093   0.595   6.836  16.026
 2486TIP3    H229094   0.737   6.834  15.975
 2487TIP3   OH229095   1.479   6.065  15.612
 2487TIP3    H129096   1.456   5.987  15.664
 2487TIP3    H229097   1.547   6.105  15.669
 2488TIP3   OH229098   0.360   6.185  15.780
 2488TIP3    H129099   0.388   6.277  15.800
 2488TIP3    H229100   0.407   6.157  15.696
 2489TIP3   OH229101   0.510   6.972  16.085
 2489TIP3    H129102   0.504   7.063  16.051
 2489TIP3    H229103   0.420   6.967  16.126
 2490TIP3   OH229104   0.116   6.942  15.166
 2490TIP3    H129105   0.096   6.964  15.072
 2490TIP3    H229106   0.127   7.024  15.215
 2491TIP3   OH229107   1.481   7.106  15.845
 2491TIP3    H129108   1.383   7.110  15.853
 2491TIP3    H229109   1.507   7.196  15.819
 2492TIP3   OH229110   1.511   5.930  15.980
 2492TIP3    H129111   1.439   5.994  15.970
 2492TIP3    H229112   1.583   5.972  15.928
 2493TIP3   OH229113   0.807   5.745  15.728
 2493TIP3    H129114   0.795   5.648  15.719
 2493TIP3    H229115   0.718   5.772  15.758
 2494TIP3   OH229116   1.309   7.258  15.493
 2494TIP3    H129117   1.357   7.195  15.437
 2494TIP3    H229118   1.345   7.341  15.460
 2495TIP3   OH229119   1.431   7.070  15.349
 2495TIP3    H129120   1.395   7.003  15.290
 2495TIP3    H229121   1.430   7.024  15.435
 2496TIP3   OH229122   1.587   6.934  16.200
 2496TIP3    H129123   1.602   6.867  16.130
 2496TIP3    H229124   1.611   7.017  16.156
 2497TIP3   OH229125   1.040   6.619  15.176
 2497TIP3    H129126   0.973   6.683  15.143
 2497TIP3    H229127   1.111   6.632  15.109
 2498TIP3   OH229128   1.774   6.562  16.001
 2498TIP3    H129129   1.711   6.637  16.011
 2498TIP3    H229130   1.830   6.591  15.927
 2499TIP3   OH229131   1.384   6.642  15.268
 2499TIP3    H129132   1.309   6.669  15.328
 2499TIP3    H229133   1.429   6.577  15.323
 2500TIP3   OH229134   1.376   6.460  16.182
 2500TIP3    H129135   1.376   6.542  16.233
 2500TIP3    H229136   1.313   6.488  16.112
 2501TIP3   OH229137   0.546   6.710  15.463
 2501TIP3    H129138   0.512   6.672  15.379
 2501TIP3    H229139   0.607   6.641  15.495
 2502TIP3   OH229140   0.677   7.044  15.727
 2502TIP3    H129141   0.677   6.992  15.647
 2502TIP3    H229142   0.755   7.011  15.776
 2503TIP3   OH229143   0.577   6.584  15.825
 2503TIP3    H129144   0.633   6.597  15.745
 2503TIP3    H229145   0.614   6.651  15.887
 2504TIP3   OH229146   1.217   7.141  15.898
 2504TIP3    H129147   1.185   7.205  15.960
 2504TIP3    H229148   1.191   7.056  15.940
 2505TIP3   OH229149   0.673   7.030  16.297
 2505TIP3    H129150   0.629   7.102  16.347
 2505TIP3    H229151   0.606   7.007  16.228
 2506TIP3   OH229152   1.269   6.562  15.036
 2506TIP3    H129153   1.323   6.580  15.116
 2506TIP3    H229154   1.311   6.614  14.967
 2507TIP3   OH229155   0.370   6.644  16.216
 2507TIP3    H129156   0.373   6.714  16.284
 2507TIP3    H229157   0.277   6.650  16.190
 2508TIP3   OH229158   1.038   7.234  15.387
 2508TIP3    H129159   1.091   7.266  15.461
 2508TIP3    H229160   0.988   7.311  15.357
 2509TIP3   OH229161   0.495   7.233  16.368
 2509TIP3    H129162   0.487   7.219  16.271
 2509TIP3    H229163   0.403   7.216  16.397
 2510TIP3   OH229164   1.640   5.737  15.030
 2510TIP3    H129165   1.545   5.750  15.051
 2510TIP3    H229166   1.663   5.818  14.982
 2511TIP3   OH229167   0.447   6.610  15.221
 2511TIP3    H129168   0.415   6.689  15.174
 2511TIP3    H229169   0.374   6.548  15.204
 2512TIP3   OH229170   0.093   6.846  16.091
 2512TIP3    H129171   0.021   6.850  16.026
 2512TIP3    H229172   0.066   6.761  16.131
 2513TIP3   OH229173   0.044   7.147  15.772
 2513TIP3    H129174   0.131   7.113  15.794
 2513TIP3    H229175   0.027   7.206  15.846
 2514TIP3   OH229176   1.848   7.198  16.365
 2514TIP3    H129177   1.835   7.102  16.356
 2514TIP3    H229178   1.759   7.225  16.399
 2515TIP3   OH229179   0.942   7.157  16.240
 2515TIP3    H129180   0.955   7.232  16.298
 2515TIP3    H229181   0.859   7.115  16.272
 2516TIP3   OH229182   1.564   6.345  16.404
 2516TIP3    H129183   1.515   6.390  16.333
 2516TIP3    H229184   1.562   6.252  16.376
 2517TIP3   OH229185   0.281   6.992  16.211
 2517TIP3    H129186   0.296   6.950  16.298
 2517TIP3    H229187   0.197   6.949  16.181
 2518TIP3   OH229188   0.548   5.838  15.797
 2518TIP3    H129189   0.457   5.819  15.764
 2518TIP3    H229190   0.530   5.911  15.856
 2519TIP3   OH229191   1.011   5.800  16.137
 2519TIP3    H129192   1.050   5.757  16.216
 2519TIP3    H229193   0.914   5.788  16.152
 2520TIP3   OH229194   1.340   6.185  16.226
 2520TIP3    H129195   1.283   6.163  16.305
 2520TIP3    H229196   1.321   6.278  16.205
 2521TIP3   OH229197   0.567   6.356  15.952
 2521TIP3    H129198   0.484   6.348  16.005
 2521TIP3    H229199   0.551   6.441  15.903
 2522TIP3   OH229200   0.554   6.337  15.420
 2522TIP3    H129201   0.459   6.320  15.399
 2522TIP3    H229202   0.592   6.315  15.332
 2523TIP3   OH229203   1.100   6.388  15.283
 2523TIP3    H129204   1.067   6.477  15.257
 2523TIP3    H229205   1.176   6.377  15.224
 2524TIP3   OH229206   1.010   6.413  16.433
 2524TIP3    H129207   0.958   6.335  16.464
 2524TIP3    H229208   1.094   6.402  16.481
 2525TIP3   OH229209   1.212   6.343  15.573
 2525TIP3    H129210   1.177   6.397  15.500
 2525TIP3    H229211   1.216   6.256  15.529
 2526TIP3   OH229212   0.322   6.351  16.095
 2526TIP3    H129213   0.324   6.397  16.180
 2526TIP3    H229214   0.271   6.271  16.117
 2527TIP3   OH229215   0.009   6.089  15.483
 2527TIP3    H129216   0.054   6.057  15.563
 2527TIP3    H229217   0.034   6.026  15.414
 2528TIP3   OH229218   0.172   6.157  15.076
 2528TIP3    H129219   0.176   6.207  14.994
 2528TIP3    H229220   0.076   6.180  15.086
 2529TIP3   OH229221   1.133   6.500  16.032
 2529TIP3    H129222   1.166   6.431  15.971
 2529TIP3    H229223   1.082   6.448  16.097
 2530TIP3   OH229224   0.808   6.102  15.516
 2530TIP3    H129225   0.715   6.096  15.541
 2530TIP3    H229226   0.858   6.078  15.595
 2531TIP3   OH229227   0.298   6.251  15.402
 2531TIP3    H129228   0.210   6.272  15.364
 2531TIP3    H229229   0.317   6.167  15.355
 2532TIP3   OH229230   0.640   6.266  15.178
 2532TIP3    H129231   0.738   6.261  15.190
 2532TIP3    H229232   0.628   6.327  15.105
 2533TIP3   OH229233   1.248   6.021  15.838
 2533TIP3    H129234   1.180   6.026  15.908
 2533TIP3    H229235   1.198   5.995  15.759
 2534TIP3   OH229236   0.339   6.832  16.427
 2534TIP3    H129237   0.408   6.856  16.492
 2534TIP3    H229238   0.261   6.845  16.485
 2535TIP3   OH229239   0.927   6.367  15.701
 2535TIP3    H129240   0.994   6.322  15.649
 2535TIP3    H229241   0.927   6.319  15.784
 2536TIP3   OH229242   0.441   5.989  15.349
 2536TIP3    H129243   0.405   5.898  15.344
 2536TIP3    H229244   0.518   5.980  15.291
 2537TIP3   OH229245   0.792   6.205  15.946
 2537TIP3    H129246   0.723   6.270  15.967
 2537TIP3    H229247   0.859   6.236  16.012
 2538TIP3   OH229248   0.861   6.824  15.119
 2538TIP3    H129249   0.779   6.786  15.080
 2538TIP3    H229250   0.835   6.845  15.211
 2539TIP3   OH229251   1.580   6.745  15.991
 2539TIP3    H129252   1.634   6.801  15.932
 2539TIP3    H229253   1.492   6.755  15.951
 2540TIP3   OH229254   1.240   6.109  14.930
 2540TIP3    H129255   1.148   6.127  14.916
 2540TIP3    H229256   1.276   6.194  14.964
 2541TIP3   OH229257   1.008   6.859  16.239
 2541TIP3    H129258   0.973   6.812  16.316
 2541TIP3    H229259   0.983   6.951  16.251
 2542TIP3   OH229260   1.317   6.300  15.099
 2542TIP3    H129261   1.406   6.289  15.137
 2542TIP3    H229262   1.323   6.382  15.047
 2543TIP3   OH229263   0.372   6.770  15.694
 2543TIP3    H129264   0.438   6.761  15.623
 2543TIP3    H229265   0.377   6.684  15.740
 2544TIP3   OH229266   1.074   6.976  15.029
 2544TIP3    H129267   1.034   7.062  15.048
 2544TIP3    H229268   0.996   6.917  15.036
 2545TIP3   OH229269   0.093   6.586  16.193
 2545TIP3    H129270   0.101   6.563  16.288
 2545TIP3    H229271   0.008   6.545  16.172
 2546TIP3   OH229272   0.770   6.564  16.438
 2546TIP3    H129273   0.738   6.533  16.353
 2546TIP3    H229274   0.863   6.531  16.436
 2547TIP3   OH229275   1.238   7.107  16.228
 2547TIP3    H129276   1.143   7.113  16.210
 2547TIP3    H229277   1.235   7.124  16.325
 2548TIP3   OH229278   1.801   6.317  15.075
 2548TIP3    H129279   1.748   6.285  15.001
 2548TIP3    H229280   1.817   6.409  15.044
 2549TIP3   OH229281   1.806   6.900  16.352
 2549TIP3    H129282   1.716   6.924  16.318
 2549TIP3    H229283   1.859   6.897  16.270
 2550TIP3   OH229284   1.651   7.181  15.123
 2550TIP3    H129285   1.594   7.108  15.148
 2550TIP3    H229286   1.655   7.185  15.028
 2551TIP3   OH229287   1.356   6.680  15.822
 2551TIP3    H129288   1.261   6.660  15.812
 2551TIP3    H229289   1.396   6.602  15.781
 2552TIP3   OH229290   0.612   7.108  15.422
 2552TIP3    H129291   0.655   7.195  15.413
 2552TIP3    H229292   0.521   7.132  15.404
 2553TIP3   OH229293   0.752   6.877  15.385
 2553TIP3    H129294   0.722   6.970  15.395
 2553TIP3    H229295   0.677   6.832  15.429
 2554TIP3   OH229296   0.811   7.273  16.005
 2554TIP3    H129297   0.835   7.366  15.994
 2554TIP3    H229298   0.857   7.254  16.088
 2555TIP3   OH229299   0.617   0.031  15.357
 2555TIP3    H129300   0.522   0.043  15.359
 2555TIP3    H229301   0.652   0.115  15.388
 2556TIP3   OH229302   1.147   6.897  15.989
 2556TIP3    H129303   1.113   6.876  16.078
 2556TIP3    H229304   1.210   6.825  15.971
 2557TIP3   OH229305   1.380   6.997  14.899
 2557TIP3    H129306   1.406   6.954  14.982
 2557TIP3    H229307   1.283   6.993  14.905
 2558TIP3   OH229308   1.424   7.348  16.236
 2558TIP3    H129309   1.354   7.302  16.190
 2558TIP3    H229310   1.441   7.424  16.179
 2559TIP3   OH229311   0.233   6.077  16.165
 2559TIP3    H129312   0.145   6.117  16.178
 2559TIP3    H229313   0.223   5.998  16.221
 2560TIP3   OH229314   1.458   6.868  15.124
 2560TIP3    H129315   1.432   6.789  15.176
 2560TIP3    H229316   1.553   6.873  15.142
 2561TIP3   OH229317   0.206   7.259  16.013
 2561TIP3    H129318   0.225   7.165  16.019
 2561TIP3    H229319   0.212   7.290  16.104
 2562TIP3   OH229320   0.829   6.999  14.780
 2562TIP3    H129321   0.804   7.029  14.691
 2562TIP3    H229322   0.766   7.055  14.830
 2563TIP3   OH229323   0.662   7.063  14.991
 2563TIP3    H129324   0.695   7.010  15.064
 2563TIP3    H229325   0.680   7.153  15.021
 2564TIP3   OH229326   1.106   6.059  16.072
 2564TIP3    H129327   1.179   6.065  16.136
 2564TIP3    H229328   1.070   5.971  16.093
 2565TIP3   OH229329   1.185   6.015  15.182
 2565TIP3    H129330   1.208   6.063  15.100
 2565TIP3    H229331   1.238   6.062  15.248
 2566TIP3   OH229332   0.971   7.235  15.074
 2566TIP3    H129333   0.878   7.266  15.069
 2566TIP3    H229334   1.004   7.276  14.994
 2567TIP3   OH229335   0.899   6.198  15.258
 2567TIP3    H129336   0.983   6.247  15.267
 2567TIP3    H229337   0.878   6.172  15.350
 2568TIP3   OH229338   0.958   6.292  16.180
 2568TIP3    H129339   0.966   6.349  16.260
 2568TIP3    H229340   1.027   6.225  16.191
 2569TIP3   OH229341   0.991   5.897  15.354
 2569TIP3    H129342   0.955   5.963  15.414
 2569TIP3    H229343   1.057   5.952  15.306
 2570TIP3   OH229344   0.723  -0.052  15.105
 2570TIP3    H129345   0.726   0.024  15.041
 2570TIP3    H229346   0.665  -0.007  15.168
 2571TIP3   OH229347   0.549   6.011  15.029
 2571TIP3    H129348   0.548   6.099  15.067
 2571TIP3    H229349   0.639   5.979  15.046
 2572TIP3   OH229350   1.578   6.081  16.265
 2572TIP3    H129351   1.485   6.112  16.253
 2572TIP3    H229352   1.608   6.078  16.173
 2573TIP3   OH229353   1.443   6.458  15.664
 2573TIP3    H129354   1.356   6.417  15.640
 2573TIP3    H229355   1.484   6.388  15.720
 2574TIP3   OH229356   0.229   6.346  14.811
 2574TIP3    H129357   0.215   6.423  14.867
 2574TIP3    H229358   0.137   6.315  14.826
 2575TIP3   OH229359   0.294   5.799  15.714
 2575TIP3    H129360   0.276   5.797  15.617
 2575TIP3    H229361   0.254   5.712  15.740
 2576TIP3   OH229362   0.200   7.183  15.344
 2576TIP3    H129363   0.112   7.222  15.329
 2576TIP3    H229364   0.236   7.229  15.266
 2577TIP3   OH229365   0.595   7.315  16.636
 2577TIP3    H129366   0.684   7.282  16.652
 2577TIP3    H229367   0.586   7.301  16.540
 2578TIP3   OH229368   1.077   7.295  14.762
 2578TIP3    H129369   0.982   7.270  14.775
 2578TIP3    H229370   1.101   7.215  14.718
 2579TIP3   OH229371   1.231   7.168  16.484
 2579TIP3    H129372   1.195   7.087  16.525
 2579TIP3    H229373   1.303   7.191  16.546
 2580TIP3   OH229374   1.454   7.234  14.758
 2580TIP3    H129375   1.483   7.184  14.835
 2580TIP3    H229376   1.528   7.287  14.727
 2581TIP3   OH229377   0.117   6.830  16.556
 2581TIP3    H129378   0.120   6.737  16.527
 2581TIP3    H229379   0.035   6.863  16.514
 2582TIP3   OH229380   0.776   6.828  16.492
 2582TIP3    H129381   0.739   6.860  16.407
 2582TIP3    H229382   0.781   6.730  16.481
 2583TIP3   OH229383   1.343   6.816  16.235
 2583TIP3    H129384   1.422   6.874  16.228
 2583TIP3    H229385   1.273   6.882  16.238
 2584TIP3   OH229386   0.187   6.552  16.495
 2584TIP3    H129387   0.237   6.469  16.487
 2584TIP3    H229388   0.176   6.557  16.591
 2585TIP3   OH229389   0.669   6.662  15.007
 2585TIP3    H129390   0.604   6.619  15.064
 2585TIP3    H229391   0.679   6.602  14.933
 2586TIP3   OH229392   0.582   6.448  16.231
 2586TIP3    H129393   0.524   6.521  16.259
 2586TIP3    H229394   0.623   6.486  16.151
 2587TIP3   OH229395   1.092   6.706  16.573
 2587TIP3    H129396   1.186   6.702  16.552
 2587TIP3    H229397   1.075   6.627  16.625
 2588TIP3   OH229398   0.626   6.188  16.334
 2588TIP3    H129399   0.637   6.116  16.270
 2588TIP3    H229400   0.618   6.270  16.282
 2589TIP3   OH229401   0.664   6.026  16.092
 2589TIP3    H129402   0.719   6.069  16.023
 2589TIP3    H229403   0.575   6.014  16.054
 2590TIP3   OH229404   0.817   6.572  16.114
 2590TIP3    H129405   0.895   6.559  16.059
 2590TIP3    H229406   0.782   6.657  16.083
 2591TIP3   OH229407   1.258   6.347  16.611
 2591TIP3    H129408   1.280   6.253  16.604
 2591TIP3    H229409   1.345   6.390  16.613
 2592TIP3   OH229410   1.393   6.629  16.431
 2592TIP3    H129411   1.367   6.700  16.368
 2592TIP3    H229412   1.488   6.624  16.409
 2593TIP3   OH229413   0.469   6.311  16.531
 2593TIP3    H129414   0.391   6.255  16.510
 2593TIP3    H229415   0.533   6.277  16.466
 2594TIP3   OH229416   0.743   5.768  16.131
 2594TIP3    H129417   0.726   5.865  16.122
 2594TIP3    H229418   0.669   5.730  16.081
 2595TIP3   OH229419   0.871   6.201  16.495
 2595TIP3    H129420   0.838   6.179  16.584
 2595TIP3    H229421   0.794   6.182  16.439
 2596TIP3   OH229422   1.142   6.115  16.400
 2596TIP3    H129423   1.046   6.121  16.414
 2596TIP3    H229424   1.170   6.052  16.470
 2597TIP3   OH229425   1.298   5.978  16.592
 2597TIP3    H129426   1.296   5.880  16.596
 2597TIP3    H229427   1.275   6.007  16.683
 2598TIP3   OH229428   0.286   6.105  16.504
 2598TIP3    H129429   0.305   6.030  16.445
 2598TIP3    H229430   0.271   6.060  16.591
 2599TIP3   OH229431   0.765   5.707  16.400
 2599TIP3    H129432   0.834   5.637  16.398
 2599TIP3    H229433   0.754   5.722  16.305
 2600TIP3   OH229434   0.800   5.867  16.611
 2600TIP3    H129435   0.783   5.818  16.527
 2600TIP3    H229436   0.743   5.946  16.600
 2601TIP3   OH229437   0.133   6.968  14.903
 2601TIP3    H129438   0.209   7.027  14.896
 2601TIP3    H229439   0.106   6.962  14.810
 2602TIP3   OH229440   0.068   7.365  15.552
 2602TIP3    H129441   0.026   7.280  15.577
 2602TIP3    H229442   0.083   7.399  15.642
 2603TIP3   OH229443   1.622   6.978  16.618
 2603TIP3    H129444   1.530   6.979  16.653
 2603TIP3    H229445   1.658   7.061  16.657
 2604TIP3   OH229446   1.753   6.809  15.157
 2604TIP3    H129447   1.835   6.854  15.177
 2604TIP3    H229448   1.751   6.740  15.227
 2605TIP3   OH229449   1.786   6.624  15.346
 2605TIP3    H129450   1.710   6.571  15.379
 2605TIP3    H229451   1.851   6.636  15.419
 2606TIP3   OH229452   1.762   6.889  15.843
 2606TIP3    H129453   1.846   6.856  15.809
 2606TIP3    H229454   1.775   6.986  15.831
 2607TIP3   OH229455   1.615   7.184  16.076
 2607TIP3    H129456   1.548   7.220  16.135
 2607TIP3    H229457   1.562   7.142  16.005
 2608TIP3   OH229458   1.821   6.607  14.987
 2608TIP3    H129459   1.762   6.632  14.913
 2608TIP3    H229460   1.807   6.679  15.050
 2609TIP3   OH229461   1.579   6.467  15.414
 2609TIP3    H129462   1.552   6.375  15.396
 2609TIP3    H229463   1.521   6.488  15.489
 2610TIP3   OH229464   0.067   6.676  15.809
 2610TIP3    H129465   0.086   6.672  15.712
 2610TIP3    H229466   0.157   6.663  15.846
 2611TIP3   OH229467   1.655   6.666  16.375
 2611TIP3    H129468   1.716   6.590  16.385
 2611TIP3    H229469   1.716   6.743  16.373
 2612TIP3   OH229470   1.805   6.454  16.438
 2612TIP3    H129471   1.717   6.413  16.422
 2612TIP3    H229472   1.862   6.376  16.431
 2613TIP3   OH229473   1.575   6.076  14.752
 2613TIP3    H129474   1.637   6.033  14.813
 2613TIP3    H229475   1.492   6.032  14.770
 2614TIP3   OH229476   1.540   6.228  15.259
 2614TIP3    H129477   1.565   6.132  15.261
 2614TIP3    H229478   1.615   6.264  15.210
 2615TIP3   OH229479   1.601   6.287  15.793
 2615TIP3    H129480   1.699   6.300  15.797
 2615TIP3    H229481   1.580   6.293  15.888
 2616TIP3   OH229482   1.606   6.354  16.068
 2616TIP3    H129483   1.519   6.382  16.105
 2616TIP3    H229484   1.650   6.441  16.052
 2617TIP3   OH229485   0.052   6.200  16.426
 2617TIP3    H129486   0.142   6.176  16.452
 2617TIP3    H229487  -0.005   6.128  16.461
 2618TIP3   OH229488   1.835   5.760  16.605
 2618TIP3    H129489   1.870   5.693  16.545
 2618TIP3    H229490   1.844   5.842  16.552
 2619TIP3   OH229491   1.602   5.955  15.252
 2619TIP3    H129492   1.624   5.913  15.338
 2619TIP3    H229493   1.541   5.890  15.210
 2620TIP3   OH229494   0.143   6.029  15.713
 2620TIP3    H129495   0.198   5.950  15.735
 2620TIP3    H229496   0.198   6.101  15.748
 2621TIP3   OH229497   0.054   6.387  15.855
 2621TIP3    H129498   0.056   6.353  15.763
 2621TIP3    H229499   0.028   6.477  15.833
 2622TIP3   OH229500   1.785   5.971  16.442
 2622TIP3    H129501   1.691   5.997  16.439
 2622TIP3    H229502   1.788   5.915  16.362
 2623TIP3   OH229503   1.784   5.960  14.908
 2623TIP3    H129504   1.827   5.888  14.859
 2623TIP3    H229505   1.853   6.027  14.913
 2624TIP3   OH229506   7.395   5.958  15.193
 2624TIP3    H129507   7.300   5.985  15.198
 2624TIP3    H229508   7.427   6.029  15.136
 2625TIP3   OH229509   7.371   5.824  16.063
 2625TIP3    H129510   7.296   5.804  16.121
 2625TIP3    H229511   7.320   5.881  16.003
 2626TIP3   OH229512   0.235   7.154  16.468
 2626TIP3    H129513   0.150   7.170  16.426
 2626TIP3    H229514   0.208   7.140  16.559
 2627TIP3   OH229515   0.533   7.250  16.103
 2627TIP3    H129516   0.482   7.323  16.063
 2627TIP3    H229517   0.617   7.252  16.056
 2628TIP3   OH229518   1.688   5.779  16.227
 2628TIP3    H129519   1.605   5.809  16.186
 2628TIP3    H229520   1.704   5.697  16.175
 2629TIP3   OH229521   0.418   7.294  15.632
 2629TIP3    H129522   0.398   7.209  15.674
 2629TIP3    H229523   0.493   7.319  15.692
 2630TIP3   OH229524   0.634   7.300  15.763
 2630TIP3    H129525   0.697   7.242  15.718
 2630TIP3    H229526   0.681   7.340  15.836
 2631TIP3   OH229527   1.024   5.923  15.656
 2631TIP3    H129528   0.959   5.856  15.681
 2631TIP3    H229529   1.081   5.870  15.597
 2632TIP3   OH229530   1.540   5.726  15.662
 2632TIP3    H129531   1.601   5.785  15.611
 2632TIP3    H229532   1.452   5.762  15.639
 2633TIP3   OH229533   1.707   5.853  15.489
 2633TIP3    H129534   1.775   5.794  15.449
 2633TIP3    H229535   1.757   5.937  15.501
 2634TIP3   OH229536   0.262   5.783  15.443
 2634TIP3    H129537   0.186   5.763  15.384
 2634TIP3    H229538   0.313   5.701  15.431
 2635TIP3   OH229539   0.141   5.760  15.013
 2635TIP3    H129540   0.190   5.823  14.957
 2635TIP3    H229541   0.085   5.815  15.070
 2636TIP3   OH229542   0.709   5.777  15.420
 2636TIP3    H129543   0.799   5.813  15.409
 2636TIP3    H229544   0.709   5.753  15.512
 2637TIP3   OH229545   1.282   5.779  15.580
 2637TIP3    H129546   1.276   5.790  15.484
 2637TIP3    H229547   1.245   5.688  15.593
 2638TIP3   OH229548   1.407   5.783  15.148
 2638TIP3    H129549   1.333   5.843  15.135
 2638TIP3    H229550   1.364   5.697  15.171
 2639TIP3   OH229551   0.153  -0.011  15.158
 2639TIP3    H129552   0.102  -0.031  15.075
 2639TIP3    H229553   0.154   0.084  15.167
 2640TIP3   OH229554   0.336   5.950  14.866
 2640TIP3    H129555   0.388   5.888  14.813
 2640TIP3    H229556   0.401   5.978  14.934
 2641TIP3   OH229557   0.245   5.842  16.391
 2641TIP3    H129558   0.211   5.757  16.425
 2641TIP3    H229559   0.338   5.835  16.422
 2642TIP3   OH229560   0.452   5.778  16.551
 2642TIP3    H129561   0.540   5.742  16.526
 2642TIP3    H229562   0.412   5.698  16.591
 2643TIP3   OH229563   1.292   5.706  16.565
 2643TIP3    H129564   1.302   5.658  16.649
 2643TIP3    H229565   1.383   5.703  16.529
 2644TIP3   OH229566   1.602   7.303  16.445
 2644TIP3    H129567   1.536   7.295  16.374
 2644TIP3    H229568   1.615   7.399  16.444
 2645TIP3   OH229569   3.057   6.697  15.425
 2645TIP3    H129570   3.055   6.796  15.420
 2645TIP3    H229571   2.985   6.675  15.364
 2646TIP3   OH229572   2.944   6.623  15.775
 2646TIP3    H129573   2.942   6.559  15.847
 2646TIP3    H229574   2.908   6.573  15.700
 2647TIP3   OH229575   2.176   6.592  15.931
 2647TIP3    H129576   2.187   6.523  16.000
 2647TIP3    H229577   2.252   6.648  15.952
 2648TIP3   OH229578   3.312   6.917  15.605
 2648TIP3    H129579   3.269   6.846  15.654
 2648TIP3    H229580   3.315   6.989  15.671
 2649TIP3   OH229581   2.276   7.037  15.786
 2649TIP3    H129582   2.241   6.952  15.751
 2649TIP3    H229583   2.370   7.015  15.786
 2650TIP3   OH229584   1.932   6.392  15.329
 2650TIP3    H129585   1.895   6.481  15.319
 2650TIP3    H229586   1.879   6.338  15.269
 2651TIP3   OH229587   2.002   6.611  15.543
 2651TIP3    H129588   2.040   6.532  15.590
 2651TIP3    H229589   2.075   6.627  15.480
 2652TIP3   OH229590   2.779   6.859  15.824
 2652TIP3    H129591   2.814   6.800  15.756
 2652TIP3    H229592   2.861   6.881  15.873
 2653TIP3   OH229593   3.640   6.030  15.895
 2653TIP3    H129594   3.658   6.089  15.972
 2653TIP3    H229595   3.698   6.072  15.829
 2654TIP3   OH229596   3.098   6.311  15.855
 2654TIP3    H129597   3.115   6.215  15.855
 2654TIP3    H229598   3.088   6.325  15.759
 2655TIP3   OH229599   2.406   6.118  15.576
 2655TIP3    H129600   2.421   6.203  15.528
 2655TIP3    H229601   2.369   6.063  15.504
 2656TIP3   OH229602   3.182   6.129  15.414
 2656TIP3    H129603   3.248   6.096  15.480
 2656TIP3    H229604   3.239   6.184  15.358
 2657TIP3   OH229605   2.069   6.360  15.649
 2657TIP3    H129606   2.138   6.308  15.695
 2657TIP3    H229607   2.085   6.328  15.558
 2658TIP3   OH229608   2.580   6.514  15.596
 2658TIP3    H129609   2.656   6.458  15.618
 2658TIP3    H229610   2.540   6.457  15.526
 2659TIP3   OH229611   3.684   6.170  16.123
 2659TIP3    H129612   3.624   6.247  16.112
 2659TIP3    H229613   3.688   6.163  16.220
 2660TIP3   OH229614   2.300   6.010  15.980
 2660TIP3    H129615   2.272   6.067  15.905
 2660TIP3    H229616   2.233   6.032  16.048
 2661TIP3   OH229617   3.030   6.957  15.335
 2661TIP3    H129618   2.999   6.931  15.246
 2661TIP3    H229619   3.003   7.051  15.337
 2662TIP3   OH229620   2.552   6.772  16.005
 2662TIP3    H129621   2.481   6.836  16.025
 2662TIP3    H229622   2.622   6.832  15.975
 2663TIP3   OH229623   3.363   6.064  15.613
 2663TIP3    H129624   3.342   5.986  15.665
 2663TIP3    H229625   3.431   6.106  15.668
 2664TIP3   OH229626   2.257   6.195  15.784
 2664TIP3    H129627   2.320   6.264  15.815
 2664TIP3    H229628   2.308   6.154  15.710
 2665TIP3   OH229629   2.395   6.973  16.089
 2665TIP3    H129630   2.392   7.060  16.046
 2665TIP3    H229631   2.305   6.965  16.127
 2666TIP3   OH229632   3.366   7.105  15.846
 2666TIP3    H129633   3.269   7.110  15.853
 2666TIP3    H229634   3.392   7.195  15.819
 2667TIP3   OH229635   3.397   5.930  15.980
 2667TIP3    H129636   3.325   5.994  15.970
 2667TIP3    H229637   3.469   5.972  15.928
 2668TIP3   OH229638   2.693   5.743  15.727
 2668TIP3    H129639   2.679   5.647  15.719
 2668TIP3    H229640   2.606   5.774  15.757
 2669TIP3   OH229641   3.193   7.258  15.492
 2669TIP3    H129642   3.241   7.194  15.437
 2669TIP3    H229643   3.231   7.340  15.459
 2670TIP3   OH229644   3.318   7.071  15.351
 2670TIP3    H129645   3.282   7.005  15.288
 2670TIP3    H229646   3.314   7.021  15.434
 2671TIP3   OH229647   3.473   6.934  16.201
 2671TIP3    H129648   3.487   6.867  16.130
 2671TIP3    H229649   3.498   7.017  16.156
 2672TIP3   OH229650   2.932   6.624  15.175
 2672TIP3    H129651   2.854   6.678  15.145
 2672TIP3    H229652   2.994   6.644  15.105
 2673TIP3   OH229653   2.930   6.467  14.886
 2673TIP3    H129654   3.005   6.482  14.942
 2673TIP3    H229655   2.967   6.414  14.816
 2674TIP3   OH229656   3.663   6.564  16.005
 2674TIP3    H129657   3.597   6.637  16.009
 2674TIP3    H229658   3.712   6.588  15.925
 2675TIP3   OH229659   3.269   6.642  15.270
 2675TIP3    H129660   3.192   6.667  15.326
 2675TIP3    H229661   3.316   6.576  15.324
 2676TIP3   OH229662   3.261   6.460  16.182
 2676TIP3    H129663   3.262   6.542  16.233
 2676TIP3    H229664   3.198   6.489  16.112
 2677TIP3   OH229665   2.424   6.709  15.463
 2677TIP3    H129666   2.402   6.671  15.374
 2677TIP3    H229667   2.492   6.642  15.491
 2678TIP3   OH229668   2.565   7.046  15.726
 2678TIP3    H129669   2.563   6.991  15.647
 2678TIP3    H229670   2.641   7.011  15.776
 2679TIP3   OH229671   2.461   6.584  15.831
 2679TIP3    H129672   2.515   6.591  15.748
 2679TIP3    H229673   2.503   6.651  15.889
 2680TIP3   OH229674   3.103   7.141  15.897
 2680TIP3    H129675   3.071   7.205  15.960
 2680TIP3    H229676   3.077   7.055  15.939
 2681TIP3   OH229677   2.560   7.033  16.295
 2681TIP3    H129678   2.516   7.098  16.352
 2681TIP3    H229679   2.492   7.004  16.228
 2682TIP3   OH229680   2.252   6.644  16.212
 2682TIP3    H129681   2.258   6.710  16.283
 2682TIP3    H229682   2.158   6.650  16.192
 2683TIP3   OH229683   2.917   7.232  15.394
 2683TIP3    H129684   2.977   7.267  15.459
 2683TIP3    H229685   2.875   7.309  15.355
 2684TIP3   OH229686   2.379   7.226  16.375
 2684TIP3    H129687   2.383   7.187  16.287
 2684TIP3    H229688   2.290   7.202  16.409
 2685TIP3   OH229689   2.320   6.612  15.226
 2685TIP3    H129690   2.301   6.689  15.168
 2685TIP3    H229691   2.258   6.545  15.199
 2686TIP3   OH229692   1.935   6.855  16.114
 2686TIP3    H129693   1.891   6.847  16.028
 2686TIP3    H229694   1.944   6.760  16.135
 2687TIP3   OH229695   1.913   7.131  15.787
 2687TIP3    H129696   2.009   7.118  15.784
 2687TIP3    H229697   1.904   7.209  15.843
 2688TIP3   OH229698   3.731   7.198  16.365
 2688TIP3    H129699   3.721   7.102  16.356
 2688TIP3    H229700   3.644   7.224  16.400
 2689TIP3   OH229701   2.825   7.159  16.239
 2689TIP3    H129702   2.842   7.231  16.300
 2689TIP3    H229703   2.746   7.114  16.274
 2690TIP3   OH229704   3.449   6.345  16.404
 2690TIP3    H129705   3.401   6.390  16.333
 2690TIP3    H229706   3.448   6.252  16.375
 2691TIP3   OH229707   2.163   6.991  16.211
 2691TIP3    H129708   2.186   6.946  16.296
 2691TIP3    H229709   2.080   6.945  16.184
 2692TIP3   OH229710   2.432   5.834  15.801
 2692TIP3    H129711   2.342   5.820  15.765
 2692TIP3    H229712   2.419   5.917  15.850
 2693TIP3   OH229713   2.897   5.799  16.137
 2693TIP3    H129714   2.936   5.757  16.216
 2693TIP3    H229715   2.799   5.788  16.152
 2694TIP3   OH229716   3.225   6.185  16.226
 2694TIP3    H129717   3.169   6.163  16.305
 2694TIP3    H229718   3.207   6.278  16.205
 2695TIP3   OH229719   2.443   6.331  15.929
 2695TIP3    H129720   2.368   6.330  15.991
 2695TIP3    H229721   2.438   6.421  15.890
 2696TIP3   OH229722   2.432   6.328  15.421
 2696TIP3    H129723   2.340   6.315  15.396
 2696TIP3    H229724   2.477   6.322  15.334
 2697TIP3   OH229725   2.989   6.389  15.288
 2697TIP3    H129726   2.947   6.473  15.258
 2697TIP3    H229727   3.060   6.378  15.223
 2698TIP3   OH229728   2.896   6.414  16.433
 2698TIP3    H129729   2.844   6.335  16.464
 2698TIP3    H229730   2.979   6.402  16.482
 2699TIP3   OH229731   3.097   6.343  15.574
 2699TIP3    H129732   3.064   6.398  15.501
 2699TIP3    H229733   3.103   6.257  15.528
 2700TIP3   OH229734   2.204   6.355  16.094
 2700TIP3    H129735   2.213   6.396  16.182
 2700TIP3    H229736   2.161   6.271  16.117
 2701TIP3   OH229737   1.871   6.069  15.493
 2701TIP3    H129738   1.939   6.060  15.563
 2701TIP3    H229739   1.914   6.028  15.415
 2702TIP3   OH229740   1.997   6.142  15.028
 2702TIP3    H129741   2.044   6.208  14.977
 2702TIP3    H229742   1.926   6.201  15.063
 2703TIP3   OH229743   3.013   6.500  16.030
 2703TIP3    H129744   3.052   6.431  15.972
 2703TIP3    H229745   2.966   6.447  16.097
 2704TIP3   OH229746   2.693   6.094  15.514
 2704TIP3    H129747   2.600   6.101  15.544
 2704TIP3    H229748   2.742   6.082  15.596
 2705TIP3   OH229749   2.169   6.252  15.403
 2705TIP3    H129750   2.083   6.265  15.360
 2705TIP3    H229751   2.206   6.171  15.363
 2706TIP3   OH229752   2.538   6.250  15.153
 2706TIP3    H129753   2.627   6.272  15.188
 2706TIP3    H229754   2.517   6.331  15.105
 2707TIP3   OH229755   3.134   6.022  15.838
 2707TIP3    H129756   3.065   6.026  15.908
 2707TIP3    H229757   3.084   5.995  15.760
 2708TIP3   OH229758   2.223   6.839  16.427
 2708TIP3    H129759   2.293   6.854  16.493
 2708TIP3    H229760   2.144   6.839  16.485
 2709TIP3   OH229761   2.824   6.374  15.706
 2709TIP3    H129762   2.881   6.321  15.649
 2709TIP3    H229763   2.806   6.317  15.781
 2710TIP3   OH229764   2.322   5.991  15.338
 2710TIP3    H129765   2.294   5.899  15.349
 2710TIP3    H229766   2.406   5.984  15.291
 2711TIP3   OH229767   2.686   6.205  15.946
 2711TIP3    H129768   2.604   6.258  15.953
 2711TIP3    H229769   2.742   6.242  16.017
 2712TIP3   OH229770   2.745   6.828  15.116
 2712TIP3    H129771   2.667   6.781  15.082
 2712TIP3    H229772   2.722   6.840  15.209
 2713TIP3   OH229773   3.465   6.748  15.994
 2713TIP3    H129774   3.520   6.799  15.932
 2713TIP3    H229775   3.378   6.753  15.949
 2714TIP3   OH229776   3.131   6.110  14.931
 2714TIP3    H129777   3.036   6.120  14.919
 2714TIP3    H229778   3.160   6.197  14.964
 2715TIP3   OH229779   2.893   6.858  16.238
 2715TIP3    H129780   2.859   6.812  16.315
 2715TIP3    H229781   2.869   6.950  16.251
 2716TIP3   OH229782   3.200   6.308  15.102
 2716TIP3    H129783   3.290   6.289  15.138
 2716TIP3    H229784   3.216   6.382  15.042
 2717TIP3   OH229785   2.255   6.766  15.694
 2717TIP3    H129786   2.324   6.759  15.625
 2717TIP3    H229787   2.265   6.682  15.742
 2718TIP3   OH229788   1.955   6.608  16.221
 2718TIP3    H129789   1.972   6.564  16.306
 2718TIP3    H229790   1.893   6.546  16.179
 2719TIP3   OH229791   2.656   6.562  16.439
 2719TIP3    H129792   2.624   6.532  16.352
 2719TIP3    H229793   2.749   6.531  16.437
 2720TIP3   OH229794   3.123   7.107  16.228
 2720TIP3    H129795   3.029   7.113  16.211
 2720TIP3    H229796   3.120   7.124  16.325
 2721TIP3   OH229797   3.686   6.317  15.075
 2721TIP3    H129798   3.635   6.287  15.000
 2721TIP3    H229799   3.703   6.411  15.048
 2722TIP3   OH229800   3.691   6.900  16.352
 2722TIP3    H129801   3.601   6.923  16.318
 2722TIP3    H229802   3.745   6.897  16.270
 2723TIP3   OH229803   3.542   7.176  15.122
 2723TIP3    H129804   3.477   7.108  15.146
 2723TIP3    H229805   3.540   7.181  15.026
 2724TIP3   OH229806   3.241   6.680  15.824
 2724TIP3    H129807   3.147   6.659  15.812
 2724TIP3    H229808   3.284   6.604  15.779
 2725TIP3   OH229809   2.494   7.110  15.425
 2725TIP3    H129810   2.542   7.191  15.408
 2725TIP3    H229811   2.404   7.135  15.403
 2726TIP3   OH229812   2.074   6.595  14.890
 2726TIP3    H129813   2.130   6.667  14.924
 2726TIP3    H229814   1.984   6.622  14.914
 2727TIP3   OH229815   2.640   6.883  15.392
 2727TIP3    H129816   2.603   6.973  15.392
 2727TIP3    H229817   2.565   6.830  15.427
 2728TIP3   OH229818   2.691   7.276  16.008
 2728TIP3    H129819   2.724   7.366  15.991
 2728TIP3    H229820   2.745   7.252  16.086
 2729TIP3   OH229821   2.469   0.026  15.305
 2729TIP3    H129822   2.386   0.041  15.351
 2729TIP3    H229823   2.524   0.093  15.353
 2730TIP3   OH229824   3.033   6.898  15.989
 2730TIP3    H129825   2.998   6.875  16.078
 2730TIP3    H229826   3.095   6.825  15.970
 2731TIP3   OH229827   3.311   7.348  16.236
 2731TIP3    H129828   3.239   7.302  16.190
 2731TIP3    H229829   3.326   7.425  16.179
 2732TIP3   OH229830   2.120   6.082  16.177
 2732TIP3    H129831   2.029   6.117  16.174
 2732TIP3    H229832   2.109   5.997  16.222
 2733TIP3   OH229833   3.343   6.870  15.131
 2733TIP3    H129834   3.317   6.785  15.171
 2733TIP3    H229835   3.438   6.871  15.140
 2734TIP3   OH229836   2.090   7.258  16.018
 2734TIP3    H129837   2.107   7.163  16.019
 2734TIP3    H229838   2.089   7.286  16.109
 2735TIP3   OH229839   2.549   7.065  14.994
 2735TIP3    H129840   2.588   7.012  15.064
 2735TIP3    H229841   2.566   7.157  15.020
 2736TIP3   OH229842   2.206   6.788  15.042
 2736TIP3    H129843   2.141   6.832  15.096
 2736TIP3    H229844   2.264   6.860  15.008
 2737TIP3   OH229845   2.993   6.059  16.072
 2737TIP3    H129846   3.065   6.065  16.136
 2737TIP3    H229847   2.955   5.971  16.093
 2738TIP3   OH229848   3.070   6.017  15.181
 2738TIP3    H129849   3.091   6.065  15.099
 2738TIP3    H229850   3.125   6.061  15.247
 2739TIP3   OH229851   2.793   6.188  15.259
 2739TIP3    H129852   2.866   6.252  15.266
 2739TIP3    H229853   2.762   6.182  15.352
 2740TIP3   OH229854   2.847   6.294  16.182
 2740TIP3    H129855   2.854   6.349  16.262
 2740TIP3    H229856   2.912   6.224  16.191
 2741TIP3   OH229857   2.874   5.897  15.353
 2741TIP3    H129858   2.841   5.964  15.415
 2741TIP3    H229859   2.943   5.950  15.305
 2742TIP3   OH229860   2.578   0.000  15.059
 2742TIP3    H129861   2.589   0.084  15.013
 2742TIP3    H229862   2.548   0.025  15.149
 2743TIP3   OH229863   3.463   6.081  16.266
 2743TIP3    H129864   3.371   6.112  16.253
 2743TIP3    H229865   3.494   6.078  16.173
 2744TIP3   OH229866   3.325   6.459  15.668
 2744TIP3    H129867   3.243   6.415  15.638
 2744TIP3    H229868   3.373   6.390  15.718
 2745TIP3   OH229869   2.180   5.797  15.714
 2745TIP3    H129870   2.161   5.799  15.618
 2745TIP3    H229871   2.139   5.711  15.739
 2746TIP3   OH229872   2.085   7.187  15.339
 2746TIP3    H129873   1.995   7.225  15.330
 2746TIP3    H229874   2.123   7.235  15.264
 2747TIP3   OH229875   2.484   7.316  16.637
 2747TIP3    H129876   2.572   7.281  16.654
 2747TIP3    H229877   2.475   7.302  16.541
 2748TIP3   OH229878   3.117   7.167  16.484
 2748TIP3    H129879   3.080   7.087  16.525
 2748TIP3    H229880   3.188   7.191  16.545
 2749TIP3   OH229881   3.334   7.277  14.787
 2749TIP3    H129882   3.358   7.190  14.823
 2749TIP3    H229883   3.402   7.292  14.721
 2750TIP3   OH229884   1.986   6.830  16.556
 2750TIP3    H129885   2.004   6.740  16.524
 2750TIP3    H229886   1.915   6.860  16.497
 2751TIP3   OH229887   2.662   6.828  16.492
 2751TIP3    H129888   2.625   6.859  16.407
 2751TIP3    H229889   2.667   6.730  16.482
 2752TIP3   OH229890   3.228   6.815  16.235
 2752TIP3    H129891   3.307   6.873  16.228
 2752TIP3    H229892   3.159   6.882  16.239
 2753TIP3   OH229893   2.081   6.557  16.495
 2753TIP3    H129894   2.121   6.470  16.487
 2753TIP3    H229895   2.057   6.557  16.590
 2754TIP3   OH229896   2.543   6.667  14.999
 2754TIP3    H129897   2.505   6.614  15.071
 2754TIP3    H229898   2.570   6.598  14.937
 2755TIP3   OH229899   2.469   6.449  16.230
 2755TIP3    H129900   2.410   6.521  16.256
 2755TIP3    H229901   2.509   6.485  16.150
 2756TIP3   OH229902   2.977   6.706  16.573
 2756TIP3    H129903   3.072   6.701  16.552
 2756TIP3    H229904   2.960   6.626  16.626
 2757TIP3   OH229905   2.511   6.188  16.334
 2757TIP3    H129906   2.522   6.116  16.269
 2757TIP3    H229907   2.506   6.269  16.279
 2758TIP3   OH229908   2.551   6.024  16.092
 2758TIP3    H129909   2.601   6.071  16.021
 2758TIP3    H229910   2.461   6.017  16.051
 2759TIP3   OH229911   2.704   6.574  16.116
 2759TIP3    H129912   2.779   6.557  16.058
 2759TIP3    H229913   2.667   6.657  16.082
 2760TIP3   OH229914   3.144   6.347  16.611
 2760TIP3    H129915   3.166   6.253  16.604
 2760TIP3    H229916   3.231   6.390  16.613
 2761TIP3   OH229917   3.279   6.629  16.431
 2761TIP3    H129918   3.253   6.700  16.368
 2761TIP3    H229919   3.374   6.624  16.409
 2762TIP3   OH229920   2.358   6.310  16.531
 2762TIP3    H129921   2.280   6.255  16.511
 2762TIP3    H229922   2.421   6.275  16.464
 2763TIP3   OH229923   2.628   5.767  16.132
 2763TIP3    H129924   2.611   5.864  16.121
 2763TIP3    H229925   2.554   5.731  16.080
 2764TIP3   OH229926   2.757   6.201  16.495
 2764TIP3    H129927   2.724   6.179  16.584
 2764TIP3    H229928   2.679   6.182  16.439
 2765TIP3   OH229929   3.028   6.115  16.400
 2765TIP3    H129930   2.932   6.121  16.414
 2765TIP3    H229931   3.055   6.052  16.470
 2766TIP3   OH229932   3.183   5.978  16.592
 2766TIP3    H129933   3.182   5.880  16.596
 2766TIP3    H229934   3.160   6.007  16.683
 2767TIP3   OH229935   2.165   6.106  16.503
 2767TIP3    H129936   2.189   6.031  16.446
 2767TIP3    H229937   2.156   6.062  16.591
 2768TIP3   OH229938   2.651   5.707  16.400
 2768TIP3    H129939   2.719   5.637  16.398
 2768TIP3    H229940   2.640   5.722  16.305
 2769TIP3   OH229941   2.685   5.868  16.611
 2769TIP3    H129942   2.669   5.818  16.527
 2769TIP3    H229943   2.628   5.946  16.600
 2770TIP3   OH229944   1.939   7.367  15.559
 2770TIP3    H129945   1.908   7.279  15.583
 2770TIP3    H229946   1.968   7.402  15.644
 2771TIP3   OH229947   3.507   6.978  16.618
 2771TIP3    H129948   3.416   6.979  16.653
 2771TIP3    H229949   3.544   7.061  16.657
 2772TIP3   OH229950   3.637   6.808  15.157
 2772TIP3    H129951   3.721   6.852  15.178
 2772TIP3    H229952   3.636   6.740  15.228
 2773TIP3   OH229953   3.674   6.623  15.347
 2773TIP3    H129954   3.598   6.572  15.383
 2773TIP3    H229955   3.733   6.634  15.424
 2774TIP3   OH229956   3.648   6.892  15.848
 2774TIP3    H129957   3.729   6.854  15.808
 2774TIP3    H229958   3.662   6.986  15.829
 2775TIP3   OH229959   3.500   7.184  16.075
 2775TIP3    H129960   3.433   7.219  16.135
 2775TIP3    H229961   3.447   7.141  16.005
 2776TIP3   OH229962   3.703   6.609  14.985
 2776TIP3    H129963   3.639   6.637  14.918
 2776TIP3    H229964   3.691   6.678  15.053
 2777TIP3   OH229965   3.456   6.468  15.405
 2777TIP3    H129966   3.439   6.373  15.400
 2777TIP3    H229967   3.421   6.490  15.493
 2778TIP3   OH229968   1.955   6.673  15.807
 2778TIP3    H129969   1.981   6.672  15.713
 2778TIP3    H229970   2.044   6.661  15.847
 2779TIP3   OH229971   3.541   6.666  16.375
 2779TIP3    H129972   3.602   6.590  16.385
 2779TIP3    H229973   3.602   6.743  16.373
 2780TIP3   OH229974   3.690   6.454  16.438
 2780TIP3    H129975   3.602   6.413  16.422
 2780TIP3    H229976   3.748   6.376  16.431
 2781TIP3   OH229977   3.420   6.225  15.246
 2781TIP3    H129978   3.451   6.133  15.264
 2781TIP3    H229979   3.501   6.268  15.215
 2782TIP3   OH229980   3.485   6.281  15.794
 2782TIP3    H129981   3.581   6.305  15.792
 2782TIP3    H229982   3.467   6.296  15.888
 2783TIP3   OH229983   3.492   6.354  16.071
 2783TIP3    H129984   3.404   6.382  16.104
 2783TIP3    H229985   3.535   6.440  16.050
 2784TIP3   OH229986   1.918   6.207  16.424
 2784TIP3    H129987   2.011   6.186  16.445
 2784TIP3    H229988   1.871   6.125  16.453
 2785TIP3   OH229989   3.721   5.760  16.605
 2785TIP3    H129990   3.755   5.692  16.545
 2785TIP3    H229991   3.729   5.841  16.552
 2786TIP3   OH229992   3.491   5.952  15.248
 2786TIP3    H129993   3.509   5.913  15.336
 2786TIP3    H229994   3.423   5.892  15.212
 2787TIP3   OH229995   2.037   6.037  15.711
 2787TIP3    H129996   2.082   5.954  15.735
 2787TIP3    H229997   2.094   6.105  15.749
 2788TIP3   OH229998   1.859   6.346  15.805
 2788TIP3    H129999   1.925   6.309  15.741
 2788TIP3    H230000   1.916   6.414  15.845
 2789TIP3   OH230001   3.671   5.970  16.442
 2789TIP3    H130002   3.577   5.997  16.439
 2789TIP3    H230003   3.674   5.915  16.362
 2790TIP3   OH230004   1.902   5.968  15.226
 2790TIP3    H130005   1.807   5.979  15.208
 2790TIP3    H230006   1.942   6.010  15.149
 2791TIP3   OH230007   1.896   5.829  16.050
 2791TIP3    H130008   1.830   5.809  16.118
 2791TIP3    H230009   1.850   5.896  15.996
 2792TIP3   OH230010   2.120   7.156  16.464
 2792TIP3    H130011   2.032   7.169  16.425
 2792TIP3    H230012   2.096   7.137  16.557
 2793TIP3   OH230013   2.420   7.244  16.079
 2793TIP3    H130014   2.381   7.318  16.031
 2793TIP3    H230015   2.514   7.247  16.050
 2794TIP3   OH230016   3.573   5.779  16.227
 2794TIP3    H130017   3.491   5.809  16.186
 2794TIP3    H230018   3.590   5.697  16.176
 2795TIP3   OH230019   2.301   7.297  15.637
 2795TIP3    H130020   2.287   7.207  15.672
 2795TIP3    H230021   2.379   7.319  15.693
 2796TIP3   OH230022   2.520   7.299  15.763
 2796TIP3    H130023   2.582   7.240  15.718
 2796TIP3    H230024   2.568   7.340  15.835
 2797TIP3   OH230025   2.912   5.921  15.656
 2797TIP3    H130026   2.844   5.858  15.684
 2797TIP3    H230027   2.967   5.868  15.597
 2798TIP3   OH230028   3.425   5.726  15.661
 2798TIP3    H130029   3.487   5.786  15.612
 2798TIP3    H230030   3.338   5.762  15.637
 2799TIP3   OH230031   3.591   5.853  15.490
 2799TIP3    H130032   3.660   5.794  15.451
 2799TIP3    H230033   3.643   5.935  15.503
 2800TIP3   OH230034   2.151   5.785  15.439
 2800TIP3    H130035   2.068   5.765  15.390
 2800TIP3    H230036   2.195   5.697  15.434
 2801TIP3   OH230037   2.596   5.774  15.420
 2801TIP3    H130038   2.685   5.812  15.410
 2801TIP3    H230039   2.594   5.756  15.514
 2802TIP3   OH230040   3.167   5.779  15.581
 2802TIP3    H130041   3.163   5.789  15.485
 2802TIP3    H230042   3.130   5.688  15.593
 2803TIP3   OH230043   3.294   5.778  15.139
 2803TIP3    H130044   3.221   5.843  15.138
 2803TIP3    H230045   3.249   5.698  15.174
 2804TIP3   OH230046   1.999  -0.006  15.147
 2804TIP3    H130047   1.954   0.000  15.061
 2804TIP3    H230048   2.026   0.086  15.157
 2805TIP3   OH230049   2.705   5.977  15.107
 2805TIP3    H130050   2.737   5.920  15.177
 2805TIP3    H230051   2.717   6.065  15.150
 2806TIP3   OH230052   2.137   5.837  16.385
 2806TIP3    H130053   2.098   5.758  16.426
 2806TIP3    H230054   2.228   5.834  16.423
 2807TIP3   OH230055   2.337   5.778  16.551
 2807TIP3    H130056   2.425   5.744  16.526
 2807TIP3    H230057   2.300   5.697  16.591
 2808TIP3   OH230058   3.178   5.706  16.565
 2808TIP3    H130059   3.189   5.658  16.650
 2808TIP3    H230060   3.270   5.703  16.529
 2809TIP3   OH230061   3.487   7.303  16.446
 2809TIP3    H130062   3.422   7.295  16.374
 2809TIP3    H230063   3.501   7.399  16.444
 2810TIP3   OH230064   4.943   6.696  15.424
 2810TIP3    H130065   4.943   6.794  15.424
 2810TIP3    H230066   4.869   6.677  15.366
 2811TIP3   OH230067   4.829   6.623  15.775
 2811TIP3    H130068   4.828   6.559  15.847
 2811TIP3    H230069   4.793   6.573  15.700
 2812TIP3   OH230070   4.064   6.592  15.931
 2812TIP3    H130071   4.073   6.523  16.000
 2812TIP3    H230072   4.139   6.648  15.953
 2813TIP3   OH230073   5.197   6.916  15.605
 2813TIP3    H130074   5.155   6.846  15.655
 2813TIP3    H230075   5.201   6.989  15.670
 2814TIP3   OH230076   4.161   7.036  15.783
 2814TIP3    H130077   4.127   6.950  15.751
 2814TIP3    H230078   4.255   7.016  15.788
 2815TIP3   OH230079   3.818   6.391  15.334
 2815TIP3    H130080   3.780   6.480  15.324
 2815TIP3    H230081   3.766   6.339  15.271
 2816TIP3   OH230082   3.893   6.614  15.545
 2816TIP3    H130083   3.920   6.532  15.590
 2816TIP3    H230084   3.962   6.625  15.478
 2817TIP3   OH230085   4.665   6.860  15.825
 2817TIP3    H130086   4.699   6.801  15.756
 2817TIP3    H230087   4.747   6.880  15.874
 2818TIP3   OH230088   5.526   6.030  15.895
 2818TIP3    H130089   5.544   6.088  15.972
 2818TIP3    H230090   5.583   6.072  15.829
 2819TIP3   OH230091   4.983   6.311  15.855
 2819TIP3    H130092   5.000   6.215  15.855
 2819TIP3    H230093   4.973   6.324  15.758
 2820TIP3   OH230094   4.294   6.119  15.576
 2820TIP3    H130095   4.306   6.202  15.527
 2820TIP3    H230096   4.255   6.062  15.506
 2821TIP3   OH230097   5.066   6.127  15.420
 2821TIP3    H130098   5.135   6.096  15.482
 2821TIP3    H230099   5.117   6.181  15.357
 2822TIP3   OH230100   3.957   6.361  15.650
 2822TIP3    H130101   4.024   6.307  15.695
 2822TIP3    H230102   3.968   6.329  15.559
 2823TIP3   OH230103   4.472   6.516  15.583
 2823TIP3    H130104   4.541   6.458  15.620
 2823TIP3    H230105   4.422   6.451  15.529
 2824TIP3   OH230106   5.569   6.170  16.122
 2824TIP3    H130107   5.509   6.248  16.111
 2824TIP3    H230108   5.572   6.163  16.219
 2825TIP3   OH230109   4.186   6.009  15.980
 2825TIP3    H130110   4.157   6.067  15.905
 2825TIP3    H230111   4.118   6.032  16.048
 2826TIP3   OH230112   4.918   6.958  15.336
 2826TIP3    H130113   4.887   6.934  15.249
 2826TIP3    H230114   4.886   7.050  15.341
 2827TIP3   OH230115   4.437   6.773  16.004
 2827TIP3    H130116   4.366   6.837  16.026
 2827TIP3    H230117   4.507   6.832  15.974
 2828TIP3   OH230118   5.249   6.062  15.611
 2828TIP3    H130119   5.228   5.986  15.666
 2828TIP3    H230120   5.316   6.106  15.665
 2829TIP3   OH230121   4.143   6.195  15.783
 2829TIP3    H130122   4.205   6.264  15.815
 2829TIP3    H230123   4.194   6.155  15.709
 2830TIP3   OH230124   4.282   6.973  16.087
 2830TIP3    H130125   4.277   7.064  16.051
 2830TIP3    H230126   4.193   6.967  16.128
 2831TIP3   OH230127   3.884   6.940  15.168
 2831TIP3    H130128   3.862   6.969  15.078
 2831TIP3    H230129   3.899   7.023  15.218
 2832TIP3   OH230130   5.252   7.106  15.845
 2832TIP3    H130131   5.154   7.110  15.853
 2832TIP3    H230132   5.278   7.196  15.819
 2833TIP3   OH230133   5.283   5.930  15.980
 2833TIP3    H130134   5.210   5.994  15.970
 2833TIP3    H230135   5.354   5.972  15.927
 2834TIP3   OH230136   4.579   5.742  15.724
 2834TIP3    H130137   4.564   5.646  15.720
 2834TIP3    H230138   4.492   5.774  15.756
 2835TIP3   OH230139   5.077   7.260  15.492
 2835TIP3    H130140   5.127   7.195  15.440
 2835TIP3    H230141   5.118   7.340  15.460
 2836TIP3   OH230142   5.200   7.070  15.353
 2836TIP3    H130143   5.171   7.004  15.287
 2836TIP3    H230144   5.200   7.021  15.437
 2837TIP3   OH230145   5.359   6.934  16.201
 2837TIP3    H130146   5.373   6.867  16.131
 2837TIP3    H230147   5.383   7.017  16.156
 2838TIP3   OH230148   4.806   6.621  15.177
 2838TIP3    H130149   4.738   6.680  15.145
 2838TIP3    H230150   4.881   6.629  15.114
 2839TIP3   OH230151   5.548   6.564  16.005
 2839TIP3    H130152   5.482   6.637  16.009
 2839TIP3    H230153   5.598   6.588  15.925
 2840TIP3   OH230154   5.158   6.644  15.272
 2840TIP3    H130155   5.081   6.667  15.330
 2840TIP3    H230156   5.201   6.574  15.324
 2841TIP3   OH230157   5.147   6.460  16.182
 2841TIP3    H130158   5.147   6.542  16.233
 2841TIP3    H230159   5.084   6.489  16.112
 2842TIP3   OH230160   4.312   6.708  15.464
 2842TIP3    H130161   4.283   6.672  15.377
 2842TIP3    H230162   4.377   6.640  15.494
 2843TIP3   OH230163   4.448   7.045  15.730
 2843TIP3    H130164   4.447   6.994  15.648
 2843TIP3    H230165   4.527   7.011  15.776
 2844TIP3   OH230166   4.348   6.583  15.828
 2844TIP3    H130167   4.402   6.593  15.747
 2844TIP3    H230168   4.387   6.650  15.888
 2845TIP3   OH230169   4.989   7.140  15.898
 2845TIP3    H130170   4.957   7.205  15.960
 2845TIP3    H230171   4.963   7.055  15.940
 2846TIP3   OH230172   4.444   7.030  16.297
 2846TIP3    H130173   4.400   7.102  16.347
 2846TIP3    H230174   4.377   7.007  16.228
 2847TIP3   OH230175   5.039   6.559  15.053
 2847TIP3    H130176   5.096   6.580  15.130
 2847TIP3    H230177   5.078   6.609  14.981
 2848TIP3   OH230178   4.138   6.643  16.212
 2848TIP3    H130179   4.143   6.709  16.283
 2848TIP3    H230180   4.043   6.651  16.191
 2849TIP3   OH230181   4.812   7.233  15.385
 2849TIP3    H130182   4.860   7.265  15.461
 2849TIP3    H230183   4.755   7.305  15.358
 2850TIP3   OH230184   4.265   7.235  16.369
 2850TIP3    H130185   4.262   7.218  16.272
 2850TIP3    H230186   4.173   7.216  16.396
 2851TIP3   OH230187   5.415   5.736  15.036
 2851TIP3    H130188   5.320   5.750  15.049
 2851TIP3    H230189   5.434   5.809  14.977
 2852TIP3   OH230190   4.208   6.617  15.232
 2852TIP3    H130191   4.187   6.688  15.168
 2852TIP3    H230192   4.147   6.548  15.202
 2853TIP3   OH230193   5.529   7.175  14.862
 2853TIP3    H130194   5.536   7.270  14.875
 2853TIP3    H230195   5.619   7.142  14.855
 2854TIP3   OH230196   3.820   6.854  16.113
 2854TIP3    H130197   3.777   6.846  16.026
 2854TIP3    H230198   3.829   6.759  16.134
 2855TIP3   OH230199   3.803   7.133  15.785
 2855TIP3    H130200   3.898   7.118  15.786
 2855TIP3    H230201   3.792   7.208  15.845
 2856TIP3   OH230202   5.618   7.197  16.365
 2856TIP3    H130203   5.607   7.101  16.355
 2856TIP3    H230204   5.529   7.224  16.399
 2857TIP3   OH230205   4.713   7.156  16.241
 2857TIP3    H130206   4.726   7.232  16.298
 2857TIP3    H230207   4.631   7.115  16.273
 2858TIP3   OH230208   5.335   6.345  16.404
 2858TIP3    H130209   5.287   6.390  16.333
 2858TIP3    H230210   5.333   6.252  16.375
 2859TIP3   OH230211   4.050   6.987  16.209
 2859TIP3    H130212   4.072   6.948  16.297
 2859TIP3    H230213   3.965   6.945  16.184
 2860TIP3   OH230214   4.318   5.833  15.801
 2860TIP3    H130215   4.228   5.820  15.765
 2860TIP3    H230216   4.304   5.916  15.850
 2861TIP3   OH230217   4.782   5.799  16.137
 2861TIP3    H130218   4.821   5.757  16.216
 2861TIP3    H230219   4.685   5.788  16.152
 2862TIP3   OH230220   5.111   6.185  16.226
 2862TIP3    H130221   5.055   6.163  16.305
 2862TIP3    H230222   5.092   6.278  16.205
 2863TIP3   OH230223   4.329   6.331  15.929
 2863TIP3    H130224   4.254   6.330  15.991
 2863TIP3    H230225   4.323   6.421  15.890
 2864TIP3   OH230226   4.324   6.340  15.415
 2864TIP3    H130227   4.230   6.318  15.398
 2864TIP3    H230228   4.362   6.315  15.328
 2865TIP3   OH230229   4.873   6.387  15.284
 2865TIP3    H130230   4.836   6.474  15.259
 2865TIP3    H230231   4.944   6.379  15.220
 2866TIP3   OH230232   4.781   6.414  16.433
 2866TIP3    H130233   4.729   6.335  16.464
 2866TIP3    H230234   4.865   6.402  16.482
 2867TIP3   OH230235   4.979   6.342  15.574
 2867TIP3    H130236   4.951   6.398  15.499
 2867TIP3    H230237   4.990   6.257  15.528
 2868TIP3   OH230238   4.090   6.355  16.094
 2868TIP3    H130239   4.099   6.396  16.182
 2868TIP3    H230240   4.046   6.271  16.116
 2869TIP3   OH230241   3.756   6.065  15.494
 2869TIP3    H130242   3.824   6.062  15.564
 2869TIP3    H230243   3.802   6.028  15.416
 2870TIP3   OH230244   4.899   6.500  16.030
 2870TIP3    H130245   4.937   6.431  15.972
 2870TIP3    H230246   4.852   6.447  16.097
 2871TIP3   OH230247   4.580   6.095  15.514
 2871TIP3    H130248   4.486   6.097  15.542
 2871TIP3    H230249   4.627   6.081  15.598
 2872TIP3   OH230250   4.057   6.251  15.405
 2872TIP3    H130251   3.970   6.269  15.363
 2872TIP3    H230252   4.088   6.170  15.361
 2873TIP3   OH230253   4.420   6.264  15.173
 2873TIP3    H130254   4.517   6.263  15.179
 2873TIP3    H230255   4.401   6.318  15.095
 2874TIP3   OH230256   5.020   6.021  15.839
 2874TIP3    H130257   4.952   6.026  15.909
 2874TIP3    H230258   4.969   5.996  15.761
 2875TIP3   OH230259   4.108   6.833  16.429
 2875TIP3    H130260   4.179   6.856  16.492
 2875TIP3    H230261   4.029   6.840  16.486
 2876TIP3   OH230262   4.707   6.373  15.703
 2876TIP3    H130263   4.767   6.320  15.651
 2876TIP3    H230264   4.692   6.318  15.782
 2877TIP3   OH230265   4.208   5.990  15.345
 2877TIP3    H130266   4.178   5.898  15.342
 2877TIP3    H230267   4.288   5.984  15.290
 2878TIP3   OH230268   4.572   6.206  15.945
 2878TIP3    H130269   4.489   6.258  15.953
 2878TIP3    H230270   4.627   6.241  16.017
 2879TIP3   OH230271   5.350   6.748  15.994
 2879TIP3    H130272   5.405   6.799  15.932
 2879TIP3    H230273   5.264   6.753  15.949
 2880TIP3   OH230274   4.778   6.858  16.238
 2880TIP3    H130275   4.745   6.812  16.315
 2880TIP3    H230276   4.755   6.950  16.251
 2881TIP3   OH230277   4.142   6.768  15.695
 2881TIP3    H130278   4.210   6.761  15.625
 2881TIP3    H230279   4.148   6.682  15.740
 2882TIP3   OH230280   3.840   6.608  16.221
 2882TIP3    H130281   3.857   6.563  16.306
 2882TIP3    H230282   3.778   6.547  16.176
 2883TIP3   OH230283   4.541   6.562  16.438
 2883TIP3    H130284   4.509   6.532  16.352
 2883TIP3    H230285   4.634   6.532  16.437
 2884TIP3   OH230286   5.008   7.104  16.227
 2884TIP3    H130287   4.914   7.113  16.210
 2884TIP3    H230288   5.007   7.125  16.324
 2885TIP3   OH230289   5.577   6.899  16.352
 2885TIP3    H130290   5.488   6.923  16.318
 2885TIP3    H230291   5.630   6.897  16.270
 2886TIP3   OH230292   5.416   7.182  15.125
 2886TIP3    H130293   5.365   7.104  15.143
 2886TIP3    H230294   5.427   7.184  15.028
 2887TIP3   OH230295   5.127   6.679  15.824
 2887TIP3    H130296   5.033   6.659  15.812
 2887TIP3    H230297   5.170   6.604  15.779
 2888TIP3   OH230298   4.377   7.114  15.439
 2888TIP3    H130299   4.428   7.189  15.407
 2888TIP3    H230300   4.292   7.132  15.398
 2889TIP3   OH230301   3.961   6.595  14.892
 2889TIP3    H130302   4.016   6.665  14.928
 2889TIP3    H230303   3.872   6.625  14.914
 2890TIP3   OH230304   4.525   6.879  15.397
 2890TIP3    H130305   4.492   6.970  15.391
 2890TIP3    H230306   4.446   6.832  15.429
 2891TIP3   OH230307   4.581   7.274  16.004
 2891TIP3    H130308   4.606   7.367  15.994
 2891TIP3    H230309   4.627   7.254  16.087
 2892TIP3   OH230310   4.353   0.029  15.307
 2892TIP3    H130311   4.271   0.044  15.354
 2892TIP3    H230312   4.409   0.096  15.354
 2893TIP3   OH230313   4.918   6.897  15.989
 2893TIP3    H130314   4.884   6.875  16.078
 2893TIP3    H230315   4.981   6.825  15.970
 2894TIP3   OH230316   5.199   7.342  16.233
 2894TIP3    H130317   5.122   7.305  16.189
 2894TIP3    H230318   5.210   7.428  16.187
 2895TIP3   OH230319   4.005   6.082  16.177
 2895TIP3    H130320   3.915   6.117  16.174
 2895TIP3    H230321   3.994   5.997  16.222
 2896TIP3   OH230322   5.225   6.868  15.127
 2896TIP3    H130323   5.208   6.789  15.180
 2896TIP3    H230324   5.322   6.874  15.133
 2897TIP3   OH230325   3.966   7.256  16.019
 2897TIP3    H130326   3.998   7.165  16.021
 2897TIP3    H230327   3.987   7.291  16.106
 2898TIP3   OH230328   4.091   6.794  15.037
 2898TIP3    H130329   4.027   6.835  15.096
 2898TIP3    H230330   4.152   6.864  15.010
 2899TIP3   OH230331   4.879   6.059  16.072
 2899TIP3    H130332   4.951   6.065  16.136
 2899TIP3    H230333   4.840   5.971  16.093
 2900TIP3   OH230334   4.732   7.241  15.077
 2900TIP3    H130335   4.638   7.269  15.070
 2900TIP3    H230336   4.776   7.276  15.001
 2901TIP3   OH230337   4.676   6.190  15.261
 2901TIP3    H130338   4.753   6.250  15.265
 2901TIP3    H230339   4.648   6.181  15.354
 2902TIP3   OH230340   4.732   6.294  16.182
 2902TIP3    H130341   4.740   6.349  16.262
 2902TIP3    H230342   4.798   6.224  16.191
 2903TIP3   OH230343   4.763   5.900  15.348
 2903TIP3    H130344   4.726   5.958  15.418
 2903TIP3    H230345   4.831   5.959  15.311
 2904TIP3   OH230346   4.472   0.003  15.057
 2904TIP3    H130347   4.465   0.087  15.013
 2904TIP3    H230348   4.431   0.019  15.145
 2905TIP3   OH230349   5.349   6.080  16.267
 2905TIP3    H130350   5.256   6.112  16.253
 2905TIP3    H230351   5.379   6.078  16.174
 2906TIP3   OH230352   5.210   6.459  15.667
 2906TIP3    H130353   5.128   6.414  15.639
 2906TIP3    H230354   5.258   6.390  15.719
 2907TIP3   OH230355   4.066   5.797  15.714
 2907TIP3    H130356   4.046   5.798  15.618
 2907TIP3    H230357   4.025   5.711  15.740
 2908TIP3   OH230358   3.961   7.186  15.318
 2908TIP3    H130359   3.877   7.234  15.330
 2908TIP3    H230360   4.014   7.244  15.263
 2909TIP3   OH230361   4.368   7.317  16.637
 2909TIP3    H130362   4.457   7.281  16.651
 2909TIP3    H230363   4.357   7.301  16.540
 2910TIP3   OH230364   4.903   7.392  14.752
 2910TIP3    H130365   4.806   7.374  14.725
 2910TIP3    H230366   4.902   7.298  14.718
 2911TIP3   OH230367   5.002   7.163  16.483
 2911TIP3    H130368   4.966   7.085  16.527
 2911TIP3    H230369   5.072   7.193  16.543
 2912TIP3   OH230370   5.285   7.302  14.849
 2912TIP3    H130371   5.257   7.208  14.844
 2912TIP3    H230372   5.302   7.310  14.754
 2913TIP3   OH230373   3.871   6.830  16.557
 2913TIP3    H130374   3.889   6.740  16.523
 2913TIP3    H230375   3.800   6.860  16.497
 2914TIP3   OH230376   4.547   6.828  16.492
 2914TIP3    H130377   4.510   6.860  16.408
 2914TIP3    H230378   4.552   6.730  16.481
 2915TIP3   OH230379   4.867   6.907  14.801
 2915TIP3    H130380   4.822   6.990  14.823
 2915TIP3    H230381   4.829   6.891  14.713
 2916TIP3   OH230382   5.114   6.815  16.235
 2916TIP3    H130383   5.193   6.873  16.228
 2916TIP3    H230384   5.044   6.882  16.239
 2917TIP3   OH230385   3.965   6.555  16.495
 2917TIP3    H130386   4.007   6.469  16.486
 2917TIP3    H230387   3.943   6.557  16.590
 2918TIP3   OH230388   4.355   6.448  16.230
 2918TIP3    H130389   4.295   6.521  16.256
 2918TIP3    H230390   4.395   6.485  16.150
 2919TIP3   OH230391   4.863   6.706  16.573
 2919TIP3    H130392   4.958   6.700  16.553
 2919TIP3    H230393   4.846   6.627  16.625
 2920TIP3   OH230394   4.397   6.188  16.334
 2920TIP3    H130395   4.407   6.116  16.269
 2920TIP3    H230396   4.391   6.269  16.279
 2921TIP3   OH230397   4.436   6.025  16.091
 2921TIP3    H130398   4.487   6.071  16.020
 2921TIP3    H230399   4.347   6.017  16.051
 2922TIP3   OH230400   4.589   6.574  16.116
 2922TIP3    H130401   4.665   6.557  16.058
 2922TIP3    H230402   4.553   6.657  16.082
 2923TIP3   OH230403   5.029   6.348  16.608
 2923TIP3    H130404   5.051   6.253  16.604
 2923TIP3    H230405   5.116   6.390  16.613
 2924TIP3   OH230406   5.164   6.629  16.431
 2924TIP3    H130407   5.138   6.700  16.368
 2924TIP3    H230408   5.259   6.626  16.409
 2925TIP3   OH230409   4.244   6.310  16.530
 2925TIP3    H130410   4.165   6.255  16.511
 2925TIP3    H230411   4.306   6.275  16.464
 2926TIP3   OH230412   4.514   5.768  16.131
 2926TIP3    H130413   4.496   5.864  16.121
 2926TIP3    H230414   4.440   5.731  16.080
 2927TIP3   OH230415   4.642   6.201  16.495
 2927TIP3    H130416   4.609   6.179  16.584
 2927TIP3    H230417   4.565   6.182  16.439
 2928TIP3   OH230418   4.914   6.115  16.400
 2928TIP3    H130419   4.818   6.121  16.414
 2928TIP3    H230420   4.941   6.053  16.470
 2929TIP3   OH230421   5.068   5.977  16.590
 2929TIP3    H130422   5.067   5.880  16.595
 2929TIP3    H230423   5.046   6.008  16.681
 2930TIP3   OH230424   4.050   6.106  16.503
 2930TIP3    H130425   4.074   6.031  16.445
 2930TIP3    H230426   4.041   6.062  16.591
 2931TIP3   OH230427   4.537   5.707  16.400
 2931TIP3    H130428   4.605   5.637  16.398
 2931TIP3    H230429   4.525   5.722  16.305
 2932TIP3   OH230430   4.571   5.867  16.610
 2932TIP3    H130431   4.555   5.818  16.527
 2932TIP3    H230432   4.514   5.946  16.600
 2933TIP3   OH230433   3.824   7.367  15.560
 2933TIP3    H130434   3.793   7.279  15.583
 2933TIP3    H230435   3.854   7.403  15.645
 2934TIP3   OH230436   5.393   6.978  16.619
 2934TIP3    H130437   5.302   6.979  16.653
 2934TIP3    H230438   5.429   7.061  16.657
 2935TIP3   OH230439   5.521   6.805  15.155
 2935TIP3    H130440   5.603   6.855  15.175
 2935TIP3    H230441   5.521   6.741  15.229
 2936TIP3   OH230442   5.562   6.618  15.343
 2936TIP3    H130443   5.485   6.574  15.385
 2936TIP3    H230444   5.618   6.636  15.422
 2937TIP3   OH230445   5.534   6.892  15.848
 2937TIP3    H130446   5.615   6.854  15.808
 2937TIP3    H230447   5.548   6.986  15.829
 2938TIP3   OH230448   5.386   7.182  16.075
 2938TIP3    H130449   5.319   7.220  16.134
 2938TIP3    H230450   5.332   7.141  16.004
 2939TIP3   OH230451   5.578   6.599  14.984
 2939TIP3    H130452   5.538   6.652  14.913
 2939TIP3    H230453   5.581   6.672  15.050
 2940TIP3   OH230454   5.342   6.468  15.401
 2940TIP3    H130455   5.324   6.373  15.402
 2940TIP3    H230456   5.309   6.491  15.490
 2941TIP3   OH230457   3.841   6.678  15.810
 2941TIP3    H130458   3.859   6.669  15.713
 2941TIP3    H230459   3.930   6.660  15.845
 2942TIP3   OH230460   5.426   6.666  16.375
 2942TIP3    H130461   5.488   6.590  16.385
 2942TIP3    H230462   5.487   6.743  16.373
 2943TIP3   OH230463   5.575   6.455  16.437
 2943TIP3    H130464   5.487   6.414  16.421
 2943TIP3    H230465   5.633   6.378  16.430
 2944TIP3   OH230466   5.332   6.078  14.758
 2944TIP3    H130467   5.400   6.027  14.802
 2944TIP3    H230468   5.250   6.027  14.765
 2945TIP3   OH230469   5.304   6.226  15.244
 2945TIP3    H130470   5.332   6.134  15.262
 2945TIP3    H230471   5.384   6.268  15.216
 2946TIP3   OH230472   5.371   6.281  15.794
 2946TIP3    H130473   5.467   6.305  15.793
 2946TIP3    H230474   5.352   6.296  15.888
 2947TIP3   OH230475   5.378   6.354  16.072
 2947TIP3    H130476   5.289   6.382  16.104
 2947TIP3    H230477   5.421   6.440  16.050
 2948TIP3   OH230478   3.803   6.207  16.424
 2948TIP3    H130479   3.897   6.186  16.445
 2948TIP3    H230480   3.757   6.125  16.453
 2949TIP3   OH230481   5.620   5.765  16.608
 2949TIP3    H130482   5.635   5.691  16.545
 2949TIP3    H230483   5.608   5.841  16.549
 2950TIP3   OH230484   5.374   5.956  15.252
 2950TIP3    H130485   5.396   5.913  15.339
 2950TIP3    H230486   5.313   5.891  15.212
 2951TIP3   OH230487   3.923   6.037  15.710
 2951TIP3    H130488   3.969   5.954  15.736
 2951TIP3    H230489   3.978   6.106  15.749
 2952TIP3   OH230490   3.751   6.337  15.814
 2952TIP3    H130491   3.807   6.312  15.738
 2952TIP3    H230492   3.798   6.417  15.841
 2953TIP3   OH230493   5.559   5.968  16.442
 2953TIP3    H130494   5.464   5.998  16.440
 2953TIP3    H230495   5.557   5.915  16.361
 2954TIP3   OH230496   3.787   5.963  15.217
 2954TIP3    H130497   3.693   5.985  15.209
 2954TIP3    H230498   3.831   6.014  15.150
 2955TIP3   OH230499   3.782   5.827  16.050
 2955TIP3    H130500   3.715   5.809  16.119
 2955TIP3    H230501   3.736   5.895  15.997
 2956TIP3   OH230502   4.005   7.153  16.466
 2956TIP3    H130503   3.919   7.171  16.424
 2956TIP3    H230504   3.980   7.139  16.559
 2957TIP3   OH230505   4.300   7.248  16.101
 2957TIP3    H130506   4.255   7.324  16.063
 2957TIP3    H230507   4.387   7.251  16.058
 2958TIP3   OH230508   5.460   5.779  16.228
 2958TIP3    H130509   5.377   5.809  16.186
 2958TIP3    H230510   5.476   5.697  16.176
 2959TIP3   OH230511   4.186   7.295  15.633
 2959TIP3    H130512   4.172   7.208  15.674
 2959TIP3    H230513   4.263   7.320  15.691
 2960TIP3   OH230514   4.405   7.300  15.762
 2960TIP3    H130515   4.468   7.239  15.719
 2960TIP3    H230516   4.451   7.340  15.837
 2961TIP3   OH230517   4.796   5.921  15.653
 2961TIP3    H130518   4.730   5.857  15.684
 2961TIP3    H230519   4.854   5.867  15.598
 2962TIP3   OH230520   5.311   5.726  15.661
 2962TIP3    H130521   5.372   5.786  15.610
 2962TIP3    H230522   5.223   5.762  15.640
 2963TIP3   OH230523   5.478   5.852  15.489
 2963TIP3    H130524   5.547   5.794  15.450
 2963TIP3    H230525   5.529   5.934  15.506
 2964TIP3   OH230526   4.034   5.784  15.440
 2964TIP3    H130527   3.955   5.763  15.388
 2964TIP3    H230528   4.081   5.698  15.431
 2965TIP3   OH230529   3.906   5.763  15.005
 2965TIP3    H130530   3.963   5.828  14.961
 2965TIP3    H230531   3.857   5.814  15.071
 2966TIP3   OH230532   4.487   5.773  15.416
 2966TIP3    H130533   4.573   5.816  15.413
 2966TIP3    H230534   4.479   5.755  15.510
 2967TIP3   OH230535   5.052   5.779  15.580
 2967TIP3    H130536   5.050   5.789  15.484
 2967TIP3    H230537   5.015   5.689  15.596
 2968TIP3   OH230538   5.182   5.781  15.152
 2968TIP3    H130539   5.111   5.843  15.138
 2968TIP3    H230540   5.137   5.696  15.172
 2969TIP3   OH230541   4.619   5.977  15.103
 2969TIP3    H130542   4.618   5.925  15.184
 2969TIP3    H230543   4.598   6.065  15.141
 2970TIP3   OH230544   4.023   5.838  16.385
 2970TIP3    H130545   3.983   5.758  16.426
 2970TIP3    H230546   4.114   5.834  16.423
 2971TIP3   OH230547   4.223   5.778  16.552
 2971TIP3    H130548   4.311   5.743  16.526
 2971TIP3    H230549   4.185   5.697  16.591
 2972TIP3   OH230550   5.063   5.704  16.564
 2972TIP3    H130551   5.073   5.658  16.649
 2972TIP3    H230552   5.156   5.702  16.530
 2973TIP3   OH230553   5.374   7.302  16.445
 2973TIP3    H130554   5.306   7.297  16.374
 2973TIP3    H230555   5.382   7.400  16.445
 2974TIP3   OH230556   6.829   6.696  15.426
 2974TIP3    H130557   6.829   6.794  15.423
 2974TIP3    H230558   6.755   6.674  15.367
 2975TIP3   OH230559   6.715   6.623  15.775
 2975TIP3    H130560   6.713   6.559  15.847
 2975TIP3    H230561   6.681   6.572  15.700
 2976TIP3   OH230562   5.951   6.591  15.930
 2976TIP3    H130563   5.958   6.523  16.000
 2976TIP3    H230564   6.025   6.649  15.953
 2977TIP3   OH230565   7.084   6.915  15.606
 2977TIP3    H130566   7.042   6.845  15.656
 2977TIP3    H230567   7.093   6.985  15.672
 2978TIP3   OH230568   6.046   7.036  15.783
 2978TIP3    H130569   6.013   6.950  15.751
 2978TIP3    H230570   6.141   7.017  15.786
 2979TIP3   OH230571   5.714   6.396  15.317
 2979TIP3    H130572   5.665   6.480  15.331
 2979TIP3    H230573   5.648   6.336  15.286
 2980TIP3   OH230574   5.776   6.613  15.541
 2980TIP3    H130575   5.805   6.533  15.589
 2980TIP3    H230576   5.848   6.627  15.479
 2981TIP3   OH230577   6.551   6.860  15.825
 2981TIP3    H130578   6.585   6.801  15.757
 2981TIP3    H230579   6.633   6.880  15.874
 2982TIP3   OH230580   6.867   6.311  15.853
 2982TIP3    H130581   6.887   6.215  15.854
 2982TIP3    H230582   6.859   6.323  15.757
 2983TIP3   OH230583   6.179   6.119  15.576
 2983TIP3    H130584   6.192   6.202  15.528
 2983TIP3    H230585   6.140   6.062  15.506
 2984TIP3   OH230586   6.954   6.133  15.423
 2984TIP3    H130587   7.025   6.094  15.478
 2984TIP3    H230588   7.002   6.177  15.351
 2985TIP3   OH230589   5.845   6.362  15.651
 2985TIP3    H130590   5.910   6.306  15.696
 2985TIP3    H230591   5.854   6.329  15.560
 2986TIP3   OH230592   6.358   6.515  15.581
 2986TIP3    H130593   6.426   6.459  15.622
 2986TIP3    H230594   6.307   6.448  15.533
 2987TIP3   OH230595   6.071   6.010  15.979
 2987TIP3    H130596   6.043   6.067  15.905
 2987TIP3    H230597   6.004   6.033  16.047
 2988TIP3   OH230598   6.802   6.955  15.333
 2988TIP3    H130599   6.773   6.936  15.243
 2988TIP3    H230600   6.773   7.048  15.342
 2989TIP3   OH230601   6.322   6.772  16.004
 2989TIP3    H130602   6.252   6.837  16.026
 2989TIP3    H230603   6.393   6.832  15.975
 2990TIP3   OH230604   7.114   6.059  15.621
 2990TIP3    H130605   7.110   5.979  15.672
 2990TIP3    H230606   7.188   6.107  15.662
 2991TIP3   OH230607   6.029   6.194  15.784
 2991TIP3    H130608   6.091   6.264  15.815
 2991TIP3    H230609   6.080   6.154  15.709
 2992TIP3   OH230610   6.168   6.973  16.087
 2992TIP3    H130611   6.163   7.064  16.051
 2992TIP3    H230612   6.078   6.967  16.128
 2993TIP3   OH230613   5.773   6.942  15.166
 2993TIP3    H130614   5.749   6.969  15.075
 2993TIP3    H230615   5.784   7.025  15.214
 2994TIP3   OH230616   7.130   7.100  15.850
 2994TIP3    H130617   7.033   7.110  15.856
 2994TIP3    H230618   7.160   7.187  15.820
 2995TIP3   OH230619   7.161   5.942  15.967
 2995TIP3    H130620   7.086   6.003  15.969
 2995TIP3    H230621   7.229   5.990  15.920
 2996TIP3   OH230622   6.465   5.742  15.729
 2996TIP3    H130623   6.450   5.646  15.719
 2996TIP3    H230624   6.377   5.774  15.757
 2997TIP3   OH230625   6.965   7.261  15.490
 2997TIP3    H130626   7.013   7.193  15.439
 2997TIP3    H230627   7.005   7.342  15.459
 2998TIP3   OH230628   7.088   7.071  15.349
 2998TIP3    H130629   7.056   7.003  15.289
 2998TIP3    H230630   7.090   7.021  15.433
 2999TIP3   OH230631   7.222   6.944  16.206
 2999TIP3    H130632   7.253   6.873  16.146
 2999TIP3    H230633   7.267   7.020  16.165
 3000TIP3   OH230634   6.697   6.627  15.175
 3000TIP3    H130635   6.624   6.681  15.141
 3000TIP3    H230636   6.763   6.632  15.106
 3001TIP3   OH230637   7.036   6.648  15.268
 3001TIP3    H130638   6.965   6.669  15.332
 3001TIP3    H230639   7.085   6.579  15.320
 3002TIP3   OH230640   7.026   6.457  16.180
 3002TIP3    H130641   7.032   6.538  16.233
 3002TIP3    H230642   6.968   6.490  16.109
 3003TIP3   OH230643   6.203   6.709  15.460
 3003TIP3    H130644   6.168   6.669  15.380
 3003TIP3    H230645   6.263   6.641  15.498
 3004TIP3   OH230646   6.334   7.045  15.728
 3004TIP3    H130647   6.334   6.993  15.648
 3004TIP3    H230648   6.412   7.011  15.776
 3005TIP3   OH230649   6.234   6.584  15.828
 3005TIP3    H130650   6.291   6.594  15.750
 3005TIP3    H230651   6.272   6.650  15.889
 3006TIP3   OH230652   6.871   7.142  15.898
 3006TIP3    H130653   6.843   7.204  15.963
 3006TIP3    H230654   6.849   7.056  15.940
 3007TIP3   OH230655   6.330   7.030  16.297
 3007TIP3    H130656   6.286   7.102  16.347
 3007TIP3    H230657   6.262   7.007  16.228
 3008TIP3   OH230658   6.024   6.643  16.211
 3008TIP3    H130659   6.029   6.709  16.283
 3008TIP3    H230660   5.929   6.651  16.192
 3009TIP3   OH230661   6.694   7.234  15.385
 3009TIP3    H130662   6.746   7.267  15.459
 3009TIP3    H230663   6.644   7.311  15.355
 3010TIP3   OH230664   6.150   7.235  16.369
 3010TIP3    H130665   6.147   7.218  16.273
 3010TIP3    H230666   6.058   7.216  16.396
 3011TIP3   OH230667   5.706   6.855  16.113
 3011TIP3    H130668   5.662   6.846  16.026
 3011TIP3    H230669   5.715   6.760  16.135
 3012TIP3   OH230670   5.688   7.133  15.785
 3012TIP3    H130671   5.783   7.118  15.787
 3012TIP3    H230672   5.677   7.209  15.845
 3013TIP3   OH230673   6.599   7.156  16.241
 3013TIP3    H130674   6.612   7.232  16.298
 3013TIP3    H230675   6.516   7.115  16.272
 3014TIP3   OH230676   7.185   6.353  16.411
 3014TIP3    H130677   7.172   6.392  16.324
 3014TIP3    H230678   7.228   6.268  16.386
 3015TIP3   OH230679   5.936   6.987  16.209
 3015TIP3    H130680   5.957   6.948  16.297
 3015TIP3    H230681   5.850   6.945  16.185
 3016TIP3   OH230682   6.203   5.834  15.800
 3016TIP3    H130683   6.113   5.821  15.765
 3016TIP3    H230684   6.190   5.916  15.849
 3017TIP3   OH230685   6.667   5.799  16.137
 3017TIP3    H130686   6.707   5.757  16.216
 3017TIP3    H230687   6.570   5.788  16.152
 3018TIP3   OH230688   6.993   6.184  16.225
 3018TIP3    H130689   6.941   6.164  16.306
 3018TIP3    H230690   6.978   6.278  16.207
 3019TIP3   OH230691   6.214   6.331  15.927
 3019TIP3    H130692   6.140   6.330  15.991
 3019TIP3    H230693   6.209   6.422  15.890
 3020TIP3   OH230694   6.206   6.351  15.407
 3020TIP3    H130695   6.115   6.314  15.401
 3020TIP3    H230696   6.251   6.306  15.333
 3021TIP3   OH230697   6.761   6.395  15.294
 3021TIP3    H130698   6.721   6.474  15.254
 3021TIP3    H230699   6.827   6.367  15.227
 3022TIP3   OH230700   6.667   6.414  16.433
 3022TIP3    H130701   6.617   6.335  16.464
 3022TIP3    H230702   6.751   6.403  16.481
 3023TIP3   OH230703   6.866   6.345  15.574
 3023TIP3    H130704   6.836   6.396  15.497
 3023TIP3    H230705   6.873   6.257  15.528
 3024TIP3   OH230706   5.976   6.356  16.094
 3024TIP3    H130707   5.984   6.398  16.181
 3024TIP3    H230708   5.931   6.273  16.115
 3025TIP3   OH230709   5.644   6.067  15.490
 3025TIP3    H130710   5.709   6.060  15.564
 3025TIP3    H230711   5.689   6.025  15.414
 3026TIP3   OH230712   6.785   6.499  16.029
 3026TIP3    H130713   6.824   6.430  15.972
 3026TIP3    H230714   6.738   6.447  16.097
 3027TIP3   OH230715   6.462   6.095  15.515
 3027TIP3    H130716   6.370   6.098  15.546
 3027TIP3    H230717   6.513   6.081  15.596
 3028TIP3   OH230718   5.946   6.253  15.395
 3028TIP3    H130719   5.855   6.264  15.362
 3028TIP3    H230720   5.971   6.165  15.362
 3029TIP3   OH230721   6.311   6.262  15.162
 3029TIP3    H130722   6.407   6.264  15.182
 3029TIP3    H230723   6.299   6.324  15.091
 3030TIP3   OH230724   6.902   6.018  15.838
 3030TIP3    H130725   6.834   6.025  15.907
 3030TIP3    H230726   6.852   5.999  15.758
 3031TIP3   OH230727   5.994   6.833  16.429
 3031TIP3    H130728   6.065   6.858  16.491
 3031TIP3    H230729   5.915   6.841  16.488
 3032TIP3   OH230730   6.593   6.373  15.703
 3032TIP3    H130731   6.654   6.320  15.650
 3032TIP3    H230732   6.579   6.317  15.781
 3033TIP3   OH230733   6.094   5.991  15.346
 3033TIP3    H130734   6.060   5.899  15.348
 3033TIP3    H230735   6.174   5.978  15.294
 3034TIP3   OH230736   6.457   6.205  15.946
 3034TIP3    H130737   6.375   6.258  15.954
 3034TIP3    H230738   6.513   6.242  16.017
 3035TIP3   OH230739   6.515   6.821  15.113
 3035TIP3    H130740   6.432   6.786  15.081
 3035TIP3    H230741   6.495   6.845  15.206
 3036TIP3   OH230742   7.220   6.753  15.995
 3036TIP3    H130743   7.284   6.772  15.923
 3036TIP3    H230744   7.138   6.751  15.943
 3037TIP3   OH230745   6.665   6.858  16.237
 3037TIP3    H130746   6.630   6.812  16.315
 3037TIP3    H230747   6.643   6.950  16.251
 3038TIP3   OH230748   6.971   6.317  15.112
 3038TIP3    H130749   7.059   6.279  15.123
 3038TIP3    H230750   6.980   6.373  15.036
 3039TIP3   OH230751   6.026   6.767  15.694
 3039TIP3    H130752   6.096   6.762  15.626
 3039TIP3    H230753   6.033   6.682  15.741
 3040TIP3   OH230754   6.723   6.975  15.023
 3040TIP3    H130755   6.690   7.061  15.053
 3040TIP3    H230756   6.648   6.917  15.039
 3041TIP3   OH230757   5.725   6.609  16.221
 3041TIP3    H130758   5.743   6.564  16.306
 3041TIP3    H230759   5.664   6.546  16.177
 3042TIP3   OH230760   6.427   6.563  16.439
 3042TIP3    H130761   6.395   6.532  16.352
 3042TIP3    H230762   6.519   6.532  16.438
 3043TIP3   OH230763   6.894   7.109  16.227
 3043TIP3    H130764   6.799   7.113  16.210
 3043TIP3    H230765   6.893   7.123  16.324
 3044TIP3   OH230766   7.275   7.194  15.110
 3044TIP3    H130767   7.250   7.109  15.146
 3044TIP3    H230768   7.313   7.168  15.023
 3045TIP3   OH230769   7.006   6.677  15.825
 3045TIP3    H130770   6.912   6.656  15.809
 3045TIP3    H230771   7.053   6.604  15.779
 3046TIP3   OH230772   6.267   7.108  15.425
 3046TIP3    H130773   6.311   7.192  15.409
 3046TIP3    H230774   6.177   7.134  15.402
 3047TIP3   OH230775   6.406   6.878  15.381
 3047TIP3    H130776   6.378   6.971  15.393
 3047TIP3    H230777   6.335   6.833  15.432
 3048TIP3   OH230778   6.467   7.274  16.003
 3048TIP3    H130779   6.492   7.367  15.993
 3048TIP3    H230780   6.512   7.254  16.087
 3049TIP3   OH230781   6.239   0.024  15.313
 3049TIP3    H130782   6.154   0.046  15.347
 3049TIP3    H230783   6.294   0.095  15.352
 3050TIP3   OH230784   6.806   6.897  15.989
 3050TIP3    H130785   6.770   6.875  16.078
 3050TIP3    H230786   6.867   6.824  15.970
 3051TIP3   OH230787   7.081   7.354  16.238
 3051TIP3    H130788   7.014   7.305  16.190
 3051TIP3    H230789   7.101   7.428  16.178
 3052TIP3   OH230790   5.892   6.083  16.180
 3052TIP3    H130791   5.801   6.117  16.171
 3052TIP3    H230792   5.878   5.994  16.215
 3053TIP3   OH230793   5.853   7.255  16.018
 3053TIP3    H130794   5.883   7.164  16.021
 3053TIP3    H230795   5.873   7.291  16.106
 3054TIP3   OH230796   6.391   7.027  14.725
 3054TIP3    H130797   6.477   7.007  14.690
 3054TIP3    H230798   6.398   7.040  14.823
 3055TIP3   OH230799   6.365   7.062  14.993
 3055TIP3    H130800   6.347   7.014  15.074
 3055TIP3    H230801   6.317   7.147  15.011
 3056TIP3   OH230802   6.762   6.058  16.073
 3056TIP3    H130803   6.837   6.065  16.134
 3056TIP3    H230804   6.726   5.970  16.094
 3057TIP3   OH230805   6.614   7.224  15.045
 3057TIP3    H130806   6.535   7.276  15.076
 3057TIP3    H230807   6.670   7.291  15.003
 3058TIP3   OH230808   6.617   6.292  16.182
 3058TIP3    H130809   6.627   6.350  16.260
 3058TIP3    H230810   6.684   6.223  16.190
 3059TIP3   OH230811   6.650   5.898  15.362
 3059TIP3    H130812   6.612   5.968  15.415
 3059TIP3    H230813   6.710   5.953  15.307
 3060TIP3   OH230814   6.397   0.004  15.099
 3060TIP3    H130815   6.372   0.068  15.027
 3060TIP3    H230816   6.320   0.022  15.157
 3061TIP3   OH230817   7.232   6.074  16.256
 3061TIP3    H130818   7.142   6.113  16.252
 3061TIP3    H230819   7.265   6.085  16.166
 3062TIP3   OH230820   7.097   6.460  15.677
 3062TIP3    H130821   7.017   6.418  15.637
 3062TIP3    H230822   7.138   6.384  15.720
 3063TIP3   OH230823   5.863   6.326  14.861
 3063TIP3    H130824   5.868   6.420  14.844
 3063TIP3    H230825   5.797   6.287  14.800
 3064TIP3   OH230826   5.951   5.797  15.714
 3064TIP3    H130827   5.932   5.798  15.618
 3064TIP3    H230828   5.910   5.712  15.740
 3065TIP3   OH230829   5.859   7.188  15.336
 3065TIP3    H130830   5.769   7.226  15.329
 3065TIP3    H230831   5.896   7.235  15.260
 3066TIP3   OH230832   6.255   7.318  16.636
 3066TIP3    H130833   6.342   7.281  16.651
 3066TIP3    H230834   6.243   7.302  16.540
 3067TIP3   OH230835   6.709   7.294  14.773
 3067TIP3    H130836   6.643   7.236  14.811
 3067TIP3    H230837   6.761   7.231  14.722
 3068TIP3   OH230838   6.888   7.167  16.486
 3068TIP3    H130839   6.853   7.086  16.526
 3068TIP3    H230840   6.959   7.190  16.547
 3069TIP3   OH230841   6.990   7.228  14.789
 3069TIP3    H130842   7.072   7.183  14.821
 3069TIP3    H230843   7.053   7.290  14.744
 3070TIP3   OH230844   5.757   6.830  16.556
 3070TIP3    H130845   5.775   6.740  16.523
 3070TIP3    H230846   5.686   6.860  16.497
 3071TIP3   OH230847   6.433   6.828  16.492
 3071TIP3    H130848   6.396   6.860  16.408
 3071TIP3    H230849   6.437   6.730  16.483
 3072TIP3   OH230850   6.997   6.813  16.231
 3072TIP3    H130851   7.076   6.872  16.226
 3072TIP3    H230852   6.930   6.881  16.239
 3073TIP3   OH230853   5.850   6.556  16.495
 3073TIP3    H130854   5.893   6.470  16.486
 3073TIP3    H230855   5.828   6.557  16.590
 3074TIP3   OH230856   6.240   6.448  16.231
 3074TIP3    H130857   6.181   6.521  16.256
 3074TIP3    H230858   6.280   6.485  16.150
 3075TIP3   OH230859   6.745   6.707  16.576
 3075TIP3    H130860   6.839   6.702  16.550
 3075TIP3    H230861   6.732   6.625  16.625
 3076TIP3   OH230862   6.280   6.187  16.334
 3076TIP3    H130863   6.296   6.117  16.268
 3076TIP3    H230864   6.278   6.269  16.280
 3077TIP3   OH230865   6.322   6.025  16.092
 3077TIP3    H130866   6.373   6.071  16.021
 3077TIP3    H230867   6.232   6.017  16.051
 3078TIP3   OH230868   6.475   6.574  16.115
 3078TIP3    H130869   6.551   6.557  16.058
 3078TIP3    H230870   6.440   6.658  16.082
 3079TIP3   OH230871   6.916   6.349  16.614
 3079TIP3    H130872   6.938   6.255  16.601
 3079TIP3    H230873   7.003   6.390  16.611
 3080TIP3   OH230874   7.044   6.630  16.429
 3080TIP3    H130875   7.023   6.702  16.367
 3080TIP3    H230876   7.140   6.625  16.411
 3081TIP3   OH230877   6.131   6.308  16.533
 3081TIP3    H130878   6.051   6.259  16.507
 3081TIP3    H230879   6.193   6.278  16.463
 3082TIP3   OH230880   6.400   5.768  16.130
 3082TIP3    H130881   6.382   5.865  16.121
 3082TIP3    H230882   6.326   5.731  16.080
 3083TIP3   OH230883   6.528   6.200  16.495
 3083TIP3    H130884   6.494   6.179  16.584
 3083TIP3    H230885   6.451   6.182  16.438
 3084TIP3   OH230886   6.798   6.117  16.402
 3084TIP3    H130887   6.701   6.120  16.416
 3084TIP3    H230888   6.828   6.053  16.469
 3085TIP3   OH230889   6.962   5.977  16.595
 3085TIP3    H130890   6.951   5.880  16.596
 3085TIP3    H230891   6.933   6.009  16.684
 3086TIP3   OH230892   5.933   6.120  16.494
 3086TIP3    H130893   5.967   6.050  16.436
 3086TIP3    H230894   5.932   6.095  16.589
 3087TIP3   OH230895   6.419   5.708  16.400
 3087TIP3    H130896   6.488   5.638  16.400
 3087TIP3    H230897   6.412   5.722  16.304
 3088TIP3   OH230898   6.454   5.865  16.612
 3088TIP3    H130899   6.442   5.818  16.526
 3088TIP3    H230900   6.402   5.947  16.599
 3089TIP3   OH230901   5.769   7.019  14.871
 3089TIP3    H130902   5.864   7.026  14.889
 3089TIP3    H230903   5.774   6.954  14.800
 3090TIP3   OH230904   5.711   7.367  15.561
 3090TIP3    H130905   5.679   7.279  15.583
 3090TIP3    H230906   5.738   7.403  15.646
 3091TIP3   OH230907   7.256   6.997  16.600
 3091TIP3    H130908   7.181   6.977  16.659
 3091TIP3    H230909   7.311   7.052  16.658
 3092TIP3   OH230910   7.271   7.178  16.081
 3092TIP3    H130911   7.204   7.218  16.137
 3092TIP3    H230912   7.219   7.140  16.006
 3093TIP3   OH230913   7.185   6.475  15.406
 3093TIP3    H130914   7.208   6.381  15.409
 3093TIP3    H230915   7.188   6.495  15.501
 3094TIP3   OH230916   5.727   6.678  15.809
 3094TIP3    H130917   5.744   6.669  15.713
 3094TIP3    H230918   5.816   6.660  15.845
 3095TIP3   OH230919  -0.042   6.669  16.399
 3095TIP3    H130920   0.018   6.592  16.402
 3095TIP3    H230921   0.015   6.741  16.369
 3096TIP3   OH230922   7.216   6.231  15.788
 3096TIP3    H130923   7.311   6.242  15.771
 3096TIP3    H230924   7.217   6.281  15.872
 3097TIP3   OH230925   7.261   6.355  16.085
 3097TIP3    H130926   7.171   6.385  16.106
 3097TIP3    H230927   7.302   6.432  16.042
 3098TIP3   OH230928   5.687   6.206  16.424
 3098TIP3    H130929   5.781   6.189  16.443
 3098TIP3    H230930   5.640   6.125  16.453
 3099TIP3   OH230931   7.177   5.930  15.313
 3099TIP3    H130932   7.269   5.911  15.336
 3099TIP3    H230933   7.173   5.887  15.224
 3100TIP3   OH230934   5.808   6.037  15.710
 3100TIP3    H130935   5.854   5.954  15.735
 3100TIP3    H230936   5.864   6.106  15.749
 3101TIP3   OH230937   5.636   6.337  15.814
 3101TIP3    H130938   5.693   6.312  15.738
 3101TIP3    H230939   5.683   6.418  15.840
 3102TIP3   OH230940   5.677   5.967  15.233
 3102TIP3    H130941   5.582   5.970  15.213
 3102TIP3    H230942   5.718   5.995  15.150
 3103TIP3   OH230943   5.669   5.829  16.053
 3103TIP3    H130944   5.599   5.808  16.117
 3103TIP3    H230945   5.623   5.895  15.997
 3104TIP3   OH230946   5.890   7.154  16.466
 3104TIP3    H130947   5.804   7.171  16.424
 3104TIP3    H230948   5.866   7.139  16.558
 3105TIP3   OH230949   6.186   7.248  16.101
 3105TIP3    H130950   6.140   7.324  16.063
 3105TIP3    H230951   6.273   7.251  16.058
 3106TIP3   OH230952   6.072   7.295  15.634
 3106TIP3    H130953   6.058   7.208  15.674
 3106TIP3    H230954   6.149   7.320  15.692
 3107TIP3   OH230955   6.291   7.299  15.762
 3107TIP3    H130956   6.354   7.240  15.719
 3107TIP3    H230957   6.337   7.339  15.837
 3108TIP3   OH230958   6.685   5.921  15.656
 3108TIP3    H130959   6.616   5.858  15.682
 3108TIP3    H230960   6.738   5.870  15.594
 3109TIP3   OH230961   7.198   5.725  15.665
 3109TIP3    H130962   7.253   5.789  15.618
 3109TIP3    H230963   7.109   5.759  15.642
 3110TIP3   OH230964   5.918   5.785  15.443
 3110TIP3    H130965   5.840   5.766  15.387
 3110TIP3    H230966   5.966   5.701  15.433
 3111TIP3   OH230967   6.366   5.778  15.419
 3111TIP3    H130968   6.457   5.813  15.409
 3111TIP3    H230969   6.366   5.754  15.512
 3112TIP3   OH230970   6.942   5.775  15.580
 3112TIP3    H130971   6.932   5.791  15.484
 3112TIP3    H230972   6.900   5.686  15.593
 3113TIP3   OH230973   7.065   5.772  15.144
 3113TIP3    H130974   6.996   5.838  15.128
 3113TIP3    H230975   7.013   5.691  15.161
 3114TIP3   OH230976   5.779  -0.007  15.142
 3114TIP3    H130977   5.729  -0.008  15.059
 3114TIP3    H230978   5.800   0.085  15.154
 3115TIP3   OH230979   5.910   5.829  16.373
 3115TIP3    H130980   5.869   5.747  16.410
 3115TIP3    H230981   6.005   5.819  16.400
 3116TIP3   OH230982   6.106   5.778  16.551
 3116TIP3    H130983   6.196   5.746  16.526
 3116TIP3    H230984   6.077   5.692  16.592
 3117TIP3   OH230985   6.950   5.708  16.564
 3117TIP3    H130986   6.958   5.658  16.648
 3117TIP3    H230987   7.041   5.702  16.527
 3118TIP3   OH230988   7.265   7.308  16.444
 3118TIP3    H130989   7.199   7.290  16.375
 3118TIP3    H230990   7.266   7.405  16.443
 3119TIP3   OH230991   1.040   0.814  16.761
 3119TIP3    H130992   1.112   0.824  16.827
 3119TIP3    H230993   1.080   0.749  16.702
 3120TIP3   OH230994   1.264   0.891  16.908
 3120TIP3    H130995   1.305   0.919  16.994
 3120TIP3    H230996   1.303   0.953  16.843
 3121TIP3   OH230997   1.634   0.085  16.906
 3121TIP3    H130998   1.546   0.102  16.938
 3121TIP3    H230999   1.664   0.169  16.871
 3122TIP3   OH231000   1.757   1.518  16.736
 3122TIP3    H131001   1.771   1.610  16.763
 3122TIP3    H231002   1.848   1.485  16.747
 3123TIP3   OH231003   1.299   1.793  16.816
 3123TIP3    H131004   1.341   1.718  16.766
 3123TIP3    H231005   1.305   1.761  16.907
 3124TIP3   OH231006   1.416   1.008  16.701
 3124TIP3    H131007   1.413   0.991  16.604
 3124TIP3    H231008   1.504   1.052  16.704
 3125TIP3   OH231009   0.988   0.381  16.768
 3125TIP3    H131010   0.931   0.405  16.841
 3125TIP3    H231011   0.938   0.312  16.720
 3126TIP3   OH231012   0.658   0.441  16.667
 3126TIP3    H131013   0.608   0.397  16.739
 3126TIP3    H231014   0.586   0.479  16.614
 3127TIP3   OH231015   0.115   0.486  16.904
 3127TIP3    H131016   0.168   0.550  16.852
 3127TIP3    H231017   0.040   0.534  16.937
 3128TIP3   OH231018   0.526   0.710  16.809
 3128TIP3    H131019   0.470   0.680  16.735
 3128TIP3    H231020   0.605   0.738  16.760
 3129TIP3   OH231021   1.236   0.450  16.826
 3129TIP3    H131022   1.146   0.475  16.798
 3129TIP3    H231023   1.277   0.535  16.856
 3130TIP3   OH231024   1.319   0.643  16.978
 3130TIP3    H131025   1.409   0.636  17.014
 3130TIP3    H231026   1.322   0.727  16.928
 3131TIP3   OH231027   1.069   1.316  16.902
 3131TIP3    H131028   1.033   1.400  16.934
 3131TIP3    H231029   0.999   1.254  16.925
 3132TIP3   OH231030   1.785   0.611  16.958
 3132TIP3    H131031   1.743   0.610  16.870
 3132TIP3    H231032   1.814   0.707  16.947
 3133TIP3   OH231033   0.175   0.941  16.774
 3133TIP3    H131034   0.240   1.002  16.819
 3133TIP3    H231035   0.093   0.977  16.805
 3134TIP3   OH231036   1.380   1.345  16.781
 3134TIP3    H131037   1.411   1.311  16.865
 3134TIP3    H231038   1.284   1.330  16.790
 3135TIP3   OH231039   1.821   1.785  16.803
 3135TIP3    H131040   1.898   1.844  16.798
 3135TIP3    H231041   1.754   1.847  16.836
 3136TIP3   OH231042   0.791   1.454  16.628
 3136TIP3    H131043   0.801   1.376  16.572
 3136TIP3    H231044   0.751   1.414  16.709
 3137TIP3   OH231045   0.671   1.403  16.873
 3137TIP3    H131046   0.692   1.359  16.956
 3137TIP3    H231047   0.681   1.496  16.902
 3138TIP3   OH231048   0.305   1.130  16.911
 3138TIP3    H131049   0.258   1.164  16.986
 3138TIP3    H231050   0.373   1.200  16.898
 3139TIP3   OH231051   0.910   1.549  16.876
 3139TIP3    H131052   0.849   1.609  16.925
 3139TIP3    H231053   0.986   1.610  16.866
 3140TIP3   OH231054   0.691   1.678  16.953
 3140TIP3    H131055   0.694   1.755  16.891
 3140TIP3    H231056   0.663   1.720  17.035
 3141TIP3   OH231057   0.545   0.330  16.884
 3141TIP3    H131058   0.519   0.415  16.924
 3141TIP3    H231059   0.633   0.324  16.923
 3142TIP3   OH231060   0.379   1.394  16.812
 3142TIP3    H131061   0.443   1.459  16.843
 3142TIP3    H231062   0.434   1.348  16.746
 3143TIP3   OH231063   0.222   0.664  16.718
 3143TIP3    H131064   0.218   0.756  16.747
 3143TIP3    H231065   0.129   0.642  16.703
 3144TIP3   OH231066   0.993   1.643  16.640
 3144TIP3    H131067   0.925   1.577  16.666
 3144TIP3    H231068   1.064   1.582  16.614
 3145TIP3   OH231069   1.448   1.616  16.656
 3145TIP3    H131070   1.476   1.541  16.711
 3145TIP3    H231071   1.528   1.635  16.604
 3146TIP3   OH231072   0.536   1.207  16.645
 3146TIP3    H131073   0.554   1.132  16.704
 3146TIP3    H231074   0.611   1.199  16.584
 3147TIP3   OH231075   1.085   1.318  16.626
 3147TIP3    H131076   1.055   1.327  16.717
 3147TIP3    H231077   1.061   1.224  16.606
 3148TIP3   OH231078   0.657   1.008  16.879
 3148TIP3    H131079   0.611   0.955  16.946
 3148TIP3    H231080   0.688   0.941  16.814
 3149TIP3   OH231081   0.763   0.830  16.704
 3149TIP3    H131082   0.752   0.823  16.607
 3149TIP3    H231083   0.861   0.838  16.713
 3150TIP3   OH231084   1.682   1.068  16.626
 3150TIP3    H131085   1.676   1.030  16.539
 3150TIP3    H231086   1.705   1.163  16.616
 3151TIP3   OH231087   0.752   1.903  16.817
 3151TIP3    H131088   0.850   1.911  16.820
 3151TIP3    H231089   0.733   1.962  16.742
 3152TIP3   OH231090   0.116   1.366  16.767
 3152TIP3    H131091   0.212   1.374  16.782
 3152TIP3    H231092   0.116   1.301  16.695
 3153TIP3   OH231093   1.762   1.037  16.857
 3153TIP3    H131094   1.782   0.980  16.780
 3153TIP3    H231095   1.830   1.005  16.918
 3154TIP3   OH231096   1.652   0.671  16.725
 3154TIP3    H131097   1.664   0.736  16.655
 3154TIP3    H231098   1.635   0.588  16.676
 3155TIP3   OH231099   1.576   0.415  16.641
 3155TIP3    H131100   1.639   0.374  16.704
 3155TIP3    H231101   1.492   0.371  16.658
 3156TIP3   OH231102   1.786   0.302  16.788
 3156TIP3    H131103   1.830   0.226  16.744
 3156TIP3    H231104   1.859   0.366  16.801
 3157TIP3   OH231105   0.185   0.117  16.907
 3157TIP3    H131106   0.196   0.182  16.837
 3157TIP3    H231107   0.105   0.145  16.953
 3158TIP3   OH231108   0.321   0.303  16.740
 3158TIP3    H131109   0.375   0.237  16.691
 3158TIP3    H231110   0.383   0.327  16.812
 3159TIP3   OH231111   1.017   1.826  16.833
 3159TIP3    H131112   1.108   1.853  16.814
 3159TIP3    H231113   0.998   1.774  16.752
 3160TIP3   OH231114   0.307   1.794  16.692
 3160TIP3    H131115   0.285   1.823  16.782
 3160TIP3    H231116   0.388   1.741  16.708
 3161TIP3   OH231117   2.929   0.819  16.755
 3161TIP3    H131118   2.995   0.823  16.828
 3161TIP3    H231119   2.966   0.746  16.705
 3162TIP3   OH231120   3.152   0.890  16.908
 3162TIP3    H131121   3.191   0.918  16.994
 3162TIP3    H231122   3.188   0.953  16.843
 3163TIP3   OH231123   3.522   0.088  16.908
 3163TIP3    H131124   3.431   0.100  16.936
 3163TIP3    H231125   3.548   0.173  16.871
 3164TIP3   OH231126   3.642   1.517  16.733
 3164TIP3    H131127   3.658   1.609  16.765
 3164TIP3    H231128   3.733   1.485  16.747
 3165TIP3   OH231129   3.185   1.793  16.814
 3165TIP3    H131130   3.226   1.717  16.768
 3165TIP3    H231131   3.190   1.764  16.907
 3166TIP3   OH231132   3.305   1.006  16.704
 3166TIP3    H131133   3.298   0.987  16.607
 3166TIP3    H231134   3.390   1.053  16.704
 3167TIP3   OH231135   2.865   0.396  16.753
 3167TIP3    H131136   2.832   0.401  16.844
 3167TIP3    H231137   2.828   0.310  16.725
 3168TIP3   OH231138   2.550   0.437  16.663
 3168TIP3    H131139   2.497   0.399  16.737
 3168TIP3    H231140   2.472   0.479  16.620
 3169TIP3   OH231141   1.995   0.478  16.903
 3169TIP3    H131142   2.053   0.541  16.856
 3169TIP3    H231143   1.928   0.537  16.941
 3170TIP3   OH231144   2.418   0.729  16.813
 3170TIP3    H131145   2.358   0.676  16.753
 3170TIP3    H231146   2.493   0.738  16.755
 3171TIP3   OH231147   3.131   0.461  16.810
 3171TIP3    H131148   3.034   0.466  16.810
 3171TIP3    H231149   3.160   0.538  16.861
 3172TIP3   OH231150   3.203   0.644  16.981
 3172TIP3    H131151   3.293   0.632  17.014
 3172TIP3    H231152   3.208   0.726  16.928
 3173TIP3   OH231153   2.955   1.317  16.902
 3173TIP3    H131154   2.919   1.400  16.934
 3173TIP3    H231155   2.885   1.255  16.924
 3174TIP3   OH231156   3.708   0.665  16.945
 3174TIP3    H131157   3.643   0.630  16.880
 3174TIP3    H231158   3.706   0.760  16.920
 3175TIP3   OH231159   2.100   0.999  16.734
 3175TIP3    H131160   2.147   1.011  16.820
 3175TIP3    H231161   2.016   0.968  16.775
 3176TIP3   OH231162   3.267   1.344  16.780
 3176TIP3    H131163   3.296   1.311  16.865
 3176TIP3    H231164   3.170   1.332  16.792
 3177TIP3   OH231165   3.707   1.784  16.803
 3177TIP3    H131166   3.784   1.844  16.798
 3177TIP3    H231167   3.640   1.847  16.836
 3178TIP3   OH231168   2.677   1.454  16.628
 3178TIP3    H131169   2.687   1.376  16.572
 3178TIP3    H231170   2.637   1.414  16.709
 3179TIP3   OH231171   2.558   1.404  16.872
 3179TIP3    H131172   2.577   1.359  16.956
 3179TIP3    H231173   2.569   1.496  16.903
 3180TIP3   OH231174   2.201   1.134  16.923
 3180TIP3    H131175   2.137   1.169  16.983
 3180TIP3    H231176   2.261   1.208  16.900
 3181TIP3   OH231177   2.796   1.549  16.876
 3181TIP3    H131178   2.735   1.609  16.925
 3181TIP3    H231179   2.872   1.610  16.866
 3182TIP3   OH231180   2.578   1.677  16.954
 3182TIP3    H131181   2.582   1.754  16.891
 3182TIP3    H231182   2.550   1.720  17.036
 3183TIP3   OH231183   2.441   0.312  16.904
 3183TIP3    H131184   2.406   0.404  16.914
 3183TIP3    H231185   2.532   0.326  16.927
 3184TIP3   OH231186   2.263   1.396  16.812
 3184TIP3    H131187   2.330   1.458  16.843
 3184TIP3    H231188   2.318   1.348  16.747
 3185TIP3   OH231189   2.083   0.689  16.683
 3185TIP3    H131190   2.087   0.760  16.752
 3185TIP3    H231191   2.000   0.648  16.706
 3186TIP3   OH231192   2.879   1.644  16.640
 3186TIP3    H131193   2.809   1.578  16.667
 3186TIP3    H231194   2.948   1.582  16.615
 3187TIP3   OH231195   3.330   1.606  16.641
 3187TIP3    H131196   3.360   1.546  16.713
 3187TIP3    H231197   3.416   1.642  16.612
 3188TIP3   OH231198   2.423   1.207  16.645
 3188TIP3    H131199   2.439   1.132  16.704
 3188TIP3    H231200   2.498   1.199  16.584
 3189TIP3   OH231201   2.974   1.315  16.625
 3189TIP3    H131202   2.940   1.327  16.716
 3189TIP3    H231203   2.945   1.222  16.607
 3190TIP3   OH231204   2.540   1.007  16.880
 3190TIP3    H131205   2.492   0.953  16.945
 3190TIP3    H231206   2.569   0.939  16.815
 3191TIP3   OH231207   2.653   0.831  16.704
 3191TIP3    H131208   2.633   0.823  16.608
 3191TIP3    H231209   2.750   0.839  16.712
 3192TIP3   OH231210   3.584   1.067  16.656
 3192TIP3    H131211   3.567   1.028  16.568
 3192TIP3    H231212   3.596   1.161  16.630
 3193TIP3   OH231213   2.636   1.904  16.817
 3193TIP3    H131214   2.734   1.911  16.820
 3193TIP3    H231215   2.619   1.962  16.742
 3194TIP3   OH231216   1.989   1.364  16.758
 3194TIP3    H131217   2.085   1.369  16.780
 3194TIP3    H231218   1.994   1.292  16.691
 3195TIP3   OH231219   3.709   0.943  16.861
 3195TIP3    H131220   3.658   0.984  16.786
 3195TIP3    H231221   3.706   1.009  16.933
 3196TIP3   OH231222   3.541   0.673  16.725
 3196TIP3    H131223   3.547   0.736  16.652
 3196TIP3    H231224   3.521   0.590  16.677
 3197TIP3   OH231225   3.465   0.417  16.642
 3197TIP3    H131226   3.526   0.372  16.703
 3197TIP3    H231227   3.380   0.373  16.660
 3198TIP3   OH231228   3.672   0.304  16.788
 3198TIP3    H131229   3.714   0.226  16.744
 3198TIP3    H231230   3.746   0.367  16.800
 3199TIP3   OH231231   2.018   0.102  16.899
 3199TIP3    H131232   2.076   0.163  16.849
 3199TIP3    H231233   1.969   0.163  16.953
 3200TIP3   OH231234   2.212   0.217  16.772
 3200TIP3    H131235   2.258   0.232  16.689
 3200TIP3    H231236   2.243   0.304  16.810
 3201TIP3   OH231237   2.902   1.827  16.834
 3201TIP3    H131238   2.993   1.853  16.814
 3201TIP3    H231239   2.882   1.775  16.753
 3202TIP3   OH231240   2.197   1.797  16.693
 3202TIP3    H131241   2.170   1.821  16.783
 3202TIP3    H231242   2.274   1.738  16.707
 3203TIP3   OH231243   4.829   0.819  16.747
 3203TIP3    H131244   4.901   0.822  16.815
 3203TIP3    H231245   4.862   0.745  16.694
 3204TIP3   OH231246   5.034   0.890  16.911
 3204TIP3    H131247   5.076   0.920  16.996
 3204TIP3    H231248   5.077   0.950  16.846
 3205TIP3   OH231249   5.409   0.088  16.912
 3205TIP3    H131250   5.316   0.100  16.934
 3205TIP3    H231251   5.434   0.170  16.868
 3206TIP3   OH231252   5.528   1.517  16.736
 3206TIP3    H131253   5.542   1.609  16.764
 3206TIP3    H231254   5.620   1.486  16.748
 3207TIP3   OH231255   5.070   1.792  16.815
 3207TIP3    H131256   5.112   1.718  16.766
 3207TIP3    H231257   5.076   1.761  16.906
 3208TIP3   OH231258   5.189   1.006  16.701
 3208TIP3    H131259   5.182   0.990  16.604
 3208TIP3    H231260   5.273   1.055  16.702
 3209TIP3   OH231261   4.741   0.402  16.755
 3209TIP3    H131262   4.717   0.394  16.848
 3209TIP3    H231263   4.719   0.312  16.723
 3210TIP3   OH231264   4.428   0.443  16.668
 3210TIP3    H131265   4.380   0.395  16.738
 3210TIP3    H231266   4.356   0.477  16.613
 3211TIP3   OH231267   3.878   0.476  16.904
 3211TIP3    H131268   3.935   0.541  16.857
 3211TIP3    H231269   3.814   0.538  16.943
 3212TIP3   OH231270   4.300   0.709  16.810
 3212TIP3    H131271   4.238   0.679  16.739
 3212TIP3    H231272   4.373   0.738  16.755
 3213TIP3   OH231273   5.011   0.456  16.829
 3213TIP3    H131274   4.918   0.467  16.803
 3213TIP3    H231275   5.045   0.543  16.856
 3214TIP3   OH231276   5.087   0.647  16.981
 3214TIP3    H131277   5.177   0.633  17.012
 3214TIP3    H231278   5.095   0.729  16.928
 3215TIP3   OH231279   4.840   1.316  16.898
 3215TIP3    H131280   4.808   1.399  16.936
 3215TIP3    H231281   4.770   1.257  16.925
 3216TIP3   OH231282   5.593   0.665  16.946
 3216TIP3    H131283   5.531   0.630  16.878
 3216TIP3    H231284   5.594   0.759  16.918
 3217TIP3   OH231285   3.958   0.943  16.769
 3217TIP3    H131286   4.015   1.004  16.820
 3217TIP3    H231287   3.869   0.969  16.800
 3218TIP3   OH231288   5.153   1.342  16.783
 3218TIP3    H131289   5.180   1.310  16.869
 3218TIP3    H231290   5.056   1.332  16.793
 3219TIP3   OH231291   5.592   1.785  16.802
 3219TIP3    H131292   5.669   1.844  16.798
 3219TIP3    H231293   5.525   1.847  16.836
 3220TIP3   OH231294   4.566   1.454  16.630
 3220TIP3    H131295   4.571   1.377  16.571
 3220TIP3    H231296   4.521   1.414  16.708
 3221TIP3   OH231297   4.444   1.404  16.874
 3221TIP3    H131298   4.463   1.360  16.958
 3221TIP3    H231299   4.455   1.497  16.903
 3222TIP3   OH231300   4.079   1.135  16.911
 3222TIP3    H131301   4.025   1.166  16.985
 3222TIP3    H231302   4.147   1.204  16.899
 3223TIP3   OH231303   4.682   1.550  16.876
 3223TIP3    H131304   4.621   1.609  16.925
 3223TIP3    H231305   4.757   1.610  16.866
 3224TIP3   OH231306   4.462   1.678  16.954
 3224TIP3    H131307   4.468   1.755  16.892
 3224TIP3    H231308   4.437   1.719  17.037
 3225TIP3   OH231309   4.314   0.330  16.886
 3225TIP3    H131310   4.291   0.415  16.926
 3225TIP3    H231311   4.404   0.322  16.921
 3226TIP3   OH231312   4.150   1.396  16.811
 3226TIP3    H131313   4.216   1.458  16.842
 3226TIP3    H231314   4.203   1.349  16.744
 3227TIP3   OH231315   3.982   0.662  16.730
 3227TIP3    H131316   3.983   0.758  16.748
 3227TIP3    H231317   3.894   0.644  16.697
 3228TIP3   OH231318   4.765   1.643  16.640
 3228TIP3    H131319   4.695   1.577  16.665
 3228TIP3    H231320   4.836   1.582  16.615
 3229TIP3   OH231321   5.219   1.615  16.654
 3229TIP3    H131322   5.248   1.542  16.711
 3229TIP3    H231323   5.299   1.636  16.604
 3230TIP3   OH231324   4.308   1.209  16.648
 3230TIP3    H131325   4.324   1.131  16.702
 3230TIP3    H231326   4.378   1.202  16.580
 3231TIP3   OH231327   4.856   1.319  16.625
 3231TIP3    H131328   4.825   1.330  16.716
 3231TIP3    H231329   4.833   1.224  16.607
 3232TIP3   OH231330   4.441   1.001  16.886
 3232TIP3    H131331   4.376   0.958  16.944
 3232TIP3    H231332   4.449   0.940  16.811
 3233TIP3   OH231333   4.544   0.828  16.708
 3233TIP3    H131334   4.516   0.822  16.612
 3233TIP3    H231335   4.639   0.845  16.692
 3234TIP3   OH231336   5.470   1.069  16.655
 3234TIP3    H131337   5.453   1.029  16.568
 3234TIP3    H231338   5.478   1.164  16.629
 3235TIP3   OH231339   4.523   1.908  16.820
 3235TIP3    H131340   4.621   1.911  16.820
 3235TIP3    H231341   4.505   1.962  16.742
 3236TIP3   OH231342   3.875   1.361  16.760
 3236TIP3    H131343   3.970   1.372  16.780
 3236TIP3    H231344   3.882   1.295  16.688
 3237TIP3   OH231345   5.593   0.940  16.861
 3237TIP3    H131346   5.542   0.982  16.787
 3237TIP3    H231347   5.594   1.009  16.931
 3238TIP3   OH231348   5.428   0.674  16.728
 3238TIP3    H131349   5.432   0.735  16.652
 3238TIP3    H231350   5.406   0.590  16.682
 3239TIP3   OH231351   5.350   0.426  16.655
 3239TIP3    H131352   5.411   0.369  16.704
 3239TIP3    H231353   5.269   0.373  16.649
 3240TIP3   OH231354   5.559   0.303  16.788
 3240TIP3    H131355   5.599   0.226  16.743
 3240TIP3    H231356   5.632   0.367  16.798
 3241TIP3   OH231357   3.917   0.105  16.900
 3241TIP3    H131358   3.957   0.172  16.844
 3241TIP3    H231359   3.855   0.158  16.950
 3242TIP3   OH231360   4.091   0.301  16.742
 3242TIP3    H131361   4.145   0.238  16.691
 3242TIP3    H231362   4.154   0.327  16.812
 3243TIP3   OH231363   4.788   1.826  16.833
 3243TIP3    H131364   4.879   1.853  16.814
 3243TIP3    H231365   4.769   1.774  16.752
 3244TIP3   OH231366   4.082   1.801  16.696
 3244TIP3    H131367   4.056   1.821  16.787
 3244TIP3    H231368   4.157   1.738  16.705
 3245TIP3   OH231369   6.698   0.819  16.757
 3245TIP3    H131370   6.767   0.823  16.826
 3245TIP3    H231371   6.735   0.748  16.704
 3246TIP3   OH231372   6.922   0.891  16.910
 3246TIP3    H131373   6.964   0.919  16.994
 3246TIP3    H231374   6.960   0.951  16.842
 3247TIP3   OH231375   7.265   0.082  16.886
 3247TIP3    H131376   7.192   0.104  16.945
 3247TIP3    H231377   7.309   0.164  16.868
 3248TIP3   OH231378   6.955   1.793  16.812
 3248TIP3    H131379   6.997   1.717  16.765
 3248TIP3    H231380   6.957   1.763  16.905
 3249TIP3   OH231381   7.079   1.002  16.702
 3249TIP3    H131382   7.070   0.986  16.605
 3249TIP3    H231383   7.158   1.055  16.704
 3250TIP3   OH231384   6.632   0.397  16.754
 3250TIP3    H131385   6.603   0.399  16.846
 3250TIP3    H231386   6.600   0.310  16.725
 3251TIP3   OH231387   6.313   0.442  16.666
 3251TIP3    H131388   6.266   0.396  16.739
 3251TIP3    H231389   6.241   0.480  16.614
 3252TIP3   OH231390   5.764   0.477  16.906
 3252TIP3    H131391   5.821   0.540  16.857
 3252TIP3    H231392   5.700   0.539  16.942
 3253TIP3   OH231393   6.184   0.709  16.809
 3253TIP3    H131394   6.127   0.680  16.735
 3253TIP3    H231395   6.262   0.739  16.760
 3254TIP3   OH231396   6.899   0.456  16.814
 3254TIP3    H131397   6.802   0.466  16.805
 3254TIP3    H231398   6.927   0.538  16.860
 3255TIP3   OH231399   6.975   0.646  16.980
 3255TIP3    H131400   7.064   0.632  17.010
 3255TIP3    H231401   6.976   0.728  16.927
 3256TIP3   OH231402   6.725   1.317  16.902
 3256TIP3    H131403   6.689   1.401  16.935
 3256TIP3    H231404   6.655   1.254  16.925
 3257TIP3   OH231405   5.841   0.944  16.768
 3257TIP3    H131406   5.900   1.004  16.820
 3257TIP3    H231407   5.753   0.970  16.800
 3258TIP3   OH231408   7.036   1.341  16.782
 3258TIP3    H131409   7.062   1.310  16.868
 3258TIP3    H231410   6.939   1.331  16.789
 3259TIP3   OH231411   6.446   1.454  16.627
 3259TIP3    H131412   6.460   1.376  16.573
 3259TIP3    H231413   6.408   1.414  16.708
 3260TIP3   OH231414   6.328   1.403  16.872
 3260TIP3    H131415   6.349   1.359  16.956
 3260TIP3    H231416   6.340   1.496  16.903
 3261TIP3   OH231417   5.964   1.134  16.912
 3261TIP3    H131418   5.911   1.165  16.985
 3261TIP3    H231419   6.032   1.203  16.900
 3262TIP3   OH231420   6.567   1.549  16.876
 3262TIP3    H131421   6.507   1.609  16.925
 3262TIP3    H231422   6.643   1.610  16.866
 3263TIP3   OH231423   6.349   1.677  16.954
 3263TIP3    H131424   6.353   1.753  16.891
 3263TIP3    H231425   6.321   1.720  17.036
 3264TIP3   OH231426   6.200   0.330  16.885
 3264TIP3    H131427   6.179   0.416  16.925
 3264TIP3    H231428   6.291   0.324  16.920
 3265TIP3   OH231429   6.034   1.396  16.813
 3265TIP3    H131430   6.101   1.458  16.844
 3265TIP3    H231431   6.089   1.349  16.748
 3266TIP3   OH231432   5.869   0.664  16.728
 3266TIP3    H131433   5.868   0.760  16.748
 3266TIP3    H231434   5.781   0.643  16.698
 3267TIP3   OH231435   6.650   1.642  16.638
 3267TIP3    H131436   6.581   1.577  16.666
 3267TIP3    H231437   6.722   1.581  16.615
 3268TIP3   OH231438   7.104   1.618  16.661
 3268TIP3    H131439   7.132   1.540  16.711
 3268TIP3    H231440   7.181   1.635  16.603
 3269TIP3   OH231441   6.192   1.204  16.640
 3269TIP3    H131442   6.210   1.134  16.705
 3269TIP3    H231443   6.273   1.198  16.587
 3270TIP3   OH231444   6.743   1.319  16.625
 3270TIP3    H131445   6.711   1.328  16.717
 3270TIP3    H231446   6.718   1.225  16.607
 3271TIP3   OH231447   6.312   1.008  16.879
 3271TIP3    H131448   6.268   0.955  16.946
 3271TIP3    H231449   6.344   0.941  16.815
 3272TIP3   OH231450   6.422   0.830  16.705
 3272TIP3    H131451   6.409   0.819  16.608
 3272TIP3    H231452   6.520   0.838  16.713
 3273TIP3   OH231453   6.408   1.904  16.817
 3273TIP3    H131454   6.505   1.911  16.820
 3273TIP3    H231455   6.390   1.963  16.741
 3274TIP3   OH231456   5.760   1.359  16.761
 3274TIP3    H131457   5.855   1.371  16.781
 3274TIP3    H231458   5.767   1.294  16.689
 3275TIP3   OH231459   7.296   0.672  16.727
 3275TIP3    H131460   7.317   0.733  16.655
 3275TIP3    H231461   7.286   0.587  16.678
 3276TIP3   OH231462   7.238   0.417  16.641
 3276TIP3    H131463   7.292   0.373  16.707
 3276TIP3    H231464   7.151   0.375  16.654
 3277TIP3   OH231465   5.803   0.105  16.900
 3277TIP3    H131466   5.842   0.172  16.844
 3277TIP3    H231467   5.741   0.158  16.950
 3278TIP3   OH231468   5.977   0.301  16.742
 3278TIP3    H131469   6.031   0.238  16.691
 3278TIP3    H231470   6.041   0.328  16.812
 3279TIP3   OH231471   6.673   1.826  16.833
 3279TIP3    H131472   6.765   1.853  16.813
 3279TIP3    H231473   6.655   1.774  16.752
 3280TIP3   OH231474   5.968   1.797  16.693
 3280TIP3    H131475   5.941   1.821  16.783
 3280TIP3    H231476   6.045   1.738  16.707
 3281TIP3   OH231477   1.042   2.704  16.759
 3281TIP3    H131478   1.112   2.708  16.827
 3281TIP3    H231479   1.078   2.634  16.704
 3282TIP3   OH231480   1.266   2.776  16.908
 3282TIP3    H131481   1.305   2.806  16.994
 3282TIP3    H231482   1.303   2.838  16.842
 3283TIP3   OH231483   1.644   1.971  16.921
 3283TIP3    H131484   1.548   1.972  16.930
 3283TIP3    H231485   1.663   2.050  16.868
 3284TIP3   OH231486   1.757   3.402  16.737
 3284TIP3    H131487   1.772   3.494  16.763
 3284TIP3    H231488   1.849   3.370  16.747
 3285TIP3   OH231489   1.293   3.674  16.813
 3285TIP3    H131490   1.343   3.603  16.767
 3285TIP3    H231491   1.306   3.651  16.907
 3286TIP3   OH231492   1.420   2.892  16.702
 3286TIP3    H131493   1.412   2.875  16.604
 3286TIP3    H231494   1.503   2.941  16.702
 3287TIP3   OH231495   0.973   2.282  16.753
 3287TIP3    H131496   0.945   2.284  16.846
 3287TIP3    H231497   0.944   2.193  16.725
 3288TIP3   OH231498   0.658   2.322  16.665
 3288TIP3    H131499   0.609   2.283  16.741
 3288TIP3    H231500   0.587   2.365  16.614
 3289TIP3   OH231501   0.116   2.369  16.902
 3289TIP3    H131502   0.168   2.435  16.852
 3289TIP3    H231503   0.041   2.418  16.937
 3290TIP3   OH231504   0.526   2.595  16.809
 3290TIP3    H131505   0.470   2.565  16.735
 3290TIP3    H231506   0.605   2.624  16.760
 3291TIP3   OH231507   1.244   2.339  16.816
 3291TIP3    H131508   1.149   2.353  16.805
 3291TIP3    H231509   1.275   2.423  16.856
 3292TIP3   OH231510   1.318   2.531  16.983
 3292TIP3    H131511   1.410   2.520  17.010
 3292TIP3    H231512   1.320   2.610  16.927
 3293TIP3   OH231513   1.071   3.200  16.903
 3293TIP3    H131514   1.036   3.284  16.934
 3293TIP3    H231515   1.000   3.139  16.925
 3294TIP3   OH231516   1.820   2.549  16.946
 3294TIP3    H131517   1.759   2.514  16.877
 3294TIP3    H231518   1.820   2.643  16.921
 3295TIP3   OH231519   0.175   2.826  16.774
 3295TIP3    H131520   0.240   2.887  16.819
 3295TIP3    H231521   0.093   2.863  16.805
 3296TIP3   OH231522   1.382   3.227  16.780
 3296TIP3    H131523   1.410   3.196  16.867
 3296TIP3    H231524   1.285   3.218  16.791
 3297TIP3   OH231525   1.830   3.662  16.796
 3297TIP3    H131526   1.902   3.727  16.796
 3297TIP3    H231527   1.759   3.722  16.830
 3298TIP3   OH231528   0.789   3.341  16.630
 3298TIP3    H131529   0.802   3.264  16.571
 3298TIP3    H231530   0.752   3.296  16.708
 3299TIP3   OH231531   0.660   3.297  16.879
 3299TIP3    H131532   0.695   3.241  16.952
 3299TIP3    H231533   0.702   3.381  16.900
 3300TIP3   OH231534   0.306   3.016  16.911
 3300TIP3    H131535   0.257   3.049  16.986
 3300TIP3    H231536   0.373   3.085  16.898
 3301TIP3   OH231537   0.911   3.431  16.876
 3301TIP3    H131538   0.855   3.495  16.924
 3301TIP3    H231539   0.988   3.491  16.864
 3302TIP3   OH231540   0.714   3.577  16.955
 3302TIP3    H131541   0.713   3.652  16.888
 3302TIP3    H231542   0.690   3.623  17.037
 3303TIP3   OH231543   0.544   2.221  16.886
 3303TIP3    H131544   0.523   2.305  16.928
 3303TIP3    H231545   0.633   2.208  16.923
 3304TIP3   OH231546   0.380   3.280  16.814
 3304TIP3    H131547   0.448   3.342  16.835
 3304TIP3    H231548   0.430   3.231  16.746
 3305TIP3   OH231549   0.222   2.549  16.717
 3305TIP3    H131550   0.218   2.641  16.746
 3305TIP3    H231551   0.129   2.527  16.703
 3306TIP3   OH231552   0.991   3.528  16.640
 3306TIP3    H131553   0.925   3.461  16.665
 3306TIP3    H231554   1.064   3.469  16.615
 3307TIP3   OH231555   1.447   3.499  16.653
 3307TIP3    H131556   1.477   3.426  16.711
 3307TIP3    H231557   1.528   3.521  16.604
 3308TIP3   OH231558   0.538   3.095  16.649
 3308TIP3    H131559   0.554   3.016  16.703
 3308TIP3    H231560   0.610   3.084  16.583
 3309TIP3   OH231561   1.085   3.204  16.626
 3309TIP3    H131562   1.054   3.214  16.717
 3309TIP3    H231563   1.061   3.110  16.607
 3310TIP3   OH231564   0.657   2.893  16.879
 3310TIP3    H131565   0.611   2.841  16.946
 3310TIP3    H231566   0.688   2.826  16.814
 3311TIP3   OH231567   0.763   2.716  16.704
 3311TIP3    H131568   0.752   2.708  16.607
 3311TIP3    H231569   0.861   2.724  16.713
 3312TIP3   OH231570   1.697   2.954  16.655
 3312TIP3    H131571   1.682   2.914  16.567
 3312TIP3    H231572   1.707   3.049  16.629
 3313TIP3   OH231573   0.751   3.792  16.814
 3313TIP3    H131574   0.849   3.798  16.818
 3313TIP3    H231575   0.734   3.852  16.740
 3314TIP3   OH231576   0.115   3.252  16.767
 3314TIP3    H131577   0.212   3.257  16.781
 3314TIP3    H231578   0.114   3.186  16.695
 3315TIP3   OH231579   1.823   2.828  16.860
 3315TIP3    H131580   1.770   2.869  16.787
 3315TIP3    H231581   1.821   2.894  16.933
 3316TIP3   OH231582   1.656   2.558  16.724
 3316TIP3    H131583   1.662   2.622  16.652
 3316TIP3    H231584   1.636   2.474  16.677
 3317TIP3   OH231585   1.579   2.301  16.638
 3317TIP3    H131586   1.639   2.259  16.702
 3317TIP3    H231587   1.493   2.261  16.658
 3318TIP3   OH231588   1.784   2.188  16.790
 3318TIP3    H131589   1.828   2.114  16.743
 3318TIP3    H231590   1.858   2.251  16.802
 3319TIP3   OH231591   0.183   2.005  16.905
 3319TIP3    H131592   0.200   2.070  16.837
 3319TIP3    H231593   0.103   2.035  16.950
 3320TIP3   OH231594   0.324   2.189  16.741
 3320TIP3    H131595   0.376   2.122  16.693
 3320TIP3    H231596   0.386   2.210  16.814
 3321TIP3   OH231597   1.013   3.711  16.832
 3321TIP3    H131598   1.106   3.738  16.817
 3321TIP3    H231599   0.999   3.659  16.750
 3322TIP3   OH231600   0.306   3.678  16.693
 3322TIP3    H131601   0.282   3.709  16.783
 3322TIP3    H231602   0.388   3.627  16.706
 3323TIP3   OH231603   2.927   2.705  16.758
 3323TIP3    H131604   2.997   2.708  16.827
 3323TIP3    H231605   2.964   2.634  16.704
 3324TIP3   OH231606   3.152   2.775  16.909
 3324TIP3    H131607   3.191   2.804  16.995
 3324TIP3    H231608   3.187   2.839  16.844
 3325TIP3   OH231609   3.529   1.968  16.917
 3325TIP3    H131610   3.434   1.974  16.933
 3325TIP3    H231611   3.548   2.051  16.870
 3326TIP3   OH231612   3.643   3.402  16.736
 3326TIP3    H131613   3.656   3.495  16.764
 3326TIP3    H231614   3.734   3.371  16.748
 3327TIP3   OH231615   3.185   3.678  16.815
 3327TIP3    H131616   3.227   3.603  16.766
 3327TIP3    H231617   3.191   3.647  16.906
 3328TIP3   OH231618   3.306   2.891  16.701
 3328TIP3    H131619   3.297   2.874  16.604
 3328TIP3    H231620   3.388   2.942  16.704
 3329TIP3   OH231621   2.858   2.282  16.753
 3329TIP3    H131622   2.831   2.284  16.846
 3329TIP3    H231623   2.830   2.193  16.724
 3330TIP3   OH231624   2.542   2.322  16.666
 3330TIP3    H131625   2.494   2.282  16.742
 3330TIP3    H231626   2.471   2.365  16.617
 3331TIP3   OH231627   1.991   2.358  16.902
 3331TIP3    H131628   2.049   2.425  16.858
 3331TIP3    H231629   1.929   2.422  16.943
 3332TIP3   OH231630   2.413   2.595  16.809
 3332TIP3    H131631   2.356   2.565  16.736
 3332TIP3    H231632   2.491   2.624  16.760
 3333TIP3   OH231633   3.130   2.340  16.814
 3333TIP3    H131634   3.034   2.353  16.807
 3333TIP3    H231635   3.161   2.422  16.859
 3334TIP3   OH231636   3.202   2.531  16.981
 3334TIP3    H131637   3.292   2.518  17.014
 3334TIP3    H231638   3.208   2.612  16.927
 3335TIP3   OH231639   2.955   3.202  16.902
 3335TIP3    H131640   2.919   3.286  16.934
 3335TIP3    H231641   2.885   3.140  16.924
 3336TIP3   OH231642   3.707   2.551  16.945
 3336TIP3    H131643   3.643   2.514  16.879
 3336TIP3    H231644   3.706   2.645  16.920
 3337TIP3   OH231645   2.070   2.829  16.769
 3337TIP3    H131646   2.129   2.889  16.821
 3337TIP3    H231647   1.982   2.855  16.801
 3338TIP3   OH231648   3.268   3.227  16.780
 3338TIP3    H131649   3.296   3.196  16.866
 3338TIP3    H231650   3.171   3.218  16.790
 3339TIP3   OH231651   3.707   3.670  16.802
 3339TIP3    H131652   3.784   3.730  16.798
 3339TIP3    H231653   3.639   3.732  16.836
 3340TIP3   OH231654   2.677   3.340  16.628
 3340TIP3    H131655   2.687   3.262  16.572
 3340TIP3    H231656   2.637   3.300  16.709
 3341TIP3   OH231657   2.557   3.289  16.872
 3341TIP3    H131658   2.577   3.245  16.956
 3341TIP3    H231659   2.569   3.382  16.903
 3342TIP3   OH231660   2.192   3.020  16.912
 3342TIP3    H131661   2.140   3.051  16.985
 3342TIP3    H231662   2.261   3.089  16.900
 3343TIP3   OH231663   2.796   3.435  16.876
 3343TIP3    H131664   2.735   3.494  16.925
 3343TIP3    H231665   2.872   3.496  16.866
 3344TIP3   OH231666   2.578   3.563  16.954
 3344TIP3    H131667   2.581   3.639  16.891
 3344TIP3    H231668   2.550   3.606  17.036
 3345TIP3   OH231669   2.428   2.221  16.887
 3345TIP3    H131670   2.410   2.307  16.927
 3345TIP3    H231671   2.517   2.207  16.922
 3346TIP3   OH231672   2.263   3.282  16.811
 3346TIP3    H131673   2.329   3.345  16.843
 3346TIP3    H231674   2.319   3.234  16.747
 3347TIP3   OH231675   2.097   2.548  16.727
 3347TIP3    H131676   2.097   2.644  16.746
 3347TIP3    H231677   2.008   2.529  16.698
 3348TIP3   OH231678   2.879   3.529  16.640
 3348TIP3    H131679   2.810   3.462  16.666
 3348TIP3    H231680   2.950   3.467  16.615
 3349TIP3   OH231681   3.333   3.500  16.655
 3349TIP3    H131682   3.362   3.427  16.711
 3349TIP3    H231683   3.413   3.521  16.604
 3350TIP3   OH231684   2.422   3.092  16.644
 3350TIP3    H131685   2.440   3.017  16.704
 3350TIP3    H231686   2.498   3.084  16.583
 3351TIP3   OH231687   2.971   3.204  16.626
 3351TIP3    H131688   2.941   3.213  16.717
 3351TIP3    H231689   2.946   3.110  16.607
 3352TIP3   OH231690   2.542   2.893  16.879
 3352TIP3    H131691   2.497   2.841  16.946
 3352TIP3    H231692   2.572   2.826  16.814
 3353TIP3   OH231693   2.651   2.715  16.703
 3353TIP3    H131694   2.638   2.708  16.606
 3353TIP3    H231695   2.748   2.724  16.712
 3354TIP3   OH231696   3.583   2.954  16.654
 3354TIP3    H131697   3.567   2.914  16.567
 3354TIP3    H231698   3.593   3.050  16.631
 3355TIP3   OH231699   2.636   3.789  16.817
 3355TIP3    H131700   2.734   3.796  16.820
 3355TIP3    H231701   2.619   3.848  16.741
 3356TIP3   OH231702   1.989   3.246  16.761
 3356TIP3    H131703   2.084   3.256  16.781
 3356TIP3    H231704   1.995   3.180  16.689
 3357TIP3   OH231705   3.708   2.828  16.861
 3357TIP3    H131706   3.657   2.869  16.787
 3357TIP3    H231707   3.706   2.894  16.933
 3358TIP3   OH231708   3.541   2.558  16.726
 3358TIP3    H131709   3.548   2.621  16.654
 3358TIP3    H231710   3.522   2.474  16.677
 3359TIP3   OH231711   3.465   2.302  16.638
 3359TIP3    H131712   3.524   2.259  16.702
 3359TIP3    H231713   3.379   2.261  16.658
 3360TIP3   OH231714   3.670   2.187  16.792
 3360TIP3    H131715   3.713   2.113  16.743
 3360TIP3    H231716   3.743   2.251  16.801
 3361TIP3   OH231717   2.030   1.992  16.895
 3361TIP3    H131718   2.078   2.058  16.843
 3361TIP3    H231719   1.972   2.049  16.945
 3362TIP3   OH231720   2.209   2.186  16.744
 3362TIP3    H131721   2.260   2.122  16.691
 3362TIP3    H231722   2.274   2.211  16.812
 3363TIP3   OH231723   2.902   3.712  16.833
 3363TIP3    H131724   2.993   3.738  16.814
 3363TIP3    H231725   2.883   3.660  16.752
 3364TIP3   OH231726   2.200   3.683  16.692
 3364TIP3    H131727   2.171   3.707  16.782
 3364TIP3    H231728   2.275   3.623  16.707
 3365TIP3   OH231729   4.812   2.705  16.758
 3365TIP3    H131730   4.881   2.706  16.828
 3365TIP3    H231731   4.849   2.635  16.704
 3366TIP3   OH231732   5.040   2.776  16.907
 3366TIP3    H131733   5.075   2.802  16.996
 3366TIP3    H231734   5.069   2.843  16.843
 3367TIP3   OH231735   5.415   1.968  16.916
 3367TIP3    H131736   5.320   1.974  16.933
 3367TIP3    H231737   5.434   2.051  16.870
 3368TIP3   OH231738   5.531   3.399  16.738
 3368TIP3    H131739   5.540   3.493  16.763
 3368TIP3    H231740   5.624   3.374  16.748
 3369TIP3   OH231741   5.076   3.682  16.815
 3369TIP3    H131742   5.104   3.601  16.765
 3369TIP3    H231743   5.075   3.646  16.905
 3370TIP3   OH231744   5.196   2.889  16.702
 3370TIP3    H131745   5.175   2.871  16.606
 3370TIP3    H231746   5.269   2.946  16.683
 3371TIP3   OH231747   4.744   2.282  16.753
 3371TIP3    H131748   4.716   2.284  16.846
 3371TIP3    H231749   4.715   2.193  16.724
 3372TIP3   OH231750   4.427   2.323  16.666
 3372TIP3    H131751   4.379   2.283  16.741
 3372TIP3    H231752   4.357   2.365  16.615
 3373TIP3   OH231753   3.876   2.359  16.901
 3373TIP3    H131754   3.934   2.425  16.858
 3373TIP3    H231755   3.815   2.422  16.943
 3374TIP3   OH231756   4.298   2.595  16.809
 3374TIP3    H131757   4.242   2.565  16.736
 3374TIP3    H231758   4.376   2.624  16.760
 3375TIP3   OH231759   5.015   2.341  16.813
 3375TIP3    H131760   4.919   2.353  16.807
 3375TIP3    H231761   5.047   2.421  16.859
 3376TIP3   OH231762   5.087   2.531  16.982
 3376TIP3    H131763   5.177   2.516  17.014
 3376TIP3    H231764   5.093   2.611  16.926
 3377TIP3   OH231765   4.841   3.188  16.921
 3377TIP3    H131766   4.810   3.281  16.926
 3377TIP3    H231767   4.762   3.137  16.924
 3378TIP3   OH231768   5.593   2.550  16.945
 3378TIP3    H131769   5.530   2.512  16.880
 3378TIP3    H231770   5.592   2.644  16.919
 3379TIP3   OH231771   3.956   2.829  16.769
 3379TIP3    H131772   4.015   2.889  16.821
 3379TIP3    H231773   3.867   2.856  16.801
 3380TIP3   OH231774   5.169   3.184  16.789
 3380TIP3    H131775   5.175   3.199  16.884
 3380TIP3    H231776   5.077   3.226  16.781
 3381TIP3   OH231777   5.592   3.671  16.802
 3381TIP3    H131778   5.669   3.730  16.798
 3381TIP3    H231779   5.525   3.733  16.836
 3382TIP3   OH231780   4.553   3.342  16.624
 3382TIP3    H131781   4.580   3.263  16.574
 3382TIP3    H231782   4.526   3.300  16.708
 3383TIP3   OH231783   4.437   3.290  16.875
 3383TIP3    H131784   4.465   3.245  16.955
 3383TIP3    H231785   4.456   3.382  16.901
 3384TIP3   OH231786   4.078   3.020  16.912
 3384TIP3    H131787   4.025   3.051  16.985
 3384TIP3    H231788   4.147   3.089  16.900
 3385TIP3   OH231789   4.677   3.436  16.876
 3385TIP3    H131790   4.621   3.498  16.927
 3385TIP3    H231791   4.758   3.488  16.863
 3386TIP3   OH231792   4.459   3.563  16.955
 3386TIP3    H131793   4.469   3.639  16.891
 3386TIP3    H231794   4.435   3.607  17.037
 3387TIP3   OH231795   4.313   2.221  16.887
 3387TIP3    H131796   4.296   2.307  16.926
 3387TIP3    H231797   4.403   2.207  16.922
 3388TIP3   OH231798   4.149   3.282  16.811
 3388TIP3    H131799   4.217   3.343  16.843
 3388TIP3    H231800   4.203   3.234  16.746
 3389TIP3   OH231801   3.984   2.549  16.727
 3389TIP3    H131802   3.982   2.645  16.747
 3389TIP3    H231803   3.894   2.529  16.698
 3390TIP3   OH231804   4.747   3.537  16.628
 3390TIP3    H131805   4.692   3.465  16.667
 3390TIP3    H231806   4.828   3.481  16.626
 3391TIP3   OH231807   5.232   3.514  16.659
 3391TIP3    H131808   5.243   3.431  16.708
 3391TIP3    H231809   5.308   3.521  16.600
 3392TIP3   OH231810   4.308   3.092  16.645
 3392TIP3    H131811   4.326   3.017  16.704
 3392TIP3    H231812   4.384   3.084  16.584
 3393TIP3   OH231813   4.794   3.180  16.612
 3393TIP3    H131814   4.830   3.213  16.698
 3393TIP3    H231815   4.826   3.087  16.610
 3394TIP3   OH231816   4.428   2.893  16.879
 3394TIP3    H131817   4.382   2.841  16.946
 3394TIP3    H231818   4.458   2.826  16.814
 3395TIP3   OH231819   4.536   2.715  16.704
 3395TIP3    H131820   4.523   2.708  16.607
 3395TIP3    H231821   4.634   2.724  16.713
 3396TIP3   OH231822   5.476   2.953  16.644
 3396TIP3    H131823   5.456   2.912  16.556
 3396TIP3    H231824   5.485   3.047  16.614
 3397TIP3   OH231825   4.522   3.789  16.817
 3397TIP3    H131826   4.620   3.794  16.819
 3397TIP3    H231827   4.505   3.848  16.742
 3398TIP3   OH231828   3.875   3.246  16.761
 3398TIP3    H131829   3.970   3.257  16.781
 3398TIP3    H231830   3.882   3.180  16.689
 3399TIP3   OH231831   5.587   2.827  16.865
 3399TIP3    H131832   5.556   2.868  16.780
 3399TIP3    H231833   5.603   2.896  16.932
 3400TIP3   OH231834   5.425   2.561  16.723
 3400TIP3    H131835   5.434   2.620  16.647
 3400TIP3    H231836   5.408   2.474  16.679
 3401TIP3   OH231837   5.350   2.302  16.638
 3401TIP3    H131838   5.410   2.258  16.702
 3401TIP3    H231839   5.265   2.261  16.658
 3402TIP3   OH231840   5.556   2.187  16.792
 3402TIP3    H131841   5.599   2.113  16.743
 3402TIP3    H231842   5.629   2.251  16.801
 3403TIP3   OH231843   3.915   1.993  16.896
 3403TIP3    H131844   3.963   2.058  16.843
 3403TIP3    H231845   3.857   2.050  16.945
 3404TIP3   OH231846   4.095   2.186  16.743
 3404TIP3    H131847   4.146   2.120  16.691
 3404TIP3    H231848   4.160   2.211  16.812
 3405TIP3   OH231849   4.786   3.717  16.832
 3405TIP3    H131850   4.879   3.739  16.814
 3405TIP3    H231851   4.769   3.660  16.753
 3406TIP3   OH231852   4.083   3.682  16.693
 3406TIP3    H131853   4.056   3.707  16.783
 3406TIP3    H231854   4.161   3.624  16.707
 3407TIP3   OH231855   6.698   2.705  16.757
 3407TIP3    H131856   6.767   2.709  16.827
 3407TIP3    H231857   6.735   2.634  16.704
 3408TIP3   OH231858   6.923   2.776  16.910
 3408TIP3    H131859   6.964   2.804  16.994
 3408TIP3    H231860   6.960   2.836  16.842
 3409TIP3   OH231861   7.267   1.961  16.899
 3409TIP3    H131862   7.186   1.986  16.943
 3409TIP3    H231863   7.304   2.043  16.865
 3410TIP3   OH231864   7.038   3.695  16.784
 3410TIP3    H131865   7.008   3.607  16.751
 3410TIP3    H231866   6.993   3.678  16.872
 3411TIP3   OH231867   7.079   2.887  16.702
 3411TIP3    H131868   7.070   2.872  16.604
 3411TIP3    H231869   7.158   2.941  16.704
 3412TIP3   OH231870   6.629   2.282  16.753
 3412TIP3    H131871   6.601   2.284  16.846
 3412TIP3    H231872   6.601   2.193  16.724
 3413TIP3   OH231873   6.313   2.322  16.666
 3413TIP3    H131874   6.265   2.283  16.741
 3413TIP3    H231875   6.243   2.365  16.615
 3414TIP3   OH231876   5.763   2.358  16.903
 3414TIP3    H131877   5.820   2.424  16.858
 3414TIP3    H231878   5.700   2.421  16.943
 3415TIP3   OH231879   6.184   2.595  16.809
 3415TIP3    H131880   6.127   2.565  16.736
 3415TIP3    H231881   6.262   2.624  16.760
 3416TIP3   OH231882   6.899   2.340  16.813
 3416TIP3    H131883   6.803   2.352  16.805
 3416TIP3    H231884   6.928   2.422  16.859
 3417TIP3   OH231885   6.974   2.531  16.980
 3417TIP3    H131886   7.064   2.518  17.010
 3417TIP3    H231887   6.976   2.612  16.926
 3418TIP3   OH231888   6.726   3.202  16.903
 3418TIP3    H131889   6.693   3.288  16.934
 3418TIP3    H231890   6.655   3.142  16.926
 3419TIP3   OH231891   5.840   2.828  16.769
 3419TIP3    H131892   5.901   2.888  16.819
 3419TIP3    H231893   5.754   2.856  16.802
 3420TIP3   OH231894   7.037   3.219  16.779
 3420TIP3    H131895   7.061   3.198  16.870
 3420TIP3    H231896   6.940   3.216  16.788
 3421TIP3   OH231897   6.445   3.340  16.626
 3421TIP3    H131898   6.458   3.261  16.572
 3421TIP3    H231899   6.409   3.301  16.709
 3422TIP3   OH231900   6.328   3.289  16.873
 3422TIP3    H131901   6.346   3.243  16.956
 3422TIP3    H231902   6.341   3.382  16.903
 3423TIP3   OH231903   5.963   3.021  16.911
 3423TIP3    H131904   5.913   3.051  16.987
 3423TIP3    H231905   6.033   3.088  16.900
 3424TIP3   OH231906   6.571   3.438  16.871
 3424TIP3    H131907   6.513   3.498  16.924
 3424TIP3    H231908   6.652   3.495  16.869
 3425TIP3   OH231909   6.345   3.563  16.951
 3425TIP3    H131910   6.354   3.641  16.890
 3425TIP3    H231911   6.324   3.606  17.035
 3426TIP3   OH231912   6.199   2.221  16.887
 3426TIP3    H131913   6.181   2.307  16.927
 3426TIP3    H231914   6.289   2.207  16.922
 3427TIP3   OH231915   6.034   3.281  16.811
 3427TIP3    H131916   6.101   3.343  16.844
 3427TIP3    H231917   6.089   3.234  16.747
 3428TIP3   OH231918   5.869   2.548  16.728
 3428TIP3    H131919   5.868   2.644  16.747
 3428TIP3    H231920   5.780   2.529  16.698
 3429TIP3   OH231921   6.650   3.527  16.632
 3429TIP3    H131922   6.583   3.464  16.668
 3429TIP3    H231923   6.725   3.467  16.620
 3430TIP3   OH231924   7.101   3.484  16.646
 3430TIP3    H131925   7.135   3.425  16.714
 3430TIP3    H231926   7.182   3.520  16.605
 3431TIP3   OH231927   6.194   3.092  16.645
 3431TIP3    H131928   6.211   3.017  16.704
 3431TIP3    H231929   6.269   3.084  16.584
 3432TIP3   OH231930   6.741   3.203  16.624
 3432TIP3    H131931   6.712   3.215  16.716
 3432TIP3    H231932   6.717   3.108  16.607
 3433TIP3   OH231933   6.315   2.895  16.879
 3433TIP3    H131934   6.268   2.842  16.946
 3433TIP3    H231935   6.344   2.827  16.815
 3434TIP3   OH231936   6.422   2.715  16.704
 3434TIP3    H131937   6.409   2.708  16.607
 3434TIP3    H231938   6.519   2.724  16.712
 3435TIP3   OH231939   6.395   3.794  16.820
 3435TIP3    H131940   6.494   3.793  16.816
 3435TIP3    H231941   6.386   3.850  16.741
 3436TIP3   OH231942   5.760   3.242  16.763
 3436TIP3    H131943   5.856   3.258  16.781
 3436TIP3    H231944   5.770   3.180  16.688
 3437TIP3   OH231945   7.296   2.557  16.727
 3437TIP3    H131946   7.317   2.618  16.656
 3437TIP3    H231947   7.286   2.472  16.678
 3438TIP3   OH231948   7.237   2.303  16.639
 3438TIP3    H131949   7.292   2.258  16.704
 3438TIP3    H231950   7.151   2.261  16.653
 3439TIP3   OH231951   5.801   1.993  16.895
 3439TIP3    H131952   5.849   2.058  16.843
 3439TIP3    H231953   5.743   2.050  16.945
 3440TIP3   OH231954   5.981   2.186  16.744
 3440TIP3    H131955   6.031   2.122  16.691
 3440TIP3    H231956   6.046   2.211  16.813
 3441TIP3   OH231957   6.644   3.760  16.767
 3441TIP3    H131958   6.730   3.754  16.813
 3441TIP3    H231959   6.644   3.665  16.740
 3442TIP3   OH231960   5.969   3.683  16.693
 3442TIP3    H131961   5.942   3.708  16.783
 3442TIP3    H231962   6.045   3.624  16.707
 3443TIP3   OH231963   1.039   4.588  16.758
 3443TIP3    H131964   1.109   4.594  16.827
 3443TIP3    H231965   1.081   4.519  16.704
 3444TIP3   OH231966   1.265   4.662  16.908
 3444TIP3    H131967   1.305   4.689  16.994
 3444TIP3    H231968   1.302   4.724  16.842
 3445TIP3   OH231969   1.660   3.831  16.882
 3445TIP3    H131970   1.569   3.832  16.920
 3445TIP3    H231971   1.666   3.927  16.872
 3446TIP3   OH231972   1.759   5.284  16.737
 3446TIP3    H131973   1.767   5.378  16.764
 3446TIP3    H231974   1.852   5.260  16.749
 3447TIP3   OH231975   1.299   5.563  16.815
 3447TIP3    H131976   1.341   5.489  16.766
 3447TIP3    H231977   1.305   5.532  16.906
 3448TIP3   OH231978   1.423   4.776  16.703
 3448TIP3    H131979   1.410   4.760  16.606
 3448TIP3    H231980   1.503   4.829  16.700
 3449TIP3   OH231981   0.966   4.168  16.752
 3449TIP3    H131982   0.949   4.168  16.847
 3449TIP3    H231983   0.945   4.076  16.726
 3450TIP3   OH231984   0.655   4.217  16.663
 3450TIP3    H131985   0.617   4.170  16.741
 3450TIP3    H231986   0.573   4.238  16.617
 3451TIP3   OH231987   0.116   4.255  16.901
 3451TIP3    H131988   0.169   4.321  16.852
 3451TIP3    H231989   0.042   4.304  16.937
 3452TIP3   OH231990   0.528   4.479  16.808
 3452TIP3    H131991   0.467   4.452  16.737
 3452TIP3    H231992   0.606   4.512  16.763
 3453TIP3   OH231993   1.243   4.231  16.808
 3453TIP3    H131994   1.147   4.238  16.809
 3453TIP3    H231995   1.275   4.307  16.861
 3454TIP3   OH231996   1.315   4.419  16.983
 3454TIP3    H131997   1.406   4.399  17.013
 3454TIP3    H231998   1.325   4.497  16.926
 3455TIP3   OH231999   1.069   5.088  16.901
 3455TIP3    H132000   1.033   5.172  16.935
 3455TIP3    H232001   0.999   5.026  16.924
 3456TIP3   OH232002   1.822   4.435  16.945
 3456TIP3    H132003   1.757   4.395  16.882
 3456TIP3    H232004   1.817   4.528  16.916
 3457TIP3   OH232005   0.175   4.712  16.774
 3457TIP3    H132006   0.240   4.773  16.819
 3457TIP3    H232007   0.093   4.749  16.805
 3458TIP3   OH232008   1.382   5.113  16.781
 3458TIP3    H132009   1.408   5.082  16.868
 3458TIP3    H232010   1.285   5.104  16.790
 3459TIP3   OH232011   1.821   5.555  16.802
 3459TIP3    H132012   1.898   5.615  16.798
 3459TIP3    H232013   1.754   5.618  16.835
 3460TIP3   OH232014   0.791   5.226  16.628
 3460TIP3    H132015   0.801   5.148  16.572
 3460TIP3    H232016   0.751   5.186  16.709
 3461TIP3   OH232017   0.671   5.174  16.873
 3461TIP3    H132018   0.692   5.130  16.956
 3461TIP3    H232019   0.681   5.267  16.902
 3462TIP3   OH232020   0.305   4.901  16.910
 3462TIP3    H132021   0.258   4.935  16.986
 3462TIP3    H232022   0.373   4.971  16.898
 3463TIP3   OH232023   0.910   5.321  16.876
 3463TIP3    H132024   0.849   5.380  16.925
 3463TIP3    H232025   0.986   5.381  16.866
 3464TIP3   OH232026   0.690   5.449  16.954
 3464TIP3    H132027   0.694   5.525  16.891
 3464TIP3    H232028   0.663   5.492  17.035
 3465TIP3   OH232029   0.546   4.108  16.882
 3465TIP3    H132030   0.522   4.188  16.930
 3465TIP3    H232031   0.633   4.092  16.924
 3466TIP3   OH232032   0.379   5.165  16.812
 3466TIP3    H132033   0.443   5.231  16.843
 3466TIP3    H232034   0.434   5.119  16.746
 3467TIP3   OH232035   0.222   4.435  16.717
 3467TIP3    H132036   0.216   4.527  16.748
 3467TIP3    H232037   0.129   4.413  16.705
 3468TIP3   OH232038   0.993   5.414  16.640
 3468TIP3    H132039   0.925   5.348  16.666
 3468TIP3    H232040   1.064   5.353  16.615
 3469TIP3   OH232041   1.448   5.387  16.654
 3469TIP3    H132042   1.476   5.313  16.711
 3469TIP3    H232043   1.528   5.407  16.604
 3470TIP3   OH232044   0.535   4.976  16.644
 3470TIP3    H132045   0.554   4.904  16.705
 3470TIP3    H232046   0.612   4.970  16.584
 3471TIP3   OH232047   1.085   5.090  16.625
 3471TIP3    H132048   1.056   5.099  16.717
 3471TIP3    H232049   1.061   4.995  16.607
 3472TIP3   OH232050   0.656   4.779  16.877
 3472TIP3    H132051   0.611   4.728  16.947
 3472TIP3    H232052   0.689   4.711  16.816
 3473TIP3   OH232053   0.763   4.593  16.702
 3473TIP3    H132054   0.760   4.607  16.606
 3473TIP3    H232055   0.860   4.611  16.719
 3474TIP3   OH232056   1.707   4.842  16.654
 3474TIP3    H132057   1.680   4.799  16.570
 3474TIP3    H232058   1.702   4.937  16.627
 3475TIP3   OH232059   0.752   5.675  16.817
 3475TIP3    H132060   0.850   5.682  16.820
 3475TIP3    H232061   0.733   5.734  16.743
 3476TIP3   OH232062   0.116   5.137  16.767
 3476TIP3    H132063   0.212   5.145  16.782
 3476TIP3    H232064   0.116   5.072  16.695
 3477TIP3   OH232065   1.813   4.696  16.853
 3477TIP3    H132066   1.761   4.742  16.780
 3477TIP3    H232067   1.780   4.735  16.937
 3478TIP3   OH232068   1.656   4.446  16.724
 3478TIP3    H132069   1.661   4.506  16.649
 3478TIP3    H232070   1.636   4.360  16.680
 3479TIP3   OH232071   1.580   4.184  16.636
 3479TIP3    H132072   1.638   4.145  16.704
 3479TIP3    H232073   1.494   4.147  16.661
 3480TIP3   OH232074   1.785   4.076  16.790
 3480TIP3    H132075   1.826   3.999  16.745
 3480TIP3    H232076   1.859   4.137  16.804
 3481TIP3   OH232077   0.189   3.891  16.908
 3481TIP3    H132078   0.198   3.954  16.836
 3481TIP3    H232079   0.104   3.917  16.949
 3482TIP3   OH232080   0.327   4.079  16.738
 3482TIP3    H132081   0.375   4.006  16.693
 3482TIP3    H232082   0.385   4.094  16.816
 3483TIP3   OH232083   1.017   5.597  16.833
 3483TIP3    H132084   1.108   5.624  16.814
 3483TIP3    H232085   0.998   5.546  16.752
 3484TIP3   OH232086   0.307   5.565  16.692
 3484TIP3    H132087   0.285   5.594  16.782
 3484TIP3    H232088   0.388   5.512  16.708
 3485TIP3   OH232089   2.927   4.590  16.758
 3485TIP3    H132090   2.997   4.594  16.827
 3485TIP3    H232091   2.964   4.519  16.704
 3486TIP3   OH232092   3.153   4.661  16.908
 3486TIP3    H132093   3.191   4.689  16.994
 3486TIP3    H232094   3.188   4.724  16.843
 3487TIP3   OH232095   3.529   3.853  16.916
 3487TIP3    H132096   3.434   3.859  16.933
 3487TIP3    H232097   3.548   3.937  16.870
 3488TIP3   OH232098   3.645   5.286  16.751
 3488TIP3    H132099   3.655   5.383  16.758
 3488TIP3    H232100   3.737   5.260  16.738
 3489TIP3   OH232101   3.185   5.563  16.815
 3489TIP3    H132102   3.227   5.489  16.766
 3489TIP3    H232103   3.191   5.532  16.906
 3490TIP3   OH232104   3.306   4.777  16.702
 3490TIP3    H132105   3.297   4.759  16.605
 3490TIP3    H232106   3.389   4.827  16.702
 3491TIP3   OH232107   2.858   4.167  16.753
 3491TIP3    H132108   2.830   4.170  16.846
 3491TIP3    H232109   2.830   4.079  16.724
 3492TIP3   OH232110   2.542   4.208  16.666
 3492TIP3    H132111   2.494   4.168  16.741
 3492TIP3    H232112   2.472   4.251  16.615
 3493TIP3   OH232113   1.992   4.242  16.904
 3493TIP3    H132114   2.049   4.308  16.858
 3493TIP3    H232115   1.928   4.304  16.943
 3494TIP3   OH232116   2.413   4.480  16.810
 3494TIP3    H132117   2.357   4.448  16.737
 3494TIP3    H232118   2.491   4.510  16.760
 3495TIP3   OH232119   3.130   4.226  16.813
 3495TIP3    H132120   3.034   4.239  16.807
 3495TIP3    H232121   3.161   4.307  16.859
 3496TIP3   OH232122   3.202   4.416  16.981
 3496TIP3    H132123   3.292   4.403  17.014
 3496TIP3    H232124   3.208   4.497  16.927
 3497TIP3   OH232125   2.955   5.088  16.901
 3497TIP3    H132126   2.919   5.171  16.934
 3497TIP3    H232127   2.885   5.025  16.925
 3498TIP3   OH232128   3.707   4.436  16.945
 3498TIP3    H132129   3.644   4.400  16.880
 3498TIP3    H232130   3.706   4.531  16.920
 3499TIP3   OH232131   2.069   4.717  16.767
 3499TIP3    H132132   2.132   4.771  16.821
 3499TIP3    H232133   1.979   4.735  16.797
 3500TIP3   OH232134   3.267   5.114  16.781
 3500TIP3    H132135   3.293   5.080  16.867
 3500TIP3    H232136   3.170   5.104  16.790
 3501TIP3   OH232137   3.708   5.554  16.803
 3501TIP3    H132138   3.781   5.619  16.794
 3501TIP3    H232139   3.639   5.617  16.834
 3502TIP3   OH232140   2.678   5.225  16.628
 3502TIP3    H132141   2.688   5.147  16.572
 3502TIP3    H232142   2.637   5.186  16.709
 3503TIP3   OH232143   2.556   5.174  16.874
 3503TIP3    H132144   2.578   5.130  16.957
 3503TIP3    H232145   2.569   5.267  16.903
 3504TIP3   OH232146   2.181   4.914  16.907
 3504TIP3    H132147   2.152   4.941  16.993
 3504TIP3    H232148   2.264   4.968  16.901
 3505TIP3   OH232149   2.796   5.321  16.876
 3505TIP3    H132150   2.735   5.380  16.925
 3505TIP3    H232151   2.871   5.381  16.866
 3506TIP3   OH232152   2.578   5.448  16.954
 3506TIP3    H132153   2.582   5.525  16.891
 3506TIP3    H232154   2.550   5.491  17.036
 3507TIP3   OH232155   2.428   4.106  16.887
 3507TIP3    H132156   2.410   4.192  16.926
 3507TIP3    H232157   2.518   4.092  16.922
 3508TIP3   OH232158   2.261   5.167  16.807
 3508TIP3    H132159   2.328   5.228  16.844
 3508TIP3    H232160   2.322   5.120  16.747
 3509TIP3   OH232161   2.098   4.434  16.729
 3509TIP3    H132162   2.097   4.530  16.747
 3509TIP3    H232163   2.010   4.412  16.698
 3510TIP3   OH232164   2.880   5.414  16.640
 3510TIP3    H132165   2.810   5.348  16.666
 3510TIP3    H232166   2.950   5.353  16.615
 3511TIP3   OH232167   3.332   5.387  16.654
 3511TIP3    H132168   3.360   5.312  16.710
 3511TIP3    H232169   3.411   5.408  16.602
 3512TIP3   OH232170   2.418   4.975  16.642
 3512TIP3    H132171   2.441   4.904  16.705
 3512TIP3    H232172   2.498   4.970  16.586
 3513TIP3   OH232173   2.971   5.090  16.625
 3513TIP3    H132174   2.941   5.098  16.717
 3513TIP3    H232175   2.946   4.995  16.607
 3514TIP3   OH232176   2.542   4.779  16.879
 3514TIP3    H132177   2.498   4.726  16.946
 3514TIP3    H232178   2.572   4.711  16.814
 3515TIP3   OH232179   2.651   4.601  16.704
 3515TIP3    H132180   2.638   4.594  16.607
 3515TIP3    H232181   2.748   4.610  16.713
 3516TIP3   OH232182   3.585   4.842  16.656
 3516TIP3    H132183   3.568   4.800  16.569
 3516TIP3    H232184   3.592   4.936  16.628
 3517TIP3   OH232185   2.636   5.675  16.817
 3517TIP3    H132186   2.734   5.682  16.820
 3517TIP3    H232187   2.619   5.734  16.742
 3518TIP3   OH232188   1.989   5.124  16.764
 3518TIP3    H132189   2.085   5.144  16.782
 3518TIP3    H232190   1.999   5.064  16.688
 3519TIP3   OH232191   3.707   4.713  16.859
 3519TIP3    H132192   3.655   4.754  16.786
 3519TIP3    H232193   3.705   4.777  16.932
 3520TIP3   OH232194   3.541   4.445  16.725
 3520TIP3    H132195   3.548   4.507  16.652
 3520TIP3    H232196   3.522   4.361  16.678
 3521TIP3   OH232197   3.465   4.187  16.638
 3521TIP3    H132198   3.525   4.144  16.702
 3521TIP3    H232199   3.379   4.147  16.658
 3522TIP3   OH232200   3.670   4.073  16.791
 3522TIP3    H132201   3.713   3.999  16.743
 3522TIP3    H232202   3.743   4.137  16.801
 3523TIP3   OH232203   2.032   3.878  16.897
 3523TIP3    H132204   2.078   3.944  16.843
 3523TIP3    H232205   1.970   3.934  16.944
 3524TIP3   OH232206   2.209   4.072  16.744
 3524TIP3    H132207   2.260   4.007  16.691
 3524TIP3    H232208   2.274   4.097  16.813
 3525TIP3   OH232209   2.902   5.597  16.833
 3525TIP3    H132210   2.993   5.624  16.814
 3525TIP3    H232211   2.883   5.546  16.752
 3526TIP3   OH232212   2.196   5.565  16.691
 3526TIP3    H132213   2.170   5.593  16.781
 3526TIP3    H232214   2.275   5.511  16.708
 3527TIP3   OH232215   4.815   4.593  16.755
 3527TIP3    H132216   4.882   4.593  16.828
 3527TIP3    H232217   4.848   4.517  16.705
 3528TIP3   OH232218   5.038   4.663  16.908
 3528TIP3    H132219   5.078   4.690  16.993
 3528TIP3    H232220   5.076   4.723  16.842
 3529TIP3   OH232221   5.415   3.854  16.917
 3529TIP3    H132222   5.320   3.859  16.933
 3529TIP3    H232223   5.434   3.937  16.870
 3530TIP3   OH232224   5.528   5.288  16.736
 3530TIP3    H132225   5.542   5.380  16.763
 3530TIP3    H232226   5.619   5.257  16.747
 3531TIP3   OH232227   5.070   5.564  16.815
 3531TIP3    H132228   5.111   5.490  16.766
 3531TIP3    H232229   5.076   5.533  16.907
 3532TIP3   OH232230   5.188   4.782  16.700
 3532TIP3    H132231   5.186   4.757  16.604
 3532TIP3    H232232   5.275   4.825  16.704
 3533TIP3   OH232233   4.744   4.167  16.753
 3533TIP3    H132234   4.716   4.170  16.846
 3533TIP3    H232235   4.715   4.079  16.724
 3534TIP3   OH232236   4.427   4.208  16.666
 3534TIP3    H132237   4.379   4.168  16.741
 3534TIP3    H232238   4.357   4.251  16.615
 3535TIP3   OH232239   3.877   4.244  16.903
 3535TIP3    H132240   3.934   4.310  16.858
 3535TIP3    H232241   3.815   4.307  16.943
 3536TIP3   OH232242   4.298   4.480  16.809
 3536TIP3    H132243   4.241   4.451  16.736
 3536TIP3    H232244   4.376   4.509  16.760
 3537TIP3   OH232245   5.016   4.227  16.814
 3537TIP3    H132246   4.920   4.239  16.807
 3537TIP3    H232247   5.047   4.307  16.859
 3538TIP3   OH232248   5.087   4.420  16.985
 3538TIP3    H132249   5.179   4.401  17.009
 3538TIP3    H232250   5.094   4.496  16.924
 3539TIP3   OH232251   4.839   5.088  16.896
 3539TIP3    H132252   4.806   5.171  16.935
 3539TIP3    H232253   4.771   5.026  16.926
 3540TIP3   OH232254   5.592   4.436  16.946
 3540TIP3    H132255   5.530   4.400  16.879
 3540TIP3    H232256   5.593   4.531  16.919
 3541TIP3   OH232257   3.955   4.716  16.767
 3541TIP3    H132258   4.014   4.774  16.821
 3541TIP3    H232259   3.867   4.740  16.801
 3542TIP3   OH232260   5.151   5.111  16.780
 3542TIP3    H132261   5.182   5.082  16.867
 3542TIP3    H232262   5.055   5.105  16.794
 3543TIP3   OH232263   5.593   5.556  16.800
 3543TIP3    H132264   5.670   5.615  16.800
 3543TIP3    H232265   5.525   5.617  16.836
 3544TIP3   OH232266   4.566   5.224  16.629
 3544TIP3    H132267   4.570   5.146  16.572
 3544TIP3    H232268   4.522   5.187  16.709
 3545TIP3   OH232269   4.444   5.175  16.872
 3545TIP3    H132270   4.461   5.130  16.956
 3545TIP3    H232271   4.453   5.267  16.904
 3546TIP3   OH232272   4.073   4.910  16.908
 3546TIP3    H132273   4.031   4.932  16.991
 3546TIP3    H232274   4.151   4.970  16.904
 3547TIP3   OH232275   4.681   5.321  16.875
 3547TIP3    H132276   4.620   5.379  16.925
 3547TIP3    H232277   4.757   5.381  16.866
 3548TIP3   OH232278   4.463   5.449  16.954
 3548TIP3    H132279   4.469   5.526  16.892
 3548TIP3    H232280   4.436   5.492  17.036
 3549TIP3   OH232281   4.314   4.106  16.887
 3549TIP3    H132282   4.296   4.192  16.926
 3549TIP3    H232283   4.403   4.092  16.922
 3550TIP3   OH232284   4.148   5.170  16.811
 3550TIP3    H132285   4.218   5.228  16.844
 3550TIP3    H232286   4.202   5.119  16.748
 3551TIP3   OH232287   3.984   4.435  16.728
 3551TIP3    H132288   3.982   4.530  16.748
 3551TIP3    H232289   3.894   4.415  16.698
 3552TIP3   OH232290   4.765   5.415  16.640
 3552TIP3    H132291   4.695   5.349  16.667
 3552TIP3    H232292   4.836   5.355  16.616
 3553TIP3   OH232293   5.216   5.383  16.652
 3553TIP3    H132294   5.249   5.314  16.712
 3553TIP3    H232295   5.297   5.407  16.604
 3554TIP3   OH232296   4.306   4.977  16.645
 3554TIP3    H132297   4.325   4.903  16.704
 3554TIP3    H232298   4.381   4.970  16.584
 3555TIP3   OH232299   4.858   5.083  16.621
 3555TIP3    H132300   4.828   5.105  16.712
 3555TIP3    H232301   4.823   4.991  16.618
 3556TIP3   OH232302   4.428   4.779  16.878
 3556TIP3    H132303   4.383   4.728  16.947
 3556TIP3    H232304   4.458   4.710  16.814
 3557TIP3   OH232305   4.537   4.603  16.704
 3557TIP3    H132306   4.523   4.592  16.607
 3557TIP3    H232307   4.634   4.608  16.714
 3558TIP3   OH232308   5.470   4.840  16.656
 3558TIP3    H132309   5.456   4.799  16.568
 3558TIP3    H232310   5.480   4.935  16.630
 3559TIP3   OH232311   4.522   5.675  16.816
 3559TIP3    H132312   4.620   5.683  16.820
 3559TIP3    H232313   4.505   5.733  16.741
 3560TIP3   OH232314   3.876   5.133  16.768
 3560TIP3    H132315   3.974   5.139  16.776
 3560TIP3    H232316   3.877   5.068  16.692
 3561TIP3   OH232317   5.594   4.714  16.861
 3561TIP3    H132318   5.542   4.755  16.787
 3561TIP3    H232319   5.591   4.780  16.933
 3562TIP3   OH232320   5.425   4.444  16.724
 3562TIP3    H132321   5.434   4.507  16.652
 3562TIP3    H232322   5.407   4.360  16.677
 3563TIP3   OH232323   5.349   4.188  16.639
 3563TIP3    H132324   5.410   4.144  16.702
 3563TIP3    H232325   5.264   4.146  16.659
 3564TIP3   OH232326   5.557   4.074  16.791
 3564TIP3    H132327   5.599   3.999  16.743
 3564TIP3    H232328   5.631   4.137  16.801
 3565TIP3   OH232329   3.915   3.878  16.895
 3565TIP3    H132330   3.963   3.944  16.843
 3565TIP3    H232331   3.857   3.935  16.945
 3566TIP3   OH232332   4.095   4.072  16.744
 3566TIP3    H132333   4.146   4.007  16.692
 3566TIP3    H232334   4.160   4.097  16.813
 3567TIP3   OH232335   4.788   5.598  16.834
 3567TIP3    H132336   4.880   5.623  16.813
 3567TIP3    H232337   4.768   5.547  16.753
 3568TIP3   OH232338   4.079   5.563  16.694
 3568TIP3    H132339   4.059   5.597  16.782
 3568TIP3    H232340   4.161   5.511  16.706
 3569TIP3   OH232341   6.698   4.589  16.758
 3569TIP3    H132342   6.768   4.594  16.826
 3569TIP3    H232343   6.735   4.519  16.704
 3570TIP3   OH232344   6.922   4.662  16.910
 3570TIP3    H132345   6.964   4.690  16.994
 3570TIP3    H232346   6.960   4.722  16.842
 3571TIP3   OH232347   7.273   3.850  16.906
 3571TIP3    H132348   7.185   3.867  16.938
 3571TIP3    H232349   7.300   3.931  16.863
 3572TIP3   OH232350   6.955   5.564  16.812
 3572TIP3    H132351   6.997   5.488  16.765
 3572TIP3    H232352   6.957   5.534  16.905
 3573TIP3   OH232353   7.079   4.773  16.702
 3573TIP3    H132354   7.071   4.757  16.604
 3573TIP3    H232355   7.158   4.827  16.704
 3574TIP3   OH232356   6.635   4.164  16.754
 3574TIP3    H132357   6.600   4.168  16.844
 3574TIP3    H232358   6.603   4.078  16.723
 3575TIP3   OH232359   6.353   4.159  16.658
 3575TIP3    H132360   6.291   4.162  16.734
 3575TIP3    H232361   6.290   4.213  16.604
 3576TIP3   OH232362   5.761   4.243  16.905
 3576TIP3    H132363   5.821   4.307  16.858
 3576TIP3    H232364   5.700   4.310  16.943
 3577TIP3   OH232365   6.174   4.563  16.835
 3577TIP3    H132366   6.113   4.501  16.786
 3577TIP3    H232367   6.249   4.526  16.785
 3578TIP3   OH232368   6.902   4.226  16.814
 3578TIP3    H132369   6.806   4.237  16.804
 3578TIP3    H232370   6.929   4.308  16.860
 3579TIP3   OH232371   6.975   4.417  16.980
 3579TIP3    H132372   7.064   4.404  17.010
 3579TIP3    H232373   6.976   4.498  16.926
 3580TIP3   OH232374   6.725   5.088  16.902
 3580TIP3    H132375   6.689   5.172  16.935
 3580TIP3    H232376   6.655   5.026  16.925
 3581TIP3   OH232377   5.840   4.717  16.766
 3581TIP3    H132378   5.901   4.773  16.821
 3581TIP3    H232379   5.753   4.742  16.802
 3582TIP3   OH232380   7.036   5.113  16.782
 3582TIP3    H132381   7.062   5.081  16.868
 3582TIP3    H232382   6.939   5.103  16.789
 3583TIP3   OH232383   6.447   5.226  16.628
 3583TIP3    H132384   6.458   5.148  16.572
 3583TIP3    H232385   6.408   5.186  16.709
 3584TIP3   OH232386   6.328   5.175  16.873
 3584TIP3    H132387   6.349   5.130  16.956
 3584TIP3    H232388   6.340   5.267  16.903
 3585TIP3   OH232389   5.963   4.906  16.911
 3585TIP3    H132390   5.911   4.937  16.985
 3585TIP3    H232391   6.033   4.974  16.900
 3586TIP3   OH232392   6.567   5.321  16.876
 3586TIP3    H132393   6.507   5.380  16.925
 3586TIP3    H232394   6.643   5.381  16.866
 3587TIP3   OH232395   6.349   5.449  16.954
 3587TIP3    H132396   6.353   5.525  16.891
 3587TIP3    H232397   6.322   5.491  17.036
 3588TIP3   OH232398   6.199   4.093  16.898
 3588TIP3    H132399   6.180   4.188  16.914
 3588TIP3    H232400   6.292   4.092  16.924
 3589TIP3   OH232401   6.035   5.167  16.811
 3589TIP3    H132402   6.102   5.229  16.843
 3589TIP3    H232403   6.089   5.117  16.747
 3590TIP3   OH232404   5.860   4.437  16.733
 3590TIP3    H132405   5.866   4.533  16.745
 3590TIP3    H232406   5.775   4.417  16.695
 3591TIP3   OH232407   6.650   5.414  16.639
 3591TIP3    H132408   6.581   5.348  16.666
 3591TIP3    H232409   6.722   5.353  16.615
 3592TIP3   OH232410   7.104   5.389  16.661
 3592TIP3    H132411   7.132   5.311  16.711
 3592TIP3    H232412   7.181   5.406  16.603
 3593TIP3   OH232413   6.194   4.977  16.646
 3593TIP3    H132414   6.211   4.901  16.703
 3593TIP3    H232415   6.269   4.969  16.584
 3594TIP3   OH232416   6.743   5.090  16.626
 3594TIP3    H132417   6.711   5.099  16.717
 3594TIP3    H232418   6.718   4.996  16.607
 3595TIP3   OH232419   6.318   4.783  16.884
 3595TIP3    H132420   6.264   4.727  16.943
 3595TIP3    H232421   6.340   4.715  16.816
 3596TIP3   OH232422   6.424   4.605  16.704
 3596TIP3    H132423   6.407   4.591  16.608
 3596TIP3    H232424   6.521   4.609  16.711
 3597TIP3   OH232425   6.406   5.677  16.816
 3597TIP3    H132426   6.504   5.682  16.820
 3597TIP3    H232427   6.392   5.735  16.740
 3598TIP3   OH232428   5.759   5.130  16.762
 3598TIP3    H132429   5.855   5.142  16.781
 3598TIP3    H232430   5.766   5.065  16.689
 3599TIP3   OH232431   7.296   4.443  16.727
 3599TIP3    H132432   7.316   4.504  16.656
 3599TIP3    H232433   7.285   4.358  16.678
 3600TIP3   OH232434   7.238   4.191  16.639
 3600TIP3    H132435   7.294   4.145  16.702
 3600TIP3    H232436   7.152   4.148  16.653
 3601TIP3   OH232437   5.800   3.878  16.894
 3601TIP3    H132438   5.851   3.945  16.844
 3601TIP3    H232439   5.743   3.936  16.945
 3602TIP3   OH232440   5.975   4.058  16.752
 3602TIP3    H132441   6.033   4.010  16.690
 3602TIP3    H232442   6.044   4.103  16.806
 3603TIP3   OH232443   6.673   5.597  16.833
 3603TIP3    H132444   6.764   5.624  16.814
 3603TIP3    H232445   6.655   5.545  16.752
 3604TIP3   OH232446   5.972   5.577  16.693
 3604TIP3    H132447   5.940   5.587  16.785
 3604TIP3    H232448   6.043   5.510  16.705
 3605TIP3   OH232449   1.042   6.476  16.758
 3605TIP3    H132450   1.112   6.479  16.827
 3605TIP3    H232451   1.078   6.405  16.704
 3606TIP3   OH232452   1.267   6.547  16.908
 3606TIP3    H132453   1.306   6.575  16.995
 3606TIP3    H232454   1.303   6.610  16.843
 3607TIP3   OH232455   1.644   5.739  16.916
 3607TIP3    H132456   1.549   5.745  16.933
 3607TIP3    H232457   1.663   5.822  16.870
 3608TIP3   OH232458   1.759   7.173  16.740
 3608TIP3    H132459   1.769   7.267  16.764
 3608TIP3    H232460   1.851   7.142  16.748
 3609TIP3   OH232461   1.420   6.663  16.702
 3609TIP3    H132462   1.411   6.645  16.604
 3609TIP3    H232463   1.503   6.712  16.702
 3610TIP3   OH232464   0.972   6.053  16.753
 3610TIP3    H132465   0.945   6.055  16.846
 3610TIP3    H232466   0.944   5.965  16.724
 3611TIP3   OH232467   0.658   6.093  16.665
 3611TIP3    H132468   0.609   6.054  16.741
 3611TIP3    H232469   0.587   6.136  16.615
 3612TIP3   OH232470   0.116   6.141  16.902
 3612TIP3    H132471   0.168   6.206  16.852
 3612TIP3    H232472   0.041   6.189  16.937
 3613TIP3   OH232473   0.526   6.367  16.809
 3613TIP3    H132474   0.471   6.336  16.735
 3613TIP3    H232475   0.605   6.395  16.760
 3614TIP3   OH232476   1.244   6.112  16.814
 3614TIP3    H132477   1.148   6.124  16.807
 3614TIP3    H232478   1.275   6.193  16.859
 3615TIP3   OH232479   1.316   6.302  16.981
 3615TIP3    H132480   1.407   6.289  17.014
 3615TIP3    H232481   1.323   6.383  16.927
 3616TIP3   OH232482   1.071   6.972  16.903
 3616TIP3    H132483   1.033   7.056  16.932
 3616TIP3    H232484   0.999   6.911  16.925
 3617TIP3   OH232485   1.822   6.322  16.945
 3617TIP3    H132486   1.758   6.285  16.880
 3617TIP3    H232487   1.820   6.416  16.920
 3618TIP3   OH232488   0.175   6.598  16.774
 3618TIP3    H132489   0.240   6.658  16.819
 3618TIP3    H232490   0.093   6.634  16.805
 3619TIP3   OH232491   1.382   6.992  16.777
 3619TIP3    H132492   1.410   6.968  16.865
 3619TIP3    H232493   1.285   6.990  16.788
 3620TIP3   OH232494   0.791   7.110  16.627
 3620TIP3    H132495   0.799   7.030  16.572
 3620TIP3    H232496   0.752   7.071  16.709
 3621TIP3   OH232497   0.668   7.059  16.875
 3621TIP3    H132498   0.692   7.014  16.957
 3621TIP3    H232499   0.679   7.152  16.901
 3622TIP3   OH232500   0.305   6.788  16.910
 3622TIP3    H132501   0.259   6.822  16.987
 3622TIP3    H232502   0.373   6.858  16.898
 3623TIP3   OH232503   0.914   7.199  16.888
 3623TIP3    H132504   0.853   7.263  16.930
 3623TIP3    H232505   0.987   7.259  16.862
 3624TIP3   OH232506   0.702  -0.001  16.957
 3624TIP3    H132507   0.689   0.071  16.892
 3624TIP3    H232508   0.654   0.030  17.034
 3625TIP3   OH232509   0.544   5.992  16.886
 3625TIP3    H132510   0.523   6.076  16.928
 3625TIP3    H232511   0.634   5.979  16.923
 3626TIP3   OH232512   0.379   7.050  16.812
 3626TIP3    H132513   0.439   7.119  16.845
 3626TIP3    H232514   0.435   7.006  16.745
 3627TIP3   OH232515   0.222   6.320  16.716
 3627TIP3    H132516   0.218   6.412  16.746
 3627TIP3    H232517   0.129   6.298  16.703
 3628TIP3   OH232518   0.995   7.295  16.653
 3628TIP3    H132519   0.923   7.228  16.665
 3628TIP3    H232520   1.064   7.240  16.614
 3629TIP3   OH232521   1.454   7.267  16.668
 3629TIP3    H132522   1.485   7.189  16.715
 3629TIP3    H232523   1.531   7.288  16.610
 3630TIP3   OH232524   0.537   6.867  16.644
 3630TIP3    H132525   0.553   6.791  16.702
 3630TIP3    H232526   0.612   6.856  16.583
 3631TIP3   OH232527   1.087   6.974  16.625
 3631TIP3    H132528   1.054   6.986  16.716
 3631TIP3    H232529   1.062   6.881  16.608
 3632TIP3   OH232530   0.657   6.664  16.878
 3632TIP3    H132531   0.612   6.612  16.946
 3632TIP3    H232532   0.688   6.597  16.814
 3633TIP3   OH232533   0.763   6.487  16.704
 3633TIP3    H132534   0.752   6.480  16.607
 3633TIP3    H232535   0.861   6.495  16.713
 3634TIP3   OH232536   1.699   6.724  16.655
 3634TIP3    H132537   1.682   6.685  16.567
 3634TIP3    H232538   1.707   6.820  16.630
 3635TIP3   OH232539   0.116   7.023  16.767
 3635TIP3    H132540   0.212   7.029  16.783
 3635TIP3    H232541   0.116   6.956  16.696
 3636TIP3   OH232542   1.824   6.598  16.861
 3636TIP3    H132543   1.771   6.639  16.788
 3636TIP3    H232544   1.821   6.665  16.933
 3637TIP3   OH232545   1.655   6.330  16.725
 3637TIP3    H132546   1.662   6.393  16.652
 3637TIP3    H232547   1.636   6.246  16.677
 3638TIP3   OH232548   1.579   6.073  16.638
 3638TIP3    H132549   1.639   6.030  16.702
 3638TIP3    H232550   1.493   6.032  16.658
 3639TIP3   OH232551   1.784   5.958  16.792
 3639TIP3    H132552   1.828   5.885  16.743
 3639TIP3    H232553   1.857   6.022  16.802
 3640TIP3   OH232554   0.183   5.776  16.905
 3640TIP3    H132555   0.200   5.841  16.837
 3640TIP3    H232556   0.103   5.806  16.950
 3641TIP3   OH232557   0.324   5.960  16.741
 3641TIP3    H132558   0.376   5.893  16.693
 3641TIP3    H232559   0.386   5.981  16.814
 3642TIP3   OH232560   2.927   6.476  16.758
 3642TIP3    H132561   2.997   6.479  16.827
 3642TIP3    H232562   2.964   6.405  16.704
 3643TIP3   OH232563   3.153   6.547  16.908
 3643TIP3    H132564   3.191   6.575  16.995
 3643TIP3    H232565   3.188   6.610  16.843
 3644TIP3   OH232566   3.529   5.737  16.915
 3644TIP3    H132567   3.435   5.744  16.933
 3644TIP3    H232568   3.548   5.821  16.871
 3645TIP3   OH232569   3.645   7.174  16.740
 3645TIP3    H132570   3.655   7.267  16.764
 3645TIP3    H232571   3.736   7.140  16.748
 3646TIP3   OH232572   3.306   6.663  16.702
 3646TIP3    H132573   3.297   6.645  16.604
 3646TIP3    H232574   3.388   6.712  16.702
 3647TIP3   OH232575   2.858   6.053  16.753
 3647TIP3    H132576   2.830   6.055  16.846
 3647TIP3    H232577   2.830   5.965  16.724
 3648TIP3   OH232578   2.542   6.094  16.666
 3648TIP3    H132579   2.494   6.054  16.741
 3648TIP3    H232580   2.472   6.136  16.615
 3649TIP3   OH232581   1.992   6.129  16.902
 3649TIP3    H132582   2.049   6.196  16.858
 3649TIP3    H232583   1.929   6.192  16.943
 3650TIP3   OH232584   2.413   6.366  16.810
 3650TIP3    H132585   2.356   6.335  16.736
 3650TIP3    H232586   2.491   6.395  16.760
 3651TIP3   OH232587   3.130   6.112  16.814
 3651TIP3    H132588   3.034   6.124  16.807
 3651TIP3    H232589   3.161   6.193  16.859
 3652TIP3   OH232590   3.202   6.302  16.981
 3652TIP3    H132591   3.292   6.289  17.014
 3652TIP3    H232592   3.208   6.383  16.927
 3653TIP3   OH232593   2.956   6.973  16.903
 3653TIP3    H132594   2.920   7.058  16.932
 3653TIP3    H232595   2.885   6.912  16.925
 3654TIP3   OH232596   3.708   6.322  16.945
 3654TIP3    H132597   3.644   6.286  16.880
 3654TIP3    H232598   3.706   6.416  16.920
 3655TIP3   OH232599   2.070   6.601  16.768
 3655TIP3    H132600   2.129   6.659  16.821
 3655TIP3    H232601   1.982   6.627  16.801
 3656TIP3   OH232602   3.267   6.992  16.777
 3656TIP3    H132603   3.296   6.968  16.865
 3656TIP3    H232604   3.170   6.990  16.788
 3657TIP3   OH232605   2.676   7.109  16.627
 3657TIP3    H132606   2.686   7.029  16.574
 3657TIP3    H232607   2.637   7.072  16.709
 3658TIP3   OH232608   2.554   7.060  16.875
 3658TIP3    H132609   2.578   7.014  16.957
 3658TIP3    H232610   2.568   7.152  16.902
 3659TIP3   OH232611   2.192   6.792  16.911
 3659TIP3    H132612   2.140   6.823  16.985
 3659TIP3    H232613   2.261   6.861  16.900
 3660TIP3   OH232614   2.800   7.200  16.887
 3660TIP3    H132615   2.740   7.265  16.929
 3660TIP3    H232616   2.872   7.262  16.863
 3661TIP3   OH232617   2.584  -0.002  16.954
 3661TIP3    H132618   2.575   0.073  16.893
 3661TIP3    H232619   2.542   0.031  17.034
 3662TIP3   OH232620   2.428   5.991  16.887
 3662TIP3    H132621   2.410   6.077  16.926
 3662TIP3    H232622   2.518   5.978  16.922
 3663TIP3   OH232623   2.261   7.055  16.810
 3663TIP3    H132624   2.326   7.118  16.845
 3663TIP3    H232625   2.317   7.009  16.746
 3664TIP3   OH232626   2.098   6.320  16.728
 3664TIP3    H132627   2.097   6.416  16.748
 3664TIP3    H232628   2.009   6.300  16.698
 3665TIP3   OH232629   2.878   7.295  16.648
 3665TIP3    H132630   2.809   7.228  16.667
 3665TIP3    H232631   2.951   7.240  16.616
 3666TIP3   OH232632   3.341   7.267  16.668
 3666TIP3    H132633   3.371   7.189  16.714
 3666TIP3    H232634   3.416   7.287  16.608
 3667TIP3   OH232635   2.423   6.866  16.645
 3667TIP3    H132636   2.439   6.790  16.703
 3667TIP3    H232637   2.499   6.856  16.583
 3668TIP3   OH232638   2.972   6.974  16.625
 3668TIP3    H132639   2.939   6.986  16.715
 3668TIP3    H232640   2.948   6.880  16.608
 3669TIP3   OH232641   2.542   6.664  16.878
 3669TIP3    H132642   2.497   6.612  16.946
 3669TIP3    H232643   2.572   6.597  16.814
 3670TIP3   OH232644   2.651   6.486  16.704
 3670TIP3    H132645   2.638   6.479  16.607
 3670TIP3    H232646   2.748   6.495  16.713
 3671TIP3   OH232647   3.585   6.724  16.655
 3671TIP3    H132648   3.568   6.685  16.567
 3671TIP3    H232649   3.592   6.820  16.630
 3672TIP3   OH232650   1.991   7.018  16.759
 3672TIP3    H132651   2.086   7.028  16.782
 3672TIP3    H232652   1.997   6.949  16.689
 3673TIP3   OH232653   3.709   6.598  16.861
 3673TIP3    H132654   3.657   6.639  16.788
 3673TIP3    H232655   3.706   6.665  16.933
 3674TIP3   OH232656   3.541   6.330  16.725
 3674TIP3    H132657   3.548   6.393  16.652
 3674TIP3    H232658   3.522   6.246  16.677
 3675TIP3   OH232659   3.465   6.073  16.638
 3675TIP3    H132660   3.524   6.030  16.702
 3675TIP3    H232661   3.379   6.032  16.658
 3676TIP3   OH232662   3.670   5.958  16.791
 3676TIP3    H132663   3.713   5.885  16.743
 3676TIP3    H232664   3.743   6.022  16.801
 3677TIP3   OH232665   2.029   5.763  16.895
 3677TIP3    H132666   2.077   5.829  16.843
 3677TIP3    H232667   1.972   5.821  16.945
 3678TIP3   OH232668   2.209   5.957  16.744
 3678TIP3    H132669   2.260   5.893  16.691
 3678TIP3    H232670   2.274   5.982  16.812
 3679TIP3   OH232671   4.813   6.476  16.757
 3679TIP3    H132672   4.881   6.477  16.829
 3679TIP3    H232673   4.850   6.405  16.704
 3680TIP3   OH232674   5.039   6.548  16.907
 3680TIP3    H132675   5.075   6.574  16.995
 3680TIP3    H232676   5.076   6.611  16.842
 3681TIP3   OH232677   5.415   5.737  16.914
 3681TIP3    H132678   5.321   5.743  16.933
 3681TIP3    H232679   5.433   5.822  16.872
 3682TIP3   OH232680   5.529   7.175  16.739
 3682TIP3    H132681   5.541   7.267  16.764
 3682TIP3    H232682   5.621   7.140  16.748
 3683TIP3   OH232683   5.192   6.663  16.701
 3683TIP3    H132684   5.183   6.645  16.604
 3683TIP3    H232685   5.275   6.713  16.701
 3684TIP3   OH232686   4.743   6.053  16.753
 3684TIP3    H132687   4.716   6.056  16.847
 3684TIP3    H232688   4.715   5.964  16.725
 3685TIP3   OH232689   4.428   6.094  16.667
 3685TIP3    H132690   4.380   6.053  16.742
 3685TIP3    H232691   4.358   6.136  16.616
 3686TIP3   OH232692   3.877   6.129  16.902
 3686TIP3    H132693   3.934   6.196  16.858
 3686TIP3    H232694   3.815   6.193  16.943
 3687TIP3   OH232695   4.296   6.369  16.808
 3687TIP3    H132696   4.241   6.337  16.735
 3687TIP3    H232697   4.377   6.394  16.761
 3688TIP3   OH232698   5.016   6.113  16.810
 3688TIP3    H132699   4.919   6.125  16.810
 3688TIP3    H232700   5.047   6.191  16.860
 3689TIP3   OH232701   5.089   6.304  16.971
 3689TIP3    H132702   5.174   6.289  17.015
 3689TIP3    H232703   5.095   6.388  16.925
 3690TIP3   OH232704   4.842   6.972  16.904
 3690TIP3    H132705   4.805   7.058  16.932
 3690TIP3    H232706   4.770   6.912  16.925
 3691TIP3   OH232707   5.593   6.322  16.945
 3691TIP3    H132708   5.528   6.285  16.881
 3691TIP3    H232709   5.591   6.416  16.920
 3692TIP3   OH232710   3.955   6.601  16.768
 3692TIP3    H132711   4.014   6.659  16.821
 3692TIP3    H232712   3.867   6.627  16.801
 3693TIP3   OH232713   5.153   6.992  16.777
 3693TIP3    H132714   5.181   6.968  16.866
 3693TIP3    H232715   5.056   6.990  16.789
 3694TIP3   OH232716   4.562   7.110  16.628
 3694TIP3    H132717   4.570   7.030  16.573
 3694TIP3    H232718   4.523   7.071  16.709
 3695TIP3   OH232719   4.439   7.059  16.875
 3695TIP3    H132720   4.463   7.013  16.957
 3695TIP3    H232721   4.455   7.152  16.902
 3696TIP3   OH232722   4.078   6.792  16.911
 3696TIP3    H132723   4.026   6.823  16.985
 3696TIP3    H232724   4.147   6.861  16.900
 3697TIP3   OH232725   4.685   7.201  16.887
 3697TIP3    H132726   4.626   7.265  16.930
 3697TIP3    H232727   4.758   7.262  16.863
 3698TIP3   OH232728   4.468  -0.003  16.955
 3698TIP3    H132729   4.464   0.072  16.893
 3698TIP3    H232730   4.429   0.032  17.035
 3699TIP3   OH232731   4.315   5.992  16.888
 3699TIP3    H132732   4.296   6.078  16.927
 3699TIP3    H232733   4.405   5.980  16.924
 3700TIP3   OH232734   4.147   7.054  16.810
 3700TIP3    H132735   4.213   7.117  16.843
 3700TIP3    H232736   4.203   7.006  16.746
 3701TIP3   OH232737   3.983   6.320  16.728
 3701TIP3    H132738   3.982   6.416  16.747
 3701TIP3    H232739   3.894   6.300  16.698
 3702TIP3   OH232740   4.764   7.295  16.647
 3702TIP3    H132741   4.696   7.228  16.666
 3702TIP3    H232742   4.838   7.242  16.615
 3703TIP3   OH232743   5.227   7.266  16.671
 3703TIP3    H132744   5.258   7.187  16.715
 3703TIP3    H232745   5.299   7.288  16.609
 3704TIP3   OH232746   4.309   6.866  16.644
 3704TIP3    H132747   4.324   6.790  16.703
 3704TIP3    H232748   4.384   6.856  16.583
 3705TIP3   OH232749   4.858   6.974  16.625
 3705TIP3    H132750   4.825   6.986  16.716
 3705TIP3    H232751   4.833   6.880  16.608
 3706TIP3   OH232752   4.427   6.665  16.878
 3706TIP3    H132753   4.383   6.612  16.946
 3706TIP3    H232754   4.458   6.597  16.815
 3707TIP3   OH232755   4.537   6.486  16.705
 3707TIP3    H132756   4.524   6.480  16.608
 3707TIP3    H232757   4.634   6.494  16.714
 3708TIP3   OH232758   5.470   6.724  16.655
 3708TIP3    H132759   5.453   6.685  16.567
 3708TIP3    H232760   5.478   6.819  16.630
 3709TIP3   OH232761   3.878   7.021  16.757
 3709TIP3    H132762   3.972   7.027  16.781
 3709TIP3    H232763   3.882   6.950  16.690
 3710TIP3   OH232764   5.594   6.598  16.861
 3710TIP3    H132765   5.542   6.640  16.788
 3710TIP3    H232766   5.594   6.664  16.933
 3711TIP3   OH232767   5.425   6.330  16.724
 3711TIP3    H132768   5.433   6.393  16.652
 3711TIP3    H232769   5.407   6.246  16.677
 3712TIP3   OH232770   5.352   6.071  16.635
 3712TIP3    H132771   5.407   6.032  16.705
 3712TIP3    H232772   5.265   6.033  16.656
 3713TIP3   OH232773   5.555   5.959  16.792
 3713TIP3    H132774   5.597   5.884  16.745
 3713TIP3    H232775   5.627   6.023  16.804
 3714TIP3   OH232776   3.914   5.761  16.896
 3714TIP3    H132777   3.963   5.827  16.844
 3714TIP3    H232778   3.857   5.820  16.945
 3715TIP3   OH232779   4.096   5.957  16.744
 3715TIP3    H132780   4.146   5.893  16.691
 3715TIP3    H232781   4.161   5.982  16.813
 3716TIP3   OH232782   6.696   6.476  16.758
 3716TIP3    H132783   6.766   6.480  16.827
 3716TIP3    H232784   6.735   6.405  16.704
 3717TIP3   OH232785   6.922   6.548  16.910
 3717TIP3    H132786   6.963   6.575  16.994
 3717TIP3    H232787   6.960   6.608  16.842
 3718TIP3   OH232788   7.267   5.733  16.899
 3718TIP3    H132789   7.186   5.757  16.943
 3718TIP3    H232790   7.304   5.814  16.865
 3719TIP3   OH232791   7.079   6.659  16.702
 3719TIP3    H132792   7.070   6.643  16.604
 3719TIP3    H232793   7.158   6.712  16.704
 3720TIP3   OH232794   6.629   6.053  16.753
 3720TIP3    H132795   6.602   6.055  16.846
 3720TIP3    H232796   6.601   5.964  16.724
 3721TIP3   OH232797   6.311   6.088  16.662
 3721TIP3    H132798   6.268   6.057  16.744
 3721TIP3    H232799   6.245   6.142  16.617
 3722TIP3   OH232800   5.762   6.129  16.899
 3722TIP3    H132801   5.819   6.198  16.860
 3722TIP3    H232802   5.701   6.191  16.944
 3723TIP3   OH232803   6.184   6.360  16.808
 3723TIP3    H132804   6.126   6.339  16.734
 3723TIP3    H232805   6.261   6.396  16.762
 3724TIP3   OH232806   6.899   6.111  16.813
 3724TIP3    H132807   6.803   6.123  16.805
 3724TIP3    H232808   6.928   6.193  16.859
 3725TIP3   OH232809   6.974   6.302  16.980
 3725TIP3    H132810   7.064   6.289  17.010
 3725TIP3    H232811   6.976   6.384  16.926
 3726TIP3   OH232812   6.727   6.973  16.904
 3726TIP3    H132813   6.690   7.058  16.932
 3726TIP3    H232814   6.655   6.912  16.926
 3727TIP3   OH232815   5.840   6.601  16.766
 3727TIP3    H132816   5.899   6.658  16.820
 3727TIP3    H232817   5.753   6.626  16.802
 3728TIP3   OH232818   7.037   6.989  16.778
 3728TIP3    H132819   7.063   6.966  16.868
 3728TIP3    H232820   6.941   6.990  16.787
 3729TIP3   OH232821   6.449   7.110  16.626
 3729TIP3    H132822   6.456   7.030  16.572
 3729TIP3    H232823   6.409   7.072  16.709
 3730TIP3   OH232824   6.338   7.066  16.867
 3730TIP3    H132825   6.343   7.014  16.950
 3730TIP3    H232826   6.340   7.156  16.903
 3731TIP3   OH232827   5.955   6.803  16.900
 3731TIP3    H132828   5.918   6.817  16.988
 3731TIP3    H232829   6.036   6.859  16.902
 3732TIP3   OH232830   6.572   7.201  16.887
 3732TIP3    H132831   6.512   7.265  16.930
 3732TIP3    H232832   6.645   7.262  16.863
 3733TIP3   OH232833   6.353  -0.003  16.955
 3733TIP3    H132834   6.350   0.071  16.893
 3733TIP3    H232835   6.314   0.032  17.035
 3734TIP3   OH232836   6.201   5.993  16.886
 3734TIP3    H132837   6.184   6.077  16.928
 3734TIP3    H232838   6.290   5.978  16.923
 3735TIP3   OH232839   6.032   7.059  16.804
 3735TIP3    H132840   6.099   7.115  16.845
 3735TIP3    H232841   6.089   7.006  16.746
 3736TIP3   OH232842   5.869   6.317  16.725
 3736TIP3    H132843   5.871   6.412  16.752
 3736TIP3    H232844   5.778   6.303  16.700
 3737TIP3   OH232845   6.649   7.295  16.648
 3737TIP3    H132846   6.580   7.228  16.667
 3737TIP3    H232847   6.722   7.240  16.616
 3738TIP3   OH232848   7.117   7.269  16.671
 3738TIP3    H132849   7.140   7.188  16.716
 3738TIP3    H232850   7.188   7.284  16.607
 3739TIP3   OH232851   6.195   6.867  16.641
 3739TIP3    H132852   6.208   6.793  16.702
 3739TIP3    H232853   6.272   6.855  16.582
 3740TIP3   OH232854   6.744   6.975  16.626
 3740TIP3    H132855   6.708   6.986  16.716
 3740TIP3    H232856   6.719   6.881  16.608
 3741TIP3   OH232857   6.315   6.665  16.877
 3741TIP3    H132858   6.266   6.619  16.949
 3741TIP3    H232859   6.343   6.594  16.816
 3742TIP3   OH232860   6.422   6.485  16.703
 3742TIP3    H132861   6.407   6.477  16.606
 3742TIP3    H232862   6.520   6.494  16.710
 3743TIP3   OH232863   5.763   7.021  16.757
 3743TIP3    H132864   5.858   7.025  16.783
 3743TIP3    H232865   5.766   6.951  16.689
 3744TIP3   OH232866   7.296   6.328  16.727
 3744TIP3    H132867   7.317   6.390  16.656
 3744TIP3    H232868   7.286   6.243  16.678
 3745TIP3   OH232869   7.237   6.074  16.639
 3745TIP3    H132870   7.292   6.029  16.704
 3745TIP3    H232871   7.150   6.032  16.653
 3746TIP3   OH232872   5.799   5.765  16.891
 3746TIP3    H132873   5.851   5.833  16.850
 3746TIP3    H232874   5.743   5.819  16.947
 3747TIP3   OH232875   5.987   5.957  16.759
 3747TIP3    H132876   6.046   5.891  16.718
 3747TIP3    H232877   6.051   5.988  16.828
 3748TIP3   OH232878   1.172   1.042   9.175
 3748TIP3    H132879   1.171   1.140   9.172
 3748TIP3    H232880   1.099   1.018   9.116
 3749TIP3   OH232881   1.058   0.967   9.525
 3749TIP3    H132882   1.057   0.902   9.598
 3749TIP3    H232883   1.022   0.915   9.451
 3750TIP3   OH232884   0.297   0.934   9.678
 3750TIP3    H132885   0.302   0.865   9.748
 3750TIP3    H232886   0.370   0.992   9.703
 3751TIP3   OH232887   1.426   1.261   9.354
 3751TIP3    H132888   1.386   1.189   9.404
 3751TIP3    H232889   1.427   1.331   9.422
 3752TIP3   OH232890   0.381   1.380   9.532
 3752TIP3    H132891   0.351   1.293   9.500
 3752TIP3    H232892   0.477   1.362   9.535
 3753TIP3   OH232893   0.071   0.738   9.053
 3753TIP3    H132894   0.020   0.817   9.083
 3753TIP3    H232895  -0.003   0.680   9.038
 3754TIP3   OH232896   0.118   0.955   9.291
 3754TIP3    H132897   0.145   0.877   9.342
 3754TIP3    H232898   0.192   0.967   9.230
 3755TIP3   OH232899   1.138   1.779   9.377
 3755TIP3    H132900   1.201   1.708   9.349
 3755TIP3    H232901   1.117   1.744   9.464
 3756TIP3   OH232902   0.895   1.207   9.574
 3756TIP3    H132903   0.929   1.145   9.508
 3756TIP3    H232904   0.976   1.222   9.626
 3757TIP3   OH232905   1.757   0.371   9.645
 3757TIP3    H132906   1.772   0.432   9.722
 3757TIP3    H232907   1.811   0.415   9.578
 3758TIP3   OH232908   1.212   0.654   9.606
 3758TIP3    H132909   1.228   0.557   9.606
 3758TIP3    H232910   1.202   0.668   9.510
 3759TIP3   OH232911   0.525   0.466   9.326
 3759TIP3    H132912   0.535   0.549   9.275
 3759TIP3    H232913   0.485   0.407   9.259
 3760TIP3   OH232914   1.298   0.469   9.162
 3760TIP3    H132915   1.362   0.441   9.231
 3760TIP3    H232916   1.354   0.528   9.108
 3761TIP3   OH232917   0.188   0.700   9.392
 3761TIP3    H132918   0.256   0.651   9.442
 3761TIP3    H232919   0.203   0.669   9.302
 3762TIP3   OH232920   0.701   0.859   9.332
 3762TIP3    H132921   0.769   0.801   9.370
 3762TIP3    H232922   0.650   0.793   9.280
 3763TIP3   OH232923   1.797   0.512   9.872
 3763TIP3    H132924   1.738   0.589   9.864
 3763TIP3    H232925   1.805   0.505   9.969
 3764TIP3   OH232926   0.414   0.356   9.731
 3764TIP3    H132927   0.386   0.410   9.654
 3764TIP3    H232928   0.345   0.376   9.798
 3765TIP3   OH232929   1.143   1.300   9.085
 3765TIP3    H132930   1.115   1.273   8.995
 3765TIP3    H232931   1.112   1.393   9.089
 3766TIP3   OH232932   0.667   1.117   9.751
 3766TIP3    H132933   0.595   1.179   9.777
 3766TIP3    H232934   0.737   1.178   9.724
 3767TIP3   OH232935   1.478   0.406   9.362
 3767TIP3    H132936   1.455   0.330   9.416
 3767TIP3    H232937   1.546   0.448   9.419
 3768TIP3   OH232938   0.370   0.535   9.532
 3768TIP3    H132939   0.430   0.605   9.566
 3768TIP3    H232940   0.425   0.496   9.460
 3769TIP3   OH232941   0.509   1.316   9.833
 3769TIP3    H132942   0.505   1.409   9.803
 3769TIP3    H232943   0.422   1.310   9.879
 3770TIP3   OH232944   0.119   1.285   8.912
 3770TIP3    H132945   0.097   1.315   8.822
 3770TIP3    H232946   0.125   1.365   8.967
 3771TIP3   OH232947   1.479   1.446   9.590
 3771TIP3    H132948   1.382   1.455   9.603
 3771TIP3    H232949   1.504   1.538   9.571
 3772TIP3   OH232950   1.515   0.276   9.736
 3772TIP3    H132951   1.440   0.335   9.718
 3772TIP3    H232952   1.584   0.314   9.677
 3773TIP3   OH232953   0.837   0.105   9.474
 3773TIP3    H132954   0.825   0.010   9.472
 3773TIP3    H232955   0.746   0.130   9.497
 3774TIP3   OH232956   1.308   1.624   9.253
 3774TIP3    H132957   1.346   1.551   9.198
 3774TIP3    H232958   1.348   1.703   9.210
 3775TIP3   OH232959   1.429   1.417   9.102
 3775TIP3    H132960   1.398   1.349   9.039
 3775TIP3    H232961   1.429   1.366   9.185
 3776TIP3   OH232962   1.585   1.277   9.950
 3776TIP3    H132963   1.603   1.210   9.880
 3776TIP3    H232964   1.609   1.361   9.906
 3777TIP3   OH232965   1.037   0.965   8.925
 3777TIP3    H132966   0.969   1.023   8.887
 3777TIP3    H232967   1.109   0.975   8.860
 3778TIP3   OH232968   1.040   0.816   8.637
 3778TIP3    H132969   1.114   0.819   8.699
 3778TIP3    H232970   1.076   0.758   8.570
 3779TIP3   OH232971   1.775   0.905   9.750
 3779TIP3    H132972   1.713   0.980   9.760
 3779TIP3    H232973   1.826   0.932   9.673
 3780TIP3   OH232974   1.382   0.986   9.021
 3780TIP3    H132975   1.308   1.010   9.082
 3780TIP3    H232976   1.431   0.919   9.072
 3781TIP3   OH232977   1.375   0.802   9.928
 3781TIP3    H132978   1.377   0.882   9.984
 3781TIP3    H232979   1.311   0.834   9.862
 3782TIP3   OH232980   0.546   1.054   9.211
 3782TIP3    H132981   0.511   1.013   9.129
 3782TIP3    H232982   0.606   0.983   9.245
 3783TIP3   OH232983   0.676   1.390   9.479
 3783TIP3    H132984   0.675   1.338   9.398
 3783TIP3    H232985   0.754   1.355   9.525
 3784TIP3   OH232986   0.578   0.927   9.578
 3784TIP3    H132987   0.632   0.937   9.497
 3784TIP3    H232988   0.616   0.994   9.639
 3785TIP3   OH232989   1.219   1.484   9.648
 3785TIP3    H132990   1.190   1.548   9.714
 3785TIP3    H232991   1.192   1.399   9.691
 3786TIP3   OH232992   0.674   1.373  10.047
 3786TIP3    H132993   0.631   1.444  10.098
 3786TIP3    H232994   0.606   1.349   9.980
 3787TIP3   OH232995   1.272   0.904   8.786
 3787TIP3    H132996   1.325   0.925   8.867
 3787TIP3    H232997   1.313   0.959   8.716
 3788TIP3   OH232998   0.369   0.985   9.968
 3788TIP3    H132999   0.374   1.058  10.033
 3788TIP3    H233000   0.277   0.995   9.939
 3789TIP3   OH233001   1.042   1.578   9.135
 3789TIP3    H133002   1.085   1.610   9.215
 3789TIP3    H233003   0.986   1.653   9.108
 3790TIP3   OH233004   0.495   1.571  10.118
 3790TIP3    H133005   0.489   1.563  10.022
 3790TIP3    H233006   0.403   1.560  10.148
 3791TIP3   OH233007   1.644   0.089   8.771
 3791TIP3    H133008   1.550   0.089   8.800
 3791TIP3    H233009   1.660   0.174   8.730
 3792TIP3   OH233010   0.443   0.954   8.970
 3792TIP3    H133011   0.414   1.032   8.920
 3792TIP3    H233012   0.375   0.889   8.949
 3793TIP3   OH233013   1.752   1.514   8.617
 3793TIP3    H133014   1.767   1.610   8.626
 3793TIP3    H233015   1.844   1.484   8.606
 3794TIP3   OH233016   0.092   1.189   9.843
 3794TIP3    H133017   0.021   1.194   9.776
 3794TIP3    H233018   0.067   1.102   9.879
 3795TIP3   OH233019   0.043   1.487   9.521
 3795TIP3    H133020   0.131   1.454   9.542
 3795TIP3    H233021   0.024   1.545   9.596
 3796TIP3   OH233022   1.848   1.542  10.106
 3796TIP3    H133023   1.839   1.445  10.109
 3796TIP3    H233024   1.763   1.566  10.149
 3797TIP3   OH233025   0.945   1.496   9.991
 3797TIP3    H133026   0.951   1.578  10.047
 3797TIP3    H233027   0.860   1.458  10.020
 3798TIP3   OH233028   0.988   1.869   8.974
 3798TIP3    H133029   0.981   1.864   8.877
 3798TIP3    H233030   0.993   1.965   8.991
 3799TIP3   OH233031   0.354   1.758   9.156
 3799TIP3    H133032   0.368   1.715   9.243
 3799TIP3    H233033   0.271   1.715   9.130
 3800TIP3   OH233034   1.293   1.792   8.671
 3800TIP3    H133035   1.340   1.716   8.630
 3800TIP3    H233036   1.299   1.765   8.765
 3801TIP3   OH233037   1.264   1.787   8.952
 3801TIP3    H133038   1.168   1.792   8.969
 3801TIP3    H233039   1.289   1.711   9.007
 3802TIP3   OH233040   1.579   0.690  10.139
 3802TIP3    H133041   1.511   0.734  10.087
 3802TIP3    H233042   1.560   0.595  10.129
 3803TIP3   OH233043   0.280   1.333   9.961
 3803TIP3    H133044   0.297   1.291  10.048
 3803TIP3    H233045   0.195   1.291   9.932
 3804TIP3   OH233046   0.542   0.193   9.558
 3804TIP3    H133047   0.455   0.173   9.517
 3804TIP3    H233048   0.524   0.274   9.606
 3805TIP3   OH233049   1.009   0.141   9.889
 3805TIP3    H133050   1.047   0.107   9.971
 3805TIP3    H233051   0.913   0.136   9.906
 3806TIP3   OH233052   1.336   0.523   9.971
 3806TIP3    H133053   1.285   0.508  10.054
 3806TIP3    H233054   1.326   0.619   9.956
 3807TIP3   OH233055   1.418   1.016   8.571
 3807TIP3    H133056   1.425   0.997   8.476
 3807TIP3    H233057   1.507   1.057   8.584
 3808TIP3   OH233058   0.982   0.389   8.620
 3808TIP3    H133059   0.948   0.403   8.712
 3808TIP3    H233060   0.933   0.309   8.602
 3809TIP3   OH233061   0.557   0.674   9.678
 3809TIP3    H133062   0.483   0.673   9.742
 3809TIP3    H233063   0.550   0.765   9.641
 3810TIP3   OH233064   0.554   0.684   9.164
 3810TIP3    H133065   0.460   0.661   9.150
 3810TIP3    H233066   0.592   0.656   9.078
 3811TIP3   OH233067   1.106   0.736   9.036
 3811TIP3    H133068   1.065   0.819   9.004
 3811TIP3    H233069   1.174   0.720   8.969
 3812TIP3   OH233070   1.011   0.760  10.190
 3812TIP3    H133071   0.959   0.679  10.215
 3812TIP3    H233072   1.096   0.743  10.233
 3813TIP3   OH233073   1.209   0.685   9.325
 3813TIP3    H133074   1.180   0.741   9.252
 3813TIP3    H233075   1.218   0.600   9.278
 3814TIP3   OH233076   0.322   0.696   9.844
 3814TIP3    H133077   0.324   0.741   9.930
 3814TIP3    H233078   0.274   0.614   9.863
 3815TIP3   OH233079   0.674   0.457   8.559
 3815TIP3    H133080   0.618   0.399   8.615
 3815TIP3    H233081   0.611   0.499   8.501
 3816TIP3   OH233082   0.011   0.431   9.228
 3816TIP3    H133083   0.055   0.406   9.312
 3816TIP3    H233084   0.040   0.366   9.164
 3817TIP3   OH233085   0.116   0.492   8.780
 3817TIP3    H133086   0.167   0.547   8.717
 3817TIP3    H233087   0.043   0.551   8.803
 3818TIP3   OH233088   1.127   0.843   9.780
 3818TIP3    H133089   1.166   0.774   9.722
 3818TIP3    H233090   1.080   0.790   9.847
 3819TIP3   OH233091   0.808   0.441   9.263
 3819TIP3    H133092   0.715   0.437   9.293
 3819TIP3    H233093   0.857   0.426   9.345
 3820TIP3   OH233094   0.298   0.594   9.147
 3820TIP3    H133095   0.208   0.613   9.113
 3820TIP3    H233096   0.320   0.507   9.107
 3821TIP3   OH233097   0.654   0.600   8.911
 3821TIP3    H133098   0.749   0.614   8.931
 3821TIP3    H233099   0.629   0.668   8.845
 3822TIP3   OH233100   1.249   0.363   9.586
 3822TIP3    H133101   1.181   0.369   9.656
 3822TIP3    H233102   1.199   0.339   9.507
 3823TIP3   OH233103   0.526   0.716   8.673
 3823TIP3    H133104   0.469   0.684   8.601
 3823TIP3    H233105   0.607   0.740   8.625
 3824TIP3   OH233106   1.566   1.943  10.221
 3824TIP3    H133107   1.602   1.959  10.130
 3824TIP3    H233108   1.646   1.956  10.273
 3825TIP3   OH233109   0.336   1.171  10.178
 3825TIP3    H133110   0.410   1.201  10.233
 3825TIP3    H233111   0.263   1.194  10.237
 3826TIP3   OH233112   0.937   0.715   9.452
 3826TIP3    H133113   0.995   0.659   9.400
 3826TIP3    H233114   0.922   0.662   9.532
 3827TIP3   OH233115   0.436   0.337   9.095
 3827TIP3    H133116   0.403   0.245   9.099
 3827TIP3    H233117   0.516   0.326   9.042
 3828TIP3   OH233118   0.800   0.547   9.695
 3828TIP3    H133119   0.718   0.601   9.703
 3828TIP3    H233120   0.856   0.584   9.766
 3829TIP3   OH233121   0.859   1.169   8.867
 3829TIP3    H133122   0.779   1.124   8.833
 3829TIP3    H233123   0.836   1.183   8.961
 3830TIP3   OH233124   1.579   1.093   9.744
 3830TIP3    H133125   1.634   1.141   9.680
 3830TIP3    H233126   1.492   1.096   9.698
 3831TIP3   OH233127   1.243   0.452   8.678
 3831TIP3    H133128   1.149   0.473   8.671
 3831TIP3    H233129   1.279   0.536   8.714
 3832TIP3   OH233130   1.011   1.200   9.985
 3832TIP3    H133131   0.973   1.156  10.062
 3832TIP3    H233132   0.981   1.290   9.998
 3833TIP3   OH233133   1.316   0.642   8.845
 3833TIP3    H133134   1.405   0.631   8.884
 3833TIP3    H233135   1.325   0.725   8.795
 3834TIP3   OH233136   0.372   1.112   9.444
 3834TIP3    H133137   0.438   1.102   9.374
 3834TIP3    H233138   0.377   1.027   9.490
 3835TIP3   OH233139   1.069   1.318   8.772
 3835TIP3    H133140   1.032   1.402   8.804
 3835TIP3    H233141   0.995   1.255   8.789
 3836TIP3   OH233142   0.091   0.930   9.946
 3836TIP3    H133143   0.101   0.905  10.039
 3836TIP3    H233144   0.007   0.889   9.922
 3837TIP3   OH233145   0.768   0.902  10.195
 3837TIP3    H133146   0.739   0.881  10.104
 3837TIP3    H233147   0.863   0.878  10.188
 3838TIP3   OH233148   1.239   1.442   9.986
 3838TIP3    H133149   1.147   1.459   9.961
 3838TIP3    H233150   1.236   1.471  10.079
 3839TIP3   OH233151   1.803   0.661   8.825
 3839TIP3    H133152   1.750   0.629   8.751
 3839TIP3    H233153   1.814   0.754   8.795
 3840TIP3   OH233154   1.804   1.247  10.103
 3840TIP3    H133155   1.713   1.263  10.066
 3840TIP3    H233156   1.858   1.238  10.022
 3841TIP3   OH233157   1.635   1.541   8.861
 3841TIP3    H133158   1.598   1.459   8.895
 3841TIP3    H233159   1.665   1.521   8.770
 3842TIP3   OH233160   1.355   1.023   9.573
 3842TIP3    H133161   1.261   1.001   9.561
 3842TIP3    H233162   1.399   0.947   9.529
 3843TIP3   OH233163   0.606   1.457   9.184
 3843TIP3    H133164   0.657   1.537   9.163
 3843TIP3    H233165   0.519   1.480   9.150
 3844TIP3   OH233166   0.170   0.937   8.644
 3844TIP3    H133167   0.239   1.000   8.674
 3844TIP3    H233168   0.089   0.975   8.675
 3845TIP3   OH233169   0.749   1.223   9.135
 3845TIP3    H133170   0.717   1.315   9.143
 3845TIP3    H233171   0.677   1.173   9.179
 3846TIP3   OH233172   0.795   1.642   9.773
 3846TIP3    H133173   0.840   1.723   9.747
 3846TIP3    H233174   0.856   1.607   9.841
 3847TIP3   OH233175   0.617   1.722   9.087
 3847TIP3    H133176   0.521   1.736   9.102
 3847TIP3    H233177   0.653   1.805   9.122
 3848TIP3   OH233178   1.146   1.240   9.736
 3848TIP3    H133179   1.114   1.222   9.827
 3848TIP3    H233180   1.210   1.169   9.720
 3849TIP3   OH233181   1.374   1.348   8.653
 3849TIP3    H133182   1.407   1.298   8.730
 3849TIP3    H233183   1.279   1.328   8.658
 3850TIP3   OH233184   1.427   1.702   9.989
 3850TIP3    H133185   1.359   1.651   9.940
 3850TIP3    H233186   1.447   1.769   9.921
 3851TIP3   OH233187   1.828   1.787   8.672
 3851TIP3    H133188   1.897   1.850   8.646
 3851TIP3    H233189   1.756   1.846   8.701
 3852TIP3   OH233190   0.235   0.424   9.930
 3852TIP3    H133191   0.144   0.457   9.922
 3852TIP3    H233192   0.221   0.334   9.966
 3853TIP3   OH233193   1.458   1.212   8.874
 3853TIP3    H133194   1.434   1.130   8.922
 3853TIP3    H233195   1.553   1.217   8.891
 3854TIP3   OH233196   0.200   1.607   9.765
 3854TIP3    H133197   0.222   1.512   9.767
 3854TIP3    H233198   0.220   1.631   9.856
 3855TIP3   OH233199   0.671   1.412   8.739
 3855TIP3    H133200   0.697   1.356   8.813
 3855TIP3    H233201   0.679   1.503   8.774
 3856TIP3   OH233202   0.317   1.134   8.783
 3856TIP3    H133203   0.255   1.175   8.847
 3856TIP3    H233204   0.375   1.209   8.762
 3857TIP3   OH233205   1.109   0.399   9.821
 3857TIP3    H133206   1.181   0.408   9.885
 3857TIP3    H233207   1.071   0.311   9.839
 3858TIP3   OH233208   1.187   0.357   8.931
 3858TIP3    H133209   1.206   0.409   8.851
 3858TIP3    H233210   1.236   0.408   8.998
 3859TIP3   OH233211   0.950   1.577   8.814
 3859TIP3    H133212   0.868   1.629   8.819
 3859TIP3    H233213   1.005   1.626   8.749
 3860TIP3   OH233214   0.904   0.531   9.012
 3860TIP3    H133215   0.981   0.590   9.013
 3860TIP3    H233216   0.878   0.521   9.105
 3861TIP3   OH233217   0.964   0.637   9.925
 3861TIP3    H133218   0.967   0.691  10.006
 3861TIP3    H233219   1.027   0.565   9.940
 3862TIP3   OH233220   0.991   0.238   9.107
 3862TIP3    H133221   0.957   0.307   9.166
 3862TIP3    H233222   1.055   0.291   9.054
 3863TIP3   OH233223   0.690   1.680   8.816
 3863TIP3    H133224   0.702   1.762   8.764
 3863TIP3    H233225   0.661   1.715   8.904
 3864TIP3   OH233226   0.559   0.347   8.776
 3864TIP3    H133227   0.549   0.439   8.809
 3864TIP3    H233228   0.650   0.332   8.805
 3865TIP3   OH233229   1.576   0.418  10.017
 3865TIP3    H133230   1.485   0.455  10.006
 3865TIP3    H233231   1.608   0.423   9.925
 3866TIP3   OH233232   1.439   0.802   9.416
 3866TIP3    H133233   1.357   0.758   9.389
 3866TIP3    H233234   1.487   0.734   9.468
 3867TIP3   OH233235   0.378   1.396   8.676
 3867TIP3    H133236   0.445   1.457   8.708
 3867TIP3    H233237   0.431   1.347   8.609
 3868TIP3   OH233238   0.225   0.662   8.592
 3868TIP3    H133239   0.219   0.757   8.610
 3868TIP3    H233240   0.135   0.641   8.565
 3869TIP3   OH233241   1.549   1.725   9.575
 3869TIP3    H133242   1.531   1.802   9.518
 3869TIP3    H233243   1.639   1.736   9.612
 3870TIP3   OH233244   0.276   0.155   9.465
 3870TIP3    H133245   0.278   0.144   9.367
 3870TIP3    H233246   0.263   0.062   9.490
 3871TIP3   OH233247   0.194   1.533   9.080
 3871TIP3    H133248   0.107   1.573   9.074
 3871TIP3    H233249   0.239   1.581   9.008
 3872TIP3   OH233250   0.126   1.798  10.209
 3872TIP3    H133251   0.178   1.763  10.280
 3872TIP3    H233252   0.073   1.719  10.186
 3873TIP3   OH233253   1.031   1.645   8.567
 3873TIP3    H133254   0.946   1.598   8.557
 3873TIP3    H233255   1.080   1.601   8.498
 3874TIP3   OH233256   1.230   1.527  10.242
 3874TIP3    H133257   1.196   1.439  10.271
 3874TIP3    H233258   1.307   1.540  10.300
 3875TIP3   OH233259   1.451   1.619   8.528
 3875TIP3    H133260   1.474   1.537   8.576
 3875TIP3    H233261   1.529   1.637   8.475
 3876TIP3   OH233262   0.111   1.179  10.303
 3876TIP3    H133263   0.120   1.085  10.279
 3876TIP3    H233264   0.030   1.201  10.256
 3877TIP3   OH233265   0.545   1.216   8.523
 3877TIP3    H133266   0.552   1.133   8.571
 3877TIP3    H233267   0.600   1.193   8.446
 3878TIP3   OH233268   1.343   1.161   9.984
 3878TIP3    H133269   1.423   1.218   9.978
 3878TIP3    H233270   1.273   1.228   9.989
 3879TIP3   OH233271   0.183   0.894  10.244
 3879TIP3    H133272   0.236   0.817  10.230
 3879TIP3    H233273   0.174   0.904  10.341
 3880TIP3   OH233274   0.659   1.013   8.752
 3880TIP3    H133275   0.607   0.960   8.814
 3880TIP3    H233276   0.689   0.945   8.688
 3881TIP3   OH233277   0.581   0.791   9.982
 3881TIP3    H133278   0.525   0.866  10.006
 3881TIP3    H233279   0.623   0.827   9.901
 3882TIP3   OH233280   0.764   0.837   8.571
 3882TIP3    H133281   0.755   0.815   8.477
 3882TIP3    H233282   0.862   0.843   8.582
 3883TIP3   OH233283   1.092   1.052  10.331
 3883TIP3    H133284   1.184   1.045  10.298
 3883TIP3    H233285   1.080   0.965  10.369
 3884TIP3   OH233286   1.661   1.097  17.065
 3884TIP3    H133287   1.665   1.038  16.985
 3884TIP3    H233288   1.706   1.166  17.014
 3885TIP3   OH233289   0.619   0.530  10.088
 3885TIP3    H133290   0.637   0.459  10.023
 3885TIP3    H233291   0.621   0.610  10.032
 3886TIP3   OH233292   0.666   0.369   9.841
 3886TIP3    H133293   0.716   0.416   9.771
 3886TIP3    H233294   0.576   0.358   9.802
 3887TIP3   OH233295   0.819   0.917   9.865
 3887TIP3    H133296   0.895   0.901   9.808
 3887TIP3    H233297   0.782   1.001   9.833
 3888TIP3   OH233298   1.388   0.971  10.172
 3888TIP3    H133299   1.371   1.047  10.113
 3888TIP3    H233300   1.486   0.967  10.167
 3889TIP3   OH233301   0.474   0.654  10.271
 3889TIP3    H133302   0.410   0.591  10.233
 3889TIP3    H233303   0.548   0.626  10.213
 3890TIP3   OH233304   0.736   0.127   9.897
 3890TIP3    H133305   0.725   0.223   9.875
 3890TIP3    H233306   0.669   0.087   9.839
 3891TIP3   OH233307   0.869   0.546  10.241
 3891TIP3    H133308   0.837   0.516  10.328
 3891TIP3    H233309   0.791   0.523  10.188
 3892TIP3   OH233310   1.143   0.460  10.148
 3892TIP3    H133311   1.047   0.463  10.162
 3892TIP3    H233312   1.172   0.400  10.219
 3893TIP3   OH233313   1.302   0.332  10.351
 3893TIP3    H133314   1.293   0.233  10.342
 3893TIP3    H233315   1.272   0.350  10.439
 3894TIP3   OH233316   0.287   0.442  10.256
 3894TIP3    H133317   0.306   0.371  10.192
 3894TIP3    H233318   0.273   0.386  10.337
 3895TIP3   OH233319   0.761   7.393  10.149
 3895TIP3    H133320   0.829   7.326  10.162
 3895TIP3    H233321   0.758   7.413  10.054
 3896TIP3   OH233322   0.749   1.902   8.672
 3896TIP3    H133323   0.846   1.913   8.685
 3896TIP3    H233324   0.728   1.970   8.608
 3897TIP3   OH233325   0.107   1.360   8.629
 3897TIP3    H133326   0.203   1.373   8.648
 3897TIP3    H233327   0.109   1.303   8.551
 3898TIP3   OH233328   7.349   1.909   9.112
 3898TIP3    H133329   7.263   1.883   9.076
 3898TIP3    H233330   7.364   1.843   9.184
 3899TIP3   OH233331   0.058   1.717   9.305
 3899TIP3    H133332   0.030   1.627   9.329
 3899TIP3    H233333   0.088   1.747   9.393
 3900TIP3   OH233334   1.820   1.799   9.615
 3900TIP3    H133335   1.824   1.810   9.713
 3900TIP3    H233336   1.896   1.854   9.590
 3901TIP3   OH233337   1.777   1.752   9.898
 3901TIP3    H133338   1.727   1.675   9.862
 3901TIP3    H233339   1.824   1.708   9.970
 3902TIP3   OH233340   1.621   1.331  10.370
 3902TIP3    H133341   1.531   1.316  10.400
 3902TIP3    H233342   1.656   1.408  10.413
 3903TIP3   OH233343   1.753   1.157   8.908
 3903TIP3    H133344   1.838   1.198   8.930
 3903TIP3    H233345   1.749   1.086   8.976
 3904TIP3   OH233346   1.787   0.965   9.097
 3904TIP3    H133347   1.712   0.915   9.135
 3904TIP3    H233348   1.846   0.978   9.174
 3905TIP3   OH233349   1.763   1.235   9.595
 3905TIP3    H133350   1.844   1.196   9.557
 3905TIP3    H233351   1.778   1.330   9.579
 3906TIP3   OH233352   1.618   1.526   9.820
 3906TIP3    H133353   1.550   1.557   9.882
 3906TIP3    H233354   1.562   1.484   9.751
 3907TIP3   OH233355   1.813   0.946   8.735
 3907TIP3    H133356   1.757   0.984   8.666
 3907TIP3    H233357   1.808   1.017   8.802
 3908TIP3   OH233358   1.600   0.679   8.604
 3908TIP3    H133359   1.653   0.735   8.543
 3908TIP3    H233360   1.632   0.597   8.559
 3909TIP3   OH233361   1.569   0.812   9.155
 3909TIP3    H133362   1.554   0.717   9.149
 3909TIP3    H233363   1.537   0.833   9.244
 3910TIP3   OH233364   0.066   1.018   9.558
 3910TIP3    H133365   0.086   1.015   9.462
 3910TIP3    H233366   0.156   1.006   9.596
 3911TIP3   OH233367   1.652   1.007  10.120
 3911TIP3    H133368   1.713   0.933  10.139
 3911TIP3    H233369   1.712   1.083  10.123
 3912TIP3   OH233370   1.809   0.798  10.185
 3912TIP3    H133371   1.717   0.761  10.177
 3912TIP3    H233372   1.859   0.715  10.179
 3913TIP3   OH233373   1.573   0.412   8.498
 3913TIP3    H133374   1.639   0.378   8.562
 3913TIP3    H233375   1.489   0.373   8.523
 3914TIP3   OH233376   1.535   0.572   9.002
 3914TIP3    H133377   1.566   0.480   9.012
 3914TIP3    H233378   1.613   0.611   8.960
 3915TIP3   OH233379   1.600   0.627   9.543
 3915TIP3    H133380   1.696   0.648   9.543
 3915TIP3    H233381   1.580   0.638   9.638
 3916TIP3   OH233382   1.605   0.699   9.819
 3916TIP3    H133383   1.520   0.727   9.860
 3916TIP3    H233384   1.650   0.785   9.800
 3917TIP3   OH233385   0.055   0.548  10.187
 3917TIP3    H133386   0.142   0.507  10.190
 3917TIP3    H233387  -0.008   0.473  10.202
 3918TIP3   OH233388   1.841   0.097  10.358
 3918TIP3    H133389   1.868   0.033  10.291
 3918TIP3    H233390   1.839   0.183  10.310
 3919TIP3   OH233391   1.603   0.297   9.004
 3919TIP3    H133392   1.623   0.253   9.089
 3919TIP3    H233393   1.544   0.232   8.959
 3920TIP3   OH233394   0.146   0.383   9.461
 3920TIP3    H133395   0.196   0.302   9.484
 3920TIP3    H233396   0.205   0.448   9.501
 3921TIP3   OH233397   0.052   0.731   9.606
 3921TIP3    H133398   0.060   0.694   9.516
 3921TIP3    H233399   0.030   0.821   9.581
 3922TIP3   OH233400   1.789   0.309  10.187
 3922TIP3    H133401   1.696   0.339  10.188
 3922TIP3    H233402   1.789   0.253  10.108
 3923TIP3   OH233403   1.785   0.309   8.656
 3923TIP3    H133404   1.829   0.232   8.614
 3923TIP3    H233405   1.859   0.372   8.659
 3924TIP3   OH233406   7.402   0.297   8.944
 3924TIP3    H133407   7.308   0.323   8.953
 3924TIP3    H233408   7.428   0.367   8.880
 3925TIP3   OH233409   1.491   1.798   9.169
 3925TIP3    H133410   1.557   1.772   9.101
 3925TIP3    H233411   1.539   1.857   9.228
 3926TIP3   OH233412   7.368   0.171   9.816
 3926TIP3    H133413   7.293   0.146   9.870
 3926TIP3    H233414   7.318   0.224   9.751
 3927TIP3   OH233415   0.235   1.506  10.221
 3927TIP3    H133416   0.151   1.511  10.175
 3927TIP3    H233417   0.210   1.477  10.310
 3928TIP3   OH233418   0.525   1.594   9.844
 3928TIP3    H133419   0.489   1.679   9.816
 3928TIP3    H233420   0.618   1.601   9.815
 3929TIP3   OH233421   0.960   1.729  10.131
 3929TIP3    H133422   0.972   1.701  10.225
 3929TIP3    H233423   1.048   1.767  10.112
 3930TIP3   OH233424   1.187   1.863  10.067
 3930TIP3    H133425   1.258   1.802  10.041
 3930TIP3    H233426   1.222   1.901  10.150
 3931TIP3   OH233427   1.690   0.125   9.972
 3931TIP3    H133428   1.606   0.157   9.938
 3931TIP3    H233429   1.704   0.042   9.924
 3932TIP3   OH233430   0.269   1.918   9.845
 3932TIP3    H133431   0.193   1.964   9.805
 3932TIP3    H233432   0.233   1.896   9.932
 3933TIP3   OH233433   0.515   1.874   9.751
 3933TIP3    H133434   0.427   1.890   9.792
 3933TIP3    H233435   0.509   1.934   9.674
 3934TIP3   OH233436   0.985   1.864   9.669
 3934TIP3    H133437   0.939   1.920   9.604
 3934TIP3    H233438   0.998   1.928   9.743
 3935TIP3   OH233439   1.213   1.745   9.772
 3935TIP3    H133440   1.128   1.773   9.734
 3935TIP3    H233441   1.262   1.829   9.763
 3936TIP3   OH233442   1.473   1.901   9.793
 3936TIP3    H133443   1.465   1.997   9.770
 3936TIP3    H233444   1.492   1.864   9.706
 3937TIP3   OH233445   0.212   1.780   9.536
 3937TIP3    H133446   0.207   1.737   9.624
 3937TIP3    H233447   0.293   1.741   9.499
 3938TIP3   OH233448   0.422   1.650   9.402
 3938TIP3    H133449   0.403   1.558   9.428
 3938TIP3    H233450   0.506   1.667   9.449
 3939TIP3   OH233451   0.682   1.701   9.492
 3939TIP3    H133452   0.697   1.608   9.465
 3939TIP3    H233453   0.686   1.694   9.588
 3940TIP3   OH233454   1.024   0.274   9.402
 3940TIP3    H133455   0.961   0.205   9.433
 3940TIP3    H233456   1.087   0.219   9.353
 3941TIP3   OH233457   1.539   0.073   9.414
 3941TIP3    H133458   1.600   0.126   9.359
 3941TIP3    H233459   1.452   0.106   9.389
 3942TIP3   OH233460   1.710   0.198   9.236
 3942TIP3    H133461   1.778   0.137   9.201
 3942TIP3    H233462   1.761   0.281   9.249
 3943TIP3   OH233463   0.274   0.132   9.172
 3943TIP3    H133464   0.184   0.107   9.143
 3943TIP3    H233465   0.305   0.044   9.196
 3944TIP3   OH233466   0.151   0.151   8.706
 3944TIP3    H133467   0.221   0.217   8.692
 3944TIP3    H233468   0.108   0.174   8.789
 3945TIP3   OH233469   0.738   0.163   9.203
 3945TIP3    H133470   0.832   0.161   9.177
 3945TIP3    H233471   0.727   0.096   9.270
 3946TIP3   OH233472   1.262   0.147   9.335
 3946TIP3    H133473   1.276   0.147   9.240
 3946TIP3    H233474   1.252   0.050   9.349
 3947TIP3   OH233475   1.407   0.125   8.903
 3947TIP3    H133476   1.335   0.186   8.883
 3947TIP3    H233477   1.367   0.038   8.913
 3948TIP3   OH233478   0.150   1.705   8.856
 3948TIP3    H133479   0.070   1.697   8.799
 3948TIP3    H233480   0.137   1.799   8.878
 3949TIP3   OH233481   0.329   0.306   8.603
 3949TIP3    H133482   0.375   0.235   8.556
 3949TIP3    H233483   0.391   0.331   8.673
 3950TIP3   OH233484   0.822   0.319   8.855
 3950TIP3    H133485   0.856   0.266   8.929
 3950TIP3    H233486   0.831   0.407   8.899
 3951TIP3   OH233487   1.015   1.858   8.699
 3951TIP3    H133488   1.112   1.855   8.685
 3951TIP3    H233489   0.998   1.784   8.637
 3952TIP3   OH233490   1.689   1.778   8.972
 3952TIP3    H133491   1.669   1.701   8.913
 3952TIP3    H233492   1.682   1.850   8.906
 3953TIP3   OH233493   0.240   0.192  10.141
 3953TIP3    H133494   0.213   0.105  10.175
 3953TIP3    H233495   0.335   0.180  10.164
 3954TIP3   OH233496   0.436   0.136  10.293
 3954TIP3    H133497   0.530   0.114  10.279
 3954TIP3    H233498   0.418   0.050  10.336
 3955TIP3   OH233499   0.320   1.798   8.560
 3955TIP3    H133500   0.286   1.823   8.647
 3955TIP3    H233501   0.391   1.739   8.580
 3956TIP3   OH233502   1.290   7.421  10.312
 3956TIP3    H133503   1.289   7.353  10.383
 3956TIP3    H233504   1.371   7.391  10.270
 3957TIP3   OH233505   1.611   1.658  10.187
 3957TIP3    H133506   1.539   1.639  10.122
 3957TIP3    H233507   1.602   1.753  10.193
 3958TIP3   OH233508   3.058   1.042   9.176
 3958TIP3    H133509   3.057   1.140   9.172
 3958TIP3    H233510   2.985   1.018   9.116
 3959TIP3   OH233511   2.943   0.966   9.526
 3959TIP3    H133512   2.943   0.902   9.599
 3959TIP3    H233513   2.909   0.916   9.450
 3960TIP3   OH233514   2.178   0.935   9.683
 3960TIP3    H133515   2.187   0.866   9.752
 3960TIP3    H233516   2.254   0.992   9.704
 3961TIP3   OH233517   3.312   1.262   9.354
 3961TIP3    H133518   3.271   1.191   9.404
 3961TIP3    H233519   3.315   1.333   9.421
 3962TIP3   OH233520   2.271   1.380   9.530
 3962TIP3    H133521   2.240   1.292   9.499
 3962TIP3    H233522   2.367   1.361   9.535
 3963TIP3   OH233523   1.939   0.732   9.081
 3963TIP3    H133524   1.895   0.820   9.076
 3963TIP3    H233525   1.879   0.681   9.024
 3964TIP3   OH233526   2.007   0.959   9.295
 3964TIP3    H133527   2.034   0.876   9.339
 3964TIP3    H233528   2.076   0.969   9.228
 3965TIP3   OH233529   3.023   1.778   9.378
 3965TIP3    H133530   3.089   1.709   9.349
 3965TIP3    H233531   3.002   1.744   9.465
 3966TIP3   OH233532   2.781   1.207   9.574
 3966TIP3    H133533   2.814   1.145   9.508
 3966TIP3    H233534   2.863   1.222   9.625
 3967TIP3   OH233535   3.641   0.371   9.645
 3967TIP3    H133536   3.658   0.431   9.722
 3967TIP3    H233537   3.697   0.414   9.579
 3968TIP3   OH233538   3.094   0.650   9.607
 3968TIP3    H133539   3.116   0.555   9.603
 3968TIP3    H233540   3.087   0.669   9.512
 3969TIP3   OH233541   2.417   0.468   9.343
 3969TIP3    H133542   2.415   0.557   9.302
 3969TIP3    H233543   2.360   0.404   9.296
 3970TIP3   OH233544   3.183   0.470   9.162
 3970TIP3    H133545   3.247   0.440   9.231
 3970TIP3    H233546   3.239   0.528   9.109
 3971TIP3   OH233547   2.073   0.706   9.400
 3971TIP3    H133548   2.137   0.649   9.447
 3971TIP3    H233549   2.080   0.673   9.309
 3972TIP3   OH233550   2.586   0.859   9.331
 3972TIP3    H133551   2.655   0.802   9.371
 3972TIP3    H233552   2.536   0.793   9.280
 3973TIP3   OH233553   3.681   0.510   9.873
 3973TIP3    H133554   3.623   0.589   9.862
 3973TIP3    H233555   3.689   0.505   9.970
 3974TIP3   OH233556   2.301   0.356   9.731
 3974TIP3    H133557   2.269   0.410   9.656
 3974TIP3    H233558   2.231   0.376   9.798
 3975TIP3   OH233559   3.028   1.300   9.084
 3975TIP3    H133560   3.001   1.273   8.995
 3975TIP3    H233561   2.998   1.394   9.089
 3976TIP3   OH233562   2.551   1.116   9.755
 3976TIP3    H133563   2.481   1.181   9.776
 3976TIP3    H233564   2.622   1.175   9.725
 3977TIP3   OH233565   3.362   0.407   9.364
 3977TIP3    H133566   3.342   0.329   9.416
 3977TIP3    H233567   3.433   0.448   9.416
 3978TIP3   OH233568   2.254   0.542   9.532
 3978TIP3    H133569   2.319   0.607   9.568
 3978TIP3    H233570   2.310   0.496   9.467
 3979TIP3   OH233571   2.396   1.318   9.835
 3979TIP3    H133572   2.392   1.409   9.800
 3979TIP3    H233573   2.307   1.309   9.877
 3980TIP3   OH233574   2.002   1.278   8.913
 3980TIP3    H133575   1.981   1.312   8.824
 3980TIP3    H233576   2.009   1.360   8.965
 3981TIP3   OH233577   3.365   1.446   9.591
 3981TIP3    H133578   3.268   1.457   9.603
 3981TIP3    H233579   3.392   1.537   9.571
 3982TIP3   OH233580   3.399   0.280   9.742
 3982TIP3    H133581   3.324   0.335   9.717
 3982TIP3    H233582   3.468   0.311   9.679
 3983TIP3   OH233583   2.719   0.108   9.470
 3983TIP3    H133584   2.711   0.012   9.472
 3983TIP3    H233585   2.629   0.130   9.498
 3984TIP3   OH233586   3.191   1.624   9.250
 3984TIP3    H133587   3.233   1.552   9.199
 3984TIP3    H233588   3.236   1.703   9.212
 3985TIP3   OH233589   3.312   1.417   9.101
 3985TIP3    H133590   3.283   1.348   9.039
 3985TIP3    H233591   3.315   1.367   9.185
 3986TIP3   OH233592   3.474   1.276   9.951
 3986TIP3    H133593   3.488   1.211   9.880
 3986TIP3    H233594   3.495   1.360   9.906
 3987TIP3   OH233595   2.922   0.965   8.925
 3987TIP3    H133596   2.855   1.025   8.886
 3987TIP3    H233597   2.994   0.975   8.860
 3988TIP3   OH233598   2.927   0.819   8.636
 3988TIP3    H133599   3.002   0.820   8.699
 3988TIP3    H233600   2.960   0.756   8.572
 3989TIP3   OH233601   3.663   0.907   9.753
 3989TIP3    H133602   3.598   0.980   9.759
 3989TIP3    H233603   3.713   0.932   9.673
 3990TIP3   OH233604   3.267   0.985   9.021
 3990TIP3    H133605   3.193   1.010   9.082
 3990TIP3    H233606   3.316   0.919   9.073
 3991TIP3   OH233607   2.429   1.053   9.211
 3991TIP3    H133608   2.398   1.015   9.126
 3991TIP3    H233609   2.492   0.985   9.245
 3992TIP3   OH233610   2.560   1.390   9.479
 3992TIP3    H133611   2.561   1.339   9.398
 3992TIP3    H233612   2.639   1.355   9.525
 3993TIP3   OH233613   2.465   0.924   9.580
 3993TIP3    H133614   2.517   0.937   9.498
 3993TIP3    H233615   2.502   0.994   9.639
 3994TIP3   OH233616   3.104   1.484   9.648
 3994TIP3    H133617   3.075   1.548   9.714
 3994TIP3    H233618   3.079   1.399   9.690
 3995TIP3   OH233619   2.559   1.371  10.046
 3995TIP3    H133620   2.517   1.443  10.098
 3995TIP3    H233621   2.490   1.350   9.979
 3996TIP3   OH233622   3.157   0.904   8.787
 3996TIP3    H133623   3.210   0.925   8.867
 3996TIP3    H233624   3.197   0.959   8.717
 3997TIP3   OH233625   2.252   0.991   9.963
 3997TIP3    H133626   2.255   1.051  10.037
 3997TIP3    H233627   2.158   0.992   9.939
 3998TIP3   OH233628   2.926   1.578   9.135
 3998TIP3    H133629   2.970   1.610   9.214
 3998TIP3    H233630   2.872   1.653   9.108
 3999TIP3   OH233631   2.378   1.565  10.122
 3999TIP3    H133632   2.377   1.564  10.025
 3999TIP3    H233633   2.284   1.567  10.144
 4000TIP3   OH233634   3.529   0.089   8.771
 4000TIP3    H133635   3.436   0.091   8.799
 4000TIP3    H233636   3.546   0.174   8.730
 4001TIP3   OH233637   2.326   0.952   8.975
 4001TIP3    H133638   2.300   1.030   8.922
 4001TIP3    H233639   2.259   0.888   8.948
 4002TIP3   OH233640   3.638   1.512   8.613
 4002TIP3    H133641   3.651   1.608   8.626
 4002TIP3    H233642   3.731   1.484   8.607
 4003TIP3   OH233643   1.939   1.197   9.859
 4003TIP3    H133644   1.890   1.188   9.775
 4003TIP3    H233645   1.942   1.103   9.884
 4004TIP3   OH233646   1.911   1.480   9.533
 4004TIP3    H133647   2.005   1.456   9.539
 4004TIP3    H233648   1.906   1.550   9.599
 4005TIP3   OH233649   3.733   1.541  10.105
 4005TIP3    H133650   3.724   1.445  10.107
 4005TIP3    H233651   3.649   1.567  10.150
 4006TIP3   OH233652   2.830   1.496   9.992
 4006TIP3    H133653   2.837   1.578  10.047
 4006TIP3    H233654   2.745   1.458  10.022
 4007TIP3   OH233655   2.874   1.869   8.974
 4007TIP3    H133656   2.867   1.864   8.877
 4007TIP3    H233657   2.878   1.965   8.991
 4008TIP3   OH233658   2.237   1.759   9.158
 4008TIP3    H133659   2.256   1.716   9.244
 4008TIP3    H233660   2.155   1.714   9.132
 4009TIP3   OH233661   3.177   1.790   8.671
 4009TIP3    H133662   3.226   1.714   8.631
 4009TIP3    H233663   3.185   1.767   8.765
 4010TIP3   OH233664   3.149   1.785   8.951
 4010TIP3    H133665   3.053   1.791   8.970
 4010TIP3    H233666   3.174   1.710   9.008
 4011TIP3   OH233667   3.460   0.689  10.150
 4011TIP3    H133668   3.401   0.738  10.093
 4011TIP3    H233669   3.448   0.597  10.125
 4012TIP3   OH233670   2.164   1.327   9.959
 4012TIP3    H133671   2.184   1.291  10.046
 4012TIP3    H233672   2.077   1.289   9.934
 4013TIP3   OH233673   2.429   0.198   9.550
 4013TIP3    H133674   2.340   0.172   9.519
 4013TIP3    H233675   2.409   0.271   9.610
 4014TIP3   OH233676   2.894   0.146   9.893
 4014TIP3    H133677   2.935   0.105   9.969
 4014TIP3    H233678   2.798   0.133   9.909
 4015TIP3   OH233679   3.307   1.015   8.570
 4015TIP3    H133680   3.309   0.997   8.475
 4015TIP3    H233681   3.394   1.057   8.581
 4016TIP3   OH233682   2.862   0.399   8.622
 4016TIP3    H133683   2.833   0.397   8.714
 4016TIP3    H233684   2.835   0.310   8.593
 4017TIP3   OH233685   2.442   0.672   9.675
 4017TIP3    H133686   2.371   0.672   9.741
 4017TIP3    H233687   2.438   0.765   9.641
 4018TIP3   OH233688   2.437   0.678   9.166
 4018TIP3    H133689   2.341   0.675   9.147
 4018TIP3    H233690   2.477   0.674   9.075
 4019TIP3   OH233691   2.992   0.735   9.036
 4019TIP3    H133692   2.951   0.819   9.005
 4019TIP3    H233693   3.060   0.720   8.969
 4020TIP3   OH233694   3.093   0.683   9.326
 4020TIP3    H133695   3.065   0.741   9.253
 4020TIP3    H233696   3.104   0.600   9.276
 4021TIP3   OH233697   2.203   0.703   9.848
 4021TIP3    H133698   2.213   0.739   9.938
 4021TIP3    H233699   2.163   0.616   9.865
 4022TIP3   OH233700   2.559   0.466   8.567
 4022TIP3    H133701   2.504   0.397   8.609
 4022TIP3    H233702   2.500   0.498   8.498
 4023TIP3   OH233703   1.874   0.415   9.241
 4023TIP3    H133704   1.939   0.406   9.313
 4023TIP3    H233705   1.914   0.371   9.164
 4024TIP3   OH233706   2.004   0.486   8.788
 4024TIP3    H133707   2.048   0.539   8.717
 4024TIP3    H233708   1.930   0.546   8.810
 4025TIP3   OH233709   3.004   0.843   9.775
 4025TIP3    H133710   3.055   0.778   9.723
 4025TIP3    H233711   2.974   0.792   9.851
 4026TIP3   OH233712   2.688   0.443   9.262
 4026TIP3    H133713   2.602   0.436   9.306
 4026TIP3    H233714   2.745   0.426   9.339
 4027TIP3   OH233715   2.181   0.589   9.147
 4027TIP3    H133716   2.091   0.616   9.116
 4027TIP3    H233717   2.189   0.502   9.106
 4028TIP3   OH233718   2.537   0.603   8.920
 4028TIP3    H133719   2.635   0.614   8.928
 4028TIP3    H233720   2.514   0.664   8.846
 4029TIP3   OH233721   3.133   0.369   9.593
 4029TIP3    H133722   3.062   0.365   9.658
 4029TIP3    H233723   3.089   0.339   9.511
 4030TIP3   OH233724   2.411   0.715   8.677
 4030TIP3    H133725   2.353   0.684   8.604
 4030TIP3    H233726   2.492   0.738   8.627
 4031TIP3   OH233727   3.453   1.932  10.222
 4031TIP3    H133728   3.484   1.968  10.137
 4031TIP3    H233729   3.527   1.954  10.282
 4032TIP3   OH233730   2.817   0.711   9.450
 4032TIP3    H133731   2.883   0.660   9.400
 4032TIP3    H233732   2.812   0.663   9.533
 4033TIP3   OH233733   2.306   0.312   9.072
 4033TIP3    H133734   2.279   0.221   9.096
 4033TIP3    H233735   2.389   0.296   9.026
 4034TIP3   OH233736   2.686   0.547   9.697
 4034TIP3    H133737   2.602   0.599   9.701
 4034TIP3    H233738   2.739   0.585   9.766
 4035TIP3   OH233739   2.745   1.169   8.867
 4035TIP3    H133740   2.665   1.125   8.832
 4035TIP3    H233741   2.722   1.183   8.961
 4036TIP3   OH233742   3.465   1.092   9.743
 4036TIP3    H133743   3.520   1.142   9.680
 4036TIP3    H233744   3.378   1.096   9.699
 4037TIP3   OH233745   3.131   0.453   8.682
 4037TIP3    H133746   3.037   0.468   8.665
 4037TIP3    H233747   3.162   0.539   8.715
 4038TIP3   OH233748   2.893   1.195   9.991
 4038TIP3    H133749   2.858   1.157  10.072
 4038TIP3    H233750   2.869   1.288   9.999
 4039TIP3   OH233751   3.201   0.645   8.849
 4039TIP3    H133752   3.290   0.632   8.886
 4039TIP3    H233753   3.211   0.726   8.797
 4040TIP3   OH233754   2.256   1.108   9.444
 4040TIP3    H133755   2.324   1.102   9.374
 4040TIP3    H233756   2.262   1.023   9.489
 4041TIP3   OH233757   2.954   1.318   8.772
 4041TIP3    H133758   2.917   1.403   8.804
 4041TIP3    H233759   2.881   1.255   8.789
 4042TIP3   OH233760   1.955   0.951   9.968
 4042TIP3    H133761   1.971   0.909  10.055
 4042TIP3    H233762   1.891   0.890   9.928
 4043TIP3   OH233763   2.658   0.907  10.185
 4043TIP3    H133764   2.624   0.875  10.100
 4043TIP3    H233765   2.749   0.877  10.186
 4044TIP3   OH233766   3.124   1.443   9.984
 4044TIP3    H133767   3.032   1.459   9.958
 4044TIP3    H233768   3.120   1.472  10.077
 4045TIP3   OH233769   3.690   0.661   8.825
 4045TIP3    H133770   3.635   0.628   8.752
 4045TIP3    H233771   3.698   0.754   8.796
 4046TIP3   OH233772   3.693   1.244  10.104
 4046TIP3    H133773   3.603   1.266  10.069
 4046TIP3    H233774   3.745   1.238  10.021
 4047TIP3   OH233775   3.521   1.541   8.861
 4047TIP3    H133776   3.483   1.458   8.894
 4047TIP3    H233777   3.551   1.521   8.770
 4048TIP3   OH233778   3.242   1.024   9.571
 4048TIP3    H133779   3.148   1.003   9.562
 4048TIP3    H233780   3.284   0.947   9.530
 4049TIP3   OH233781   2.493   1.456   9.183
 4049TIP3    H133782   2.543   1.537   9.162
 4049TIP3    H233783   2.405   1.479   9.150
 4050TIP3   OH233784   2.070   0.940   8.646
 4050TIP3    H133785   2.129   1.009   8.679
 4050TIP3    H233786   1.980   0.969   8.668
 4051TIP3   OH233787   2.635   1.223   9.135
 4051TIP3    H133788   2.603   1.315   9.142
 4051TIP3    H233789   2.563   1.174   9.179
 4052TIP3   OH233790   2.679   1.642   9.776
 4052TIP3    H133791   2.726   1.722   9.747
 4052TIP3    H233792   2.741   1.607   9.842
 4053TIP3   OH233793   2.501   1.722   9.088
 4053TIP3    H133794   2.405   1.737   9.102
 4053TIP3    H233795   2.538   1.805   9.122
 4054TIP3   OH233796   3.031   1.241   9.736
 4054TIP3    H133797   2.999   1.222   9.826
 4054TIP3    H233798   3.096   1.170   9.721
 4055TIP3   OH233799   3.260   1.345   8.651
 4055TIP3    H133800   3.291   1.300   8.732
 4055TIP3    H233801   3.165   1.328   8.658
 4056TIP3   OH233802   3.313   1.700   9.987
 4056TIP3    H133803   3.245   1.650   9.938
 4056TIP3    H233804   3.332   1.769   9.920
 4057TIP3   OH233805   3.714   1.786   8.672
 4057TIP3    H133806   3.782   1.851   8.646
 4057TIP3    H233807   3.642   1.846   8.701
 4058TIP3   OH233808   2.120   0.424   9.928
 4058TIP3    H133809   2.029   0.458   9.923
 4058TIP3    H233810   2.106   0.336   9.969
 4059TIP3   OH233811   3.344   1.211   8.872
 4059TIP3    H133812   3.319   1.130   8.922
 4059TIP3    H233813   3.439   1.217   8.892
 4060TIP3   OH233814   2.080   1.603   9.767
 4060TIP3    H133815   2.113   1.512   9.768
 4060TIP3    H233816   2.106   1.634   9.855
 4061TIP3   OH233817   2.555   1.413   8.740
 4061TIP3    H133818   2.582   1.355   8.813
 4061TIP3    H233819   2.565   1.503   8.775
 4062TIP3   OH233820   2.208   1.135   8.788
 4062TIP3    H133821   2.140   1.176   8.846
 4062TIP3    H233822   2.263   1.211   8.763
 4063TIP3   OH233823   3.072   0.358   8.933
 4063TIP3    H133824   3.090   0.406   8.850
 4063TIP3    H233825   3.123   0.410   8.997
 4064TIP3   OH233826   2.836   1.577   8.814
 4064TIP3    H133827   2.753   1.628   8.818
 4064TIP3    H233828   2.890   1.625   8.750
 4065TIP3   OH233829   2.788   0.532   9.012
 4065TIP3    H133830   2.867   0.589   9.012
 4065TIP3    H233831   2.769   0.522   9.108
 4066TIP3   OH233832   2.873   0.240   9.104
 4066TIP3    H133833   2.846   0.307   9.168
 4066TIP3    H233834   2.942   0.290   9.054
 4067TIP3   OH233835   2.574   1.680   8.816
 4067TIP3    H133836   2.591   1.762   8.765
 4067TIP3    H233837   2.548   1.715   8.904
 4068TIP3   OH233838   2.442   0.346   8.783
 4068TIP3    H133839   2.436   0.441   8.803
 4068TIP3    H233840   2.536   0.331   8.800
 4069TIP3   OH233841   3.459   0.425  10.019
 4069TIP3    H133842   3.369   0.453  10.002
 4069TIP3    H233843   3.495   0.420   9.927
 4070TIP3   OH233844   3.326   0.802   9.414
 4070TIP3    H133845   3.243   0.758   9.389
 4070TIP3    H233846   3.374   0.735   9.467
 4071TIP3   OH233847   2.265   1.395   8.676
 4071TIP3    H133848   2.332   1.457   8.708
 4071TIP3    H233849   2.317   1.347   8.608
 4072TIP3   OH233850   2.102   0.664   8.607
 4072TIP3    H133851   2.101   0.761   8.603
 4072TIP3    H233852   2.023   0.645   8.555
 4073TIP3   OH233853   3.431   1.729   9.584
 4073TIP3    H133854   3.423   1.797   9.514
 4073TIP3    H233855   3.528   1.734   9.602
 4074TIP3   OH233856   2.161   0.156   9.465
 4074TIP3    H133857   2.160   0.143   9.368
 4074TIP3    H233858   2.150   0.063   9.491
 4075TIP3   OH233859   2.076   1.537   9.082
 4075TIP3    H133860   1.989   1.576   9.068
 4075TIP3    H233861   2.124   1.576   9.007
 4076TIP3   OH233862   1.999   1.797  10.209
 4076TIP3    H133863   2.057   1.774  10.284
 4076TIP3    H233864   1.955   1.713  10.187
 4077TIP3   OH233865   2.462   1.689  10.365
 4077TIP3    H133866   2.535   1.638  10.405
 4077TIP3    H233867   2.463   1.663  10.271
 4078TIP3   OH233868   2.915   1.645   8.568
 4078TIP3    H133869   2.831   1.598   8.557
 4078TIP3    H233870   2.966   1.602   8.499
 4079TIP3   OH233871   3.114   1.528  10.246
 4079TIP3    H133872   3.085   1.438  10.266
 4079TIP3    H233873   3.196   1.536  10.296
 4080TIP3   OH233874   3.336   1.618   8.527
 4080TIP3    H133875   3.360   1.537   8.576
 4080TIP3    H233876   3.415   1.637   8.474
 4081TIP3   OH233877   2.436   1.219   8.525
 4081TIP3    H133878   2.437   1.134   8.570
 4081TIP3    H233879   2.486   1.194   8.445
 4082TIP3   OH233880   2.662   1.172  10.242
 4082TIP3    H133881   2.626   1.205  10.158
 4082TIP3    H233882   2.662   1.075  10.234
 4083TIP3   OH233883   3.227   1.162   9.985
 4083TIP3    H133884   3.308   1.217   9.978
 4083TIP3    H233885   3.159   1.230   9.989
 4084TIP3   OH233886   2.077   0.897  10.242
 4084TIP3    H133887   2.121   0.812  10.234
 4084TIP3    H233888   2.054   0.899  10.336
 4085TIP3   OH233889   2.545   1.014   8.751
 4085TIP3    H133890   2.493   0.961   8.813
 4085TIP3    H233891   2.575   0.945   8.688
 4086TIP3   OH233892   2.470   0.793   9.978
 4086TIP3    H133893   2.409   0.864  10.006
 4086TIP3    H233894   2.508   0.831   9.897
 4087TIP3   OH233895   2.650   0.836   8.570
 4087TIP3    H133896   2.639   0.813   8.477
 4087TIP3    H233897   2.748   0.843   8.582
 4088TIP3   OH233898   2.981   1.041  10.307
 4088TIP3    H133899   3.078   1.047  10.302
 4088TIP3    H233900   2.958   0.973  10.370
 4089TIP3   OH233901   3.568   1.079  17.022
 4089TIP3    H133902   3.559   1.030  16.939
 4089TIP3    H233903   3.591   1.169  16.995
 4090TIP3   OH233904   2.501   0.532  10.084
 4090TIP3    H133905   2.524   0.458  10.025
 4090TIP3    H233906   2.504   0.612  10.030
 4091TIP3   OH233907   2.551   0.368   9.838
 4091TIP3    H133908   2.601   0.417   9.768
 4091TIP3    H233909   2.460   0.357   9.801
 4092TIP3   OH233910   2.706   0.914   9.865
 4092TIP3    H133911   2.783   0.902   9.808
 4092TIP3    H233912   2.669   0.998   9.833
 4093TIP3   OH233913   3.276   0.973  10.178
 4093TIP3    H133914   3.253   1.042  10.112
 4093TIP3    H233915   3.372   0.969  10.157
 4094TIP3   OH233916   2.352   0.657  10.275
 4094TIP3    H133917   2.280   0.594  10.261
 4094TIP3    H233918   2.423   0.617  10.220
 4095TIP3   OH233919   2.623   0.127   9.898
 4095TIP3    H133920   2.611   0.223   9.878
 4095TIP3    H233921   2.555   0.089   9.840
 4096TIP3   OH233922   2.166   0.447  10.257
 4096TIP3    H133923   2.193   0.377  10.195
 4096TIP3    H233924   2.164   0.397  10.340
 4097TIP3   OH233925   2.645   7.383  10.150
 4097TIP3    H133926   2.721   7.326  10.154
 4097TIP3    H233927   2.641   7.418  10.058
 4098TIP3   OH233928   2.633   1.903   8.673
 4098TIP3    H133929   2.730   1.913   8.686
 4098TIP3    H233930   2.617   1.970   8.607
 4099TIP3   OH233931   1.991   1.364   8.626
 4099TIP3    H133932   2.087   1.372   8.647
 4099TIP3    H233933   1.992   1.303   8.551
 4100TIP3   OH233934   1.863   1.899   9.127
 4100TIP3    H133935   1.797   1.851   9.073
 4100TIP3    H233936   1.902   1.830   9.183
 4101TIP3   OH233937   1.941   1.714   9.315
 4101TIP3    H133938   1.927   1.618   9.327
 4101TIP3    H233939   1.992   1.739   9.395
 4102TIP3   OH233940   3.703   1.793   9.603
 4102TIP3    H133941   3.707   1.808   9.699
 4102TIP3    H233942   3.774   1.851   9.573
 4103TIP3   OH233943   3.662   1.753   9.896
 4103TIP3    H133944   3.613   1.675   9.860
 4103TIP3    H233945   3.710   1.708   9.967
 4104TIP3   OH233946   3.507   1.324  10.370
 4104TIP3    H133947   3.416   1.322  10.404
 4104TIP3    H233948   3.542   1.405  10.408
 4105TIP3   OH233949   3.638   1.157   8.907
 4105TIP3    H133950   3.723   1.198   8.930
 4105TIP3    H233951   3.635   1.086   8.976
 4106TIP3   OH233952   3.672   0.966   9.097
 4106TIP3    H133953   3.597   0.915   9.134
 4106TIP3    H233954   3.732   0.978   9.173
 4107TIP3   OH233955   3.648   1.234   9.595
 4107TIP3    H133956   3.729   1.196   9.557
 4107TIP3    H233957   3.663   1.329   9.579
 4108TIP3   OH233958   3.504   1.525   9.822
 4108TIP3    H133959   3.436   1.559   9.881
 4108TIP3    H233960   3.449   1.485   9.751
 4109TIP3   OH233961   3.702   0.947   8.734
 4109TIP3    H133962   3.643   0.983   8.665
 4109TIP3    H233963   3.694   1.017   8.802
 4110TIP3   OH233964   3.500   0.672   8.598
 4110TIP3    H133965   3.546   0.732   8.535
 4110TIP3    H233966   3.519   0.588   8.552
 4111TIP3   OH233967   3.454   0.812   9.155
 4111TIP3    H133968   3.439   0.717   9.149
 4111TIP3    H233969   3.422   0.833   9.244
 4112TIP3   OH233970   1.955   1.021   9.560
 4112TIP3    H133971   1.973   1.013   9.464
 4112TIP3    H233972   2.045   1.003   9.595
 4113TIP3   OH233973   3.539   1.008  10.117
 4113TIP3    H133974   3.600   0.934  10.137
 4113TIP3    H233975   3.597   1.085  10.126
 4114TIP3   OH233976   3.693   0.797  10.183
 4114TIP3    H133977   3.603   0.759  10.171
 4114TIP3    H233978   3.749   0.718  10.180
 4115TIP3   OH233979   3.462   0.413   8.498
 4115TIP3    H133980   3.523   0.373   8.564
 4115TIP3    H233981   3.375   0.375   8.519
 4116TIP3   OH233982   3.421   0.572   9.001
 4116TIP3    H133983   3.451   0.479   9.012
 4116TIP3    H233984   3.499   0.611   8.961
 4117TIP3   OH233985   3.485   0.627   9.545
 4117TIP3    H133986   3.581   0.649   9.542
 4117TIP3    H233987   3.466   0.639   9.639
 4118TIP3   OH233988   3.491   0.699   9.821
 4118TIP3    H133989   3.405   0.729   9.854
 4118TIP3    H233990   3.537   0.784   9.801
 4119TIP3   OH233991   1.918   0.549  10.175
 4119TIP3    H133992   2.011   0.526  10.191
 4119TIP3    H233993   1.870   0.468  10.203
 4120TIP3   OH233994   3.489   0.297   9.004
 4120TIP3    H133995   3.508   0.253   9.089
 4120TIP3    H233996   3.429   0.232   8.959
 4121TIP3   OH233997   2.035   0.383   9.456
 4121TIP3    H133998   2.078   0.300   9.487
 4121TIP3    H233999   2.089   0.448   9.502
 4122TIP3   OH234000   1.866   0.680   9.564
 4122TIP3    H134001   1.922   0.655   9.488
 4122TIP3    H234002   1.912   0.760   9.591
 4123TIP3   OH234003   3.669   0.309   8.655
 4123TIP3    H134004   3.714   0.232   8.615
 4123TIP3    H234005   3.745   0.370   8.661
 4124TIP3   OH234006   1.906   0.304   8.971
 4124TIP3    H134007   1.811   0.323   8.959
 4124TIP3    H234008   1.943   0.355   8.896
 4125TIP3   OH234009   3.375   1.801   9.167
 4125TIP3    H134010   3.443   1.771   9.104
 4125TIP3    H234011   3.427   1.851   9.232
 4126TIP3   OH234012   1.896   0.175   9.800
 4126TIP3    H134013   1.831   0.155   9.869
 4126TIP3    H234014   1.849   0.239   9.744
 4127TIP3   OH234015   2.409   1.591   9.845
 4127TIP3    H134016   2.377   1.678   9.816
 4127TIP3    H234017   2.502   1.599   9.815
 4128TIP3   OH234018   2.845   1.734  10.135
 4128TIP3    H134019   2.858   1.702  10.227
 4128TIP3    H234020   2.934   1.766  10.110
 4129TIP3   OH234021   3.071   1.862  10.068
 4129TIP3    H134022   3.144   1.803  10.042
 4129TIP3    H234023   3.110   1.904  10.147
 4130TIP3   OH234024   3.572   0.125   9.977
 4130TIP3    H134025   3.491   0.157   9.935
 4130TIP3    H234026   3.592   0.044   9.925
 4131TIP3   OH234027   2.153   1.915   9.844
 4131TIP3    H134028   2.079   1.966   9.807
 4131TIP3    H234029   2.123   1.897   9.934
 4132TIP3   OH234030   2.400   1.873   9.752
 4132TIP3    H134031   2.311   1.890   9.790
 4132TIP3    H234032   2.395   1.932   9.674
 4133TIP3   OH234033   2.870   1.864   9.669
 4133TIP3    H134034   2.824   1.920   9.604
 4133TIP3    H234035   2.883   1.927   9.743
 4134TIP3   OH234036   3.099   1.745   9.772
 4134TIP3    H134037   3.014   1.773   9.734
 4134TIP3    H234038   3.148   1.828   9.763
 4135TIP3   OH234039   3.357   1.902   9.793
 4135TIP3    H134040   3.353   1.998   9.770
 4135TIP3    H234041   3.380   1.864   9.706
 4136TIP3   OH234042   2.094   1.775   9.536
 4136TIP3    H134043   2.093   1.733   9.625
 4136TIP3    H234044   2.181   1.744   9.500
 4137TIP3   OH234045   2.304   1.652   9.405
 4137TIP3    H134046   2.291   1.558   9.427
 4137TIP3    H234047   2.391   1.668   9.448
 4138TIP3   OH234048   2.566   1.700   9.492
 4138TIP3    H134049   2.582   1.607   9.466
 4138TIP3    H234050   2.571   1.694   9.588
 4139TIP3   OH234051   2.907   0.276   9.399
 4139TIP3    H134052   2.848   0.205   9.434
 4139TIP3    H234053   2.972   0.220   9.353
 4140TIP3   OH234054   3.424   0.073   9.414
 4140TIP3    H134055   3.486   0.126   9.359
 4140TIP3    H234056   3.337   0.106   9.389
 4141TIP3   OH234057   3.595   0.198   9.236
 4141TIP3    H134058   3.663   0.137   9.201
 4141TIP3    H234059   3.645   0.280   9.249
 4142TIP3   OH234060   2.154   0.130   9.179
 4142TIP3    H134061   2.066   0.107   9.143
 4142TIP3    H234062   2.187   0.040   9.196
 4143TIP3   OH234063   2.000   0.148   8.706
 4143TIP3    H134064   2.085   0.195   8.693
 4143TIP3    H234065   1.972   0.175   8.794
 4144TIP3   OH234066   2.622   0.168   9.205
 4144TIP3    H134067   2.715   0.160   9.176
 4144TIP3    H234068   2.612   0.096   9.268
 4145TIP3   OH234069   3.148   0.147   9.336
 4145TIP3    H134070   3.162   0.147   9.241
 4145TIP3    H234071   3.139   0.050   9.350
 4146TIP3   OH234072   3.293   0.126   8.907
 4146TIP3    H134073   3.221   0.185   8.880
 4146TIP3    H234074   3.252   0.038   8.911
 4147TIP3   OH234075   2.018   1.699   8.864
 4147TIP3    H134076   1.950   1.698   8.794
 4147TIP3    H234077   2.023   1.795   8.877
 4148TIP3   OH234078   2.209   0.288   8.620
 4148TIP3    H134079   2.261   0.242   8.553
 4148TIP3    H234080   2.278   0.331   8.672
 4149TIP3   OH234081   2.698   0.319   8.861
 4149TIP3    H134082   2.746   0.265   8.927
 4149TIP3    H234083   2.722   0.407   8.898
 4150TIP3   OH234084   2.901   1.859   8.699
 4150TIP3    H134085   2.998   1.856   8.686
 4150TIP3    H234086   2.884   1.784   8.637
 4151TIP3   OH234087   3.574   1.779   8.970
 4151TIP3    H134088   3.555   1.701   8.913
 4151TIP3    H234089   3.566   1.852   8.906
 4152TIP3   OH234090   2.129   0.184  10.129
 4152TIP3    H134091   2.098   0.105  10.176
 4152TIP3    H234092   2.221   0.180  10.165
 4153TIP3   OH234093   2.318   0.129  10.286
 4153TIP3    H134094   2.414   0.114  10.278
 4153TIP3    H234095   2.300   0.049  10.338
 4154TIP3   OH234096   2.201   1.797   8.560
 4154TIP3    H134097   2.170   1.823   8.648
 4154TIP3    H234098   2.276   1.741   8.577
 4155TIP3   OH234099   3.191   7.413  10.322
 4155TIP3    H134100   3.184   7.350  10.395
 4155TIP3    H234101   3.270   7.390  10.272
 4156TIP3   OH234102   3.500   1.654  10.178
 4156TIP3    H134103   3.419   1.641  10.125
 4156TIP3    H234104   3.489   1.748  10.203
 4157TIP3   OH234105   4.941   1.040   9.178
 4157TIP3    H134106   4.944   1.138   9.169
 4157TIP3    H234107   4.872   1.019   9.114
 4158TIP3   OH234108   4.828   0.967   9.526
 4158TIP3    H134109   4.828   0.902   9.598
 4158TIP3    H234110   4.794   0.916   9.451
 4159TIP3   OH234111   4.063   0.934   9.681
 4159TIP3    H134112   4.073   0.866   9.751
 4159TIP3    H234113   4.139   0.991   9.703
 4160TIP3   OH234114   5.198   1.262   9.355
 4160TIP3    H134115   5.156   1.190   9.404
 4160TIP3    H234116   5.200   1.333   9.422
 4161TIP3   OH234117   4.157   1.380   9.529
 4161TIP3    H134118   4.126   1.293   9.499
 4161TIP3    H234119   4.252   1.361   9.536
 4162TIP3   OH234120   3.820   0.735   9.080
 4162TIP3    H134121   3.777   0.822   9.074
 4162TIP3    H234122   3.764   0.681   9.022
 4163TIP3   OH234123   3.892   0.959   9.295
 4163TIP3    H134124   3.920   0.876   9.340
 4163TIP3    H234125   3.961   0.969   9.228
 4164TIP3   OH234126   4.909   1.778   9.378
 4164TIP3    H134127   4.974   1.709   9.349
 4164TIP3    H234128   4.888   1.744   9.465
 4165TIP3   OH234129   4.667   1.206   9.574
 4165TIP3    H134130   4.700   1.144   9.507
 4165TIP3    H234131   4.748   1.223   9.625
 4166TIP3   OH234132   5.528   0.372   9.645
 4166TIP3    H134133   5.543   0.433   9.721
 4166TIP3    H234134   5.583   0.414   9.578
 4167TIP3   OH234135   4.983   0.654   9.606
 4167TIP3    H134136   4.999   0.557   9.606
 4167TIP3    H234137   4.973   0.668   9.510
 4168TIP3   OH234138   4.295   0.466   9.326
 4168TIP3    H134139   4.306   0.549   9.275
 4168TIP3    H234140   4.255   0.407   9.259
 4169TIP3   OH234141   5.069   0.468   9.161
 4169TIP3    H134142   5.132   0.440   9.232
 4169TIP3    H234143   5.124   0.529   9.111
 4170TIP3   OH234144   3.957   0.704   9.400
 4170TIP3    H134145   4.024   0.649   9.445
 4170TIP3    H234146   3.967   0.673   9.308
 4171TIP3   OH234147   4.474   0.860   9.331
 4171TIP3    H134148   4.540   0.801   9.371
 4171TIP3    H234149   4.422   0.794   9.280
 4172TIP3   OH234150   5.569   0.511   9.875
 4172TIP3    H134151   5.510   0.589   9.863
 4172TIP3    H234152   5.575   0.505   9.971
 4173TIP3   OH234153   4.187   0.357   9.730
 4173TIP3    H134154   4.155   0.410   9.654
 4173TIP3    H234155   4.117   0.375   9.797
 4174TIP3   OH234156   4.910   1.301   9.088
 4174TIP3    H134157   4.895   1.270   8.996
 4174TIP3    H234158   4.882   1.395   9.087
 4175TIP3   OH234159   4.437   1.117   9.753
 4175TIP3    H134160   4.366   1.181   9.776
 4175TIP3    H234161   4.508   1.177   9.725
 4176TIP3   OH234162   5.249   0.406   9.361
 4176TIP3    H134163   5.227   0.330   9.415
 4176TIP3    H234164   5.319   0.448   9.415
 4177TIP3   OH234165   4.142   0.539   9.532
 4177TIP3    H134166   4.205   0.606   9.565
 4177TIP3    H234167   4.195   0.496   9.460
 4178TIP3   OH234168   4.281   1.318   9.835
 4178TIP3    H134169   4.277   1.409   9.803
 4178TIP3    H234170   4.194   1.310   9.881
 4179TIP3   OH234171   3.888   1.278   8.914
 4179TIP3    H134172   3.868   1.313   8.825
 4179TIP3    H234173   3.896   1.361   8.967
 4180TIP3   OH234174   5.250   1.446   9.591
 4180TIP3    H134175   5.154   1.457   9.603
 4180TIP3    H234176   5.277   1.537   9.571
 4181TIP3   OH234177   5.285   0.275   9.737
 4181TIP3    H134178   5.211   0.335   9.718
 4181TIP3    H234179   5.354   0.312   9.678
 4182TIP3   OH234180   4.608   0.105   9.474
 4182TIP3    H134181   4.596   0.010   9.472
 4182TIP3    H234182   4.517   0.130   9.497
 4183TIP3   OH234183   5.076   1.624   9.250
 4183TIP3    H134184   5.119   1.552   9.199
 4183TIP3    H234185   5.121   1.703   9.212
 4184TIP3   OH234186   5.199   1.418   9.102
 4184TIP3    H134187   5.169   1.350   9.038
 4184TIP3    H234188   5.200   1.366   9.184
 4185TIP3   OH234189   5.359   1.277   9.951
 4185TIP3    H134190   5.374   1.210   9.880
 4185TIP3    H234191   5.380   1.360   9.906
 4186TIP3   OH234192   4.768   0.940   8.928
 4186TIP3    H134193   4.728   1.024   8.898
 4186TIP3    H234194   4.854   0.962   8.884
 4187TIP3   OH234195   4.808   0.815   8.623
 4187TIP3    H134196   4.874   0.827   8.695
 4187TIP3    H234197   4.856   0.747   8.576
 4188TIP3   OH234198   5.548   0.907   9.754
 4188TIP3    H134199   5.482   0.980   9.759
 4188TIP3    H234200   5.598   0.931   9.674
 4189TIP3   OH234201   5.166   0.986   9.031
 4189TIP3    H134202   5.083   1.011   9.077
 4189TIP3    H234203   5.203   0.914   9.082
 4190TIP3   OH234204   5.145   0.801   9.932
 4190TIP3    H134205   5.149   0.883   9.985
 4190TIP3    H234206   5.084   0.833   9.863
 4191TIP3   OH234207   4.315   1.053   9.211
 4191TIP3    H134208   4.283   1.013   9.126
 4191TIP3    H234209   4.376   0.984   9.245
 4192TIP3   OH234210   4.447   1.390   9.479
 4192TIP3    H134211   4.447   1.338   9.398
 4192TIP3    H234212   4.525   1.355   9.525
 4193TIP3   OH234213   4.348   0.927   9.578
 4193TIP3    H134214   4.403   0.937   9.497
 4193TIP3    H234215   4.387   0.993   9.638
 4194TIP3   OH234216   4.991   1.484   9.648
 4194TIP3    H134217   4.961   1.548   9.714
 4194TIP3    H234218   4.964   1.399   9.690
 4195TIP3   OH234219   4.442   1.369  10.050
 4195TIP3    H134220   4.401   1.445  10.096
 4195TIP3    H234221   4.377   1.349   9.979
 4196TIP3   OH234222   5.105   0.859   8.763
 4196TIP3    H134223   5.098   0.906   8.850
 4196TIP3    H234224   5.083   0.944   8.715
 4197TIP3   OH234225   4.137   0.987   9.961
 4197TIP3    H134226   4.142   1.049  10.037
 4197TIP3    H234227   4.043   0.996   9.938
 4198TIP3   OH234228   4.812   1.578   9.135
 4198TIP3    H134229   4.856   1.610   9.215
 4198TIP3    H234230   4.757   1.653   9.108
 4199TIP3   OH234231   4.267   1.571  10.122
 4199TIP3    H134232   4.263   1.562  10.025
 4199TIP3    H234233   4.174   1.559  10.147
 4200TIP3   OH234234   5.416   0.091   8.774
 4200TIP3    H134235   5.321   0.090   8.798
 4200TIP3    H234236   5.431   0.173   8.728
 4201TIP3   OH234237   4.211   0.954   8.972
 4201TIP3    H134238   4.185   1.032   8.919
 4201TIP3    H234239   4.146   0.888   8.949
 4202TIP3   OH234240   5.524   1.512   8.613
 4202TIP3    H134241   5.537   1.608   8.625
 4202TIP3    H234242   5.617   1.484   8.606
 4203TIP3   OH234243   3.822   1.197   9.861
 4203TIP3    H134244   3.776   1.189   9.775
 4203TIP3    H234245   3.829   1.103   9.884
 4204TIP3   OH234246   3.797   1.471   9.540
 4204TIP3    H134247   3.893   1.459   9.538
 4204TIP3    H234248   3.789   1.553   9.591
 4205TIP3   OH234249   5.619   1.540  10.106
 4205TIP3    H134250   5.608   1.443  10.105
 4205TIP3    H234251   5.535   1.566  10.149
 4206TIP3   OH234252   4.717   1.496   9.994
 4206TIP3    H134253   4.723   1.579  10.047
 4206TIP3    H234254   4.631   1.459  10.022
 4207TIP3   OH234255   4.760   1.869   8.974
 4207TIP3    H134256   4.752   1.864   8.877
 4207TIP3    H234257   4.764   1.966   8.991
 4208TIP3   OH234258   4.125   1.758   9.157
 4208TIP3    H134259   4.139   1.716   9.246
 4208TIP3    H234260   4.040   1.717   9.134
 4209TIP3   OH234261   5.063   1.790   8.671
 4209TIP3    H134262   5.111   1.715   8.630
 4209TIP3    H234263   5.071   1.767   8.765
 4210TIP3   OH234264   5.035   1.785   8.951
 4210TIP3    H134265   4.939   1.791   8.969
 4210TIP3    H234266   5.060   1.711   9.008
 4211TIP3   OH234267   5.339   0.686  10.152
 4211TIP3    H134268   5.287   0.735  10.086
 4211TIP3    H234269   5.336   0.595  10.121
 4212TIP3   OH234270   4.048   1.326   9.957
 4212TIP3    H134271   4.070   1.291  10.046
 4212TIP3    H234272   3.961   1.288   9.936
 4213TIP3   OH234273   4.314   0.193   9.557
 4213TIP3    H134274   4.227   0.173   9.516
 4213TIP3    H234275   4.295   0.274   9.606
 4214TIP3   OH234276   4.780   0.143   9.891
 4214TIP3    H134277   4.820   0.103   9.968
 4214TIP3    H234278   4.684   0.135   9.906
 4215TIP3   OH234279   5.109   0.524   9.975
 4215TIP3    H134280   5.052   0.509  10.055
 4215TIP3    H234281   5.095   0.619   9.953
 4216TIP3   OH234282   5.197   1.013   8.563
 4216TIP3    H134283   5.199   0.999   8.468
 4216TIP3    H234284   5.281   1.060   8.581
 4217TIP3   OH234285   4.743   0.402   8.622
 4217TIP3    H134286   4.718   0.397   8.716
 4217TIP3    H234287   4.723   0.311   8.593
 4218TIP3   OH234288   4.328   0.674   9.678
 4218TIP3    H134289   4.254   0.673   9.741
 4218TIP3    H234290   4.323   0.765   9.640
 4219TIP3   OH234291   4.322   0.682   9.164
 4219TIP3    H134292   4.228   0.660   9.150
 4219TIP3    H234293   4.361   0.656   9.079
 4220TIP3   OH234294   4.879   0.733   9.037
 4220TIP3    H134295   4.833   0.815   9.007
 4220TIP3    H234296   4.945   0.721   8.968
 4221TIP3   OH234297   4.784   0.754  10.183
 4221TIP3    H134298   4.728   0.680  10.216
 4221TIP3    H234299   4.866   0.745  10.232
 4222TIP3   OH234300   4.980   0.687   9.324
 4222TIP3    H134301   4.951   0.742   9.250
 4222TIP3    H234302   4.989   0.601   9.278
 4223TIP3   OH234303   4.090   0.699   9.845
 4223TIP3    H134304   4.100   0.738   9.934
 4223TIP3    H234305   4.048   0.614   9.864
 4224TIP3   OH234306   4.445   0.463   8.562
 4224TIP3    H134307   4.392   0.398   8.614
 4224TIP3    H234308   4.381   0.497   8.499
 4225TIP3   OH234309   3.758   0.412   9.241
 4225TIP3    H134310   3.825   0.407   9.312
 4225TIP3    H234311   3.801   0.372   9.165
 4226TIP3   OH234312   3.888   0.485   8.785
 4226TIP3    H134313   3.934   0.541   8.720
 4226TIP3    H234314   3.816   0.546   8.813
 4227TIP3   OH234315   4.899   0.843   9.779
 4227TIP3    H134316   4.937   0.775   9.721
 4227TIP3    H234317   4.852   0.790   9.846
 4228TIP3   OH234318   4.579   0.441   9.264
 4228TIP3    H134319   4.486   0.436   9.294
 4228TIP3    H234320   4.628   0.425   9.346
 4229TIP3   OH234321   4.061   0.593   9.151
 4229TIP3    H134322   3.973   0.611   9.111
 4229TIP3    H234323   4.089   0.509   9.110
 4230TIP3   OH234324   4.424   0.599   8.912
 4230TIP3    H134325   4.518   0.614   8.933
 4230TIP3    H234326   4.400   0.668   8.847
 4231TIP3   OH234327   5.020   0.363   9.586
 4231TIP3    H134328   4.951   0.369   9.656
 4231TIP3    H234329   4.970   0.339   9.507
 4232TIP3   OH234330   4.293   0.718   8.673
 4232TIP3    H134331   4.236   0.682   8.602
 4232TIP3    H234332   4.376   0.738   8.627
 4233TIP3   OH234333   5.341   1.932  10.226
 4233TIP3    H134334   5.370   1.964  10.137
 4233TIP3    H234335   5.421   1.961  10.274
 4234TIP3   OH234336   4.109   1.175  10.179
 4234TIP3    H134337   4.178   1.202  10.242
 4234TIP3    H234338   4.031   1.186  10.238
 4235TIP3   OH234339   4.709   0.715   9.453
 4235TIP3    H134340   4.766   0.658   9.400
 4235TIP3    H234341   4.692   0.662   9.532
 4236TIP3   OH234342   4.207   0.335   9.096
 4236TIP3    H134343   4.174   0.244   9.099
 4236TIP3    H234344   4.286   0.325   9.041
 4237TIP3   OH234345   4.571   0.548   9.694
 4237TIP3    H134346   4.489   0.601   9.703
 4237TIP3    H234347   4.627   0.584   9.766
 4238TIP3   OH234348   4.628   1.171   8.866
 4238TIP3    H134349   4.548   1.125   8.834
 4238TIP3    H234350   4.608   1.183   8.961
 4239TIP3   OH234351   5.349   1.092   9.744
 4239TIP3    H134352   5.405   1.141   9.680
 4239TIP3    H234353   5.263   1.096   9.698
 4240TIP3   OH234354   5.017   0.454   8.680
 4240TIP3    H134355   4.922   0.464   8.663
 4240TIP3    H234356   5.043   0.540   8.717
 4241TIP3   OH234357   4.777   1.199   9.985
 4241TIP3    H134358   4.745   1.156  10.065
 4241TIP3    H234359   4.754   1.291   9.999
 4242TIP3   OH234360   5.091   0.627   8.853
 4242TIP3    H134361   5.173   0.634   8.902
 4242TIP3    H234362   5.092   0.713   8.804
 4243TIP3   OH234363   4.141   1.111   9.444
 4243TIP3    H134364   4.210   1.103   9.375
 4243TIP3    H234365   4.147   1.025   9.490
 4244TIP3   OH234366   4.823   1.338   8.754
 4244TIP3    H134367   4.795   1.411   8.811
 4244TIP3    H234368   4.775   1.259   8.789
 4245TIP3   OH234369   3.839   0.952   9.970
 4245TIP3    H134370   3.860   0.908  10.055
 4245TIP3    H234371   3.777   0.891   9.928
 4246TIP3   OH234372   4.546   0.909  10.185
 4246TIP3    H134373   4.510   0.875  10.102
 4246TIP3    H234374   4.636   0.873  10.187
 4247TIP3   OH234375   5.011   1.444   9.986
 4247TIP3    H134376   4.918   1.459   9.961
 4247TIP3    H234377   5.006   1.470  10.080
 4248TIP3   OH234378   5.574   0.665   8.826
 4248TIP3    H134379   5.549   0.630   8.740
 4248TIP3    H234380   5.594   0.758   8.800
 4249TIP3   OH234381   5.576   1.246  10.105
 4249TIP3    H134382   5.486   1.265  10.068
 4249TIP3    H234383   5.630   1.240  10.024
 4250TIP3   OH234384   5.405   1.540   8.862
 4250TIP3    H134385   5.366   1.456   8.893
 4250TIP3    H234386   5.436   1.521   8.771
 4251TIP3   OH234387   5.127   1.023   9.574
 4251TIP3    H134388   5.033   1.002   9.561
 4251TIP3    H234389   5.170   0.947   9.529
 4252TIP3   OH234390   4.378   1.457   9.183
 4252TIP3    H134391   4.428   1.537   9.162
 4252TIP3    H234392   4.291   1.480   9.150
 4253TIP3   OH234393   3.952   0.942   8.635
 4253TIP3    H134394   4.014   1.004   8.678
 4253TIP3    H234395   3.865   0.969   8.669
 4254TIP3   OH234396   4.518   1.224   9.137
 4254TIP3    H134397   4.486   1.316   9.144
 4254TIP3    H234398   4.446   1.174   9.180
 4255TIP3   OH234399   4.565   1.641   9.775
 4255TIP3    H134400   4.611   1.722   9.748
 4255TIP3    H234401   4.626   1.607   9.843
 4256TIP3   OH234402   4.388   1.722   9.086
 4256TIP3    H134403   4.292   1.736   9.102
 4256TIP3    H234404   4.424   1.806   9.122
 4257TIP3   OH234405   4.917   1.241   9.737
 4257TIP3    H134406   4.885   1.222   9.828
 4257TIP3    H234407   4.981   1.170   9.721
 4258TIP3   OH234408   5.144   1.347   8.653
 4258TIP3    H134409   5.173   1.296   8.732
 4258TIP3    H234410   5.050   1.323   8.659
 4259TIP3   OH234411   5.198   1.701   9.990
 4259TIP3    H134412   5.131   1.650   9.940
 4259TIP3    H234413   5.219   1.770   9.922
 4260TIP3   OH234414   5.599   1.787   8.672
 4260TIP3    H134415   5.668   1.851   8.646
 4260TIP3    H234416   5.527   1.847   8.702
 4261TIP3   OH234417   4.006   0.424   9.929
 4261TIP3    H134418   3.915   0.458   9.921
 4261TIP3    H234419   3.992   0.336   9.968
 4262TIP3   OH234420   5.240   1.221   8.877
 4262TIP3    H134421   5.201   1.137   8.913
 4262TIP3    H234422   5.334   1.212   8.895
 4263TIP3   OH234423   3.967   1.603   9.769
 4263TIP3    H134424   3.997   1.511   9.769
 4263TIP3    H234425   3.994   1.632   9.857
 4264TIP3   OH234426   4.441   1.412   8.740
 4264TIP3    H134427   4.472   1.355   8.812
 4264TIP3    H234428   4.450   1.503   8.775
 4265TIP3   OH234429   4.090   1.135   8.783
 4265TIP3    H134430   4.025   1.175   8.844
 4265TIP3    H234431   4.148   1.210   8.763
 4266TIP3   OH234432   4.878   0.399   9.824
 4266TIP3    H134433   4.952   0.406   9.885
 4266TIP3    H234434   4.843   0.309   9.839
 4267TIP3   OH234435   4.959   0.357   8.932
 4267TIP3    H134436   4.975   0.407   8.849
 4267TIP3    H234437   5.007   0.409   8.998
 4268TIP3   OH234438   4.720   1.582   8.818
 4268TIP3    H134439   4.637   1.632   8.818
 4268TIP3    H234440   4.776   1.624   8.749
 4269TIP3   OH234441   4.676   0.531   9.011
 4269TIP3    H134442   4.753   0.591   9.013
 4269TIP3    H234443   4.650   0.522   9.105
 4270TIP3   OH234444   4.733   0.638   9.927
 4270TIP3    H134445   4.737   0.692  10.008
 4270TIP3    H234446   4.796   0.566   9.940
 4271TIP3   OH234447   4.763   0.238   9.107
 4271TIP3    H134448   4.729   0.307   9.166
 4271TIP3    H234449   4.827   0.291   9.054
 4272TIP3   OH234450   4.459   1.680   8.816
 4272TIP3    H134451   4.477   1.762   8.765
 4272TIP3    H234452   4.434   1.715   8.904
 4273TIP3   OH234453   4.329   0.347   8.774
 4273TIP3    H134454   4.320   0.438   8.808
 4273TIP3    H234455   4.421   0.331   8.802
 4274TIP3   OH234456   5.347   0.420  10.021
 4274TIP3    H134457   5.256   0.455  10.003
 4274TIP3    H234458   5.380   0.420   9.929
 4275TIP3   OH234459   5.211   0.802   9.417
 4275TIP3    H134460   5.128   0.757   9.390
 4275TIP3    H234461   5.259   0.734   9.469
 4276TIP3   OH234462   4.151   1.396   8.676
 4276TIP3    H134463   4.215   1.459   8.709
 4276TIP3    H234464   4.204   1.348   8.609
 4277TIP3   OH234465   3.991   0.664   8.596
 4277TIP3    H134466   3.987   0.760   8.607
 4277TIP3    H234467   3.904   0.644   8.559
 4278TIP3   OH234468   5.317   1.729   9.583
 4278TIP3    H134469   5.308   1.797   9.514
 4278TIP3    H234470   5.413   1.734   9.601
 4279TIP3   OH234471   4.044   0.155   9.466
 4279TIP3    H134472   4.047   0.145   9.369
 4279TIP3    H234473   4.035   0.061   9.490
 4280TIP3   OH234474   3.961   1.533   9.079
 4280TIP3    H134475   3.876   1.577   9.075
 4280TIP3    H234476   4.008   1.579   9.008
 4281TIP3   OH234477   3.889   1.794  10.202
 4281TIP3    H134478   3.937   1.775  10.284
 4281TIP3    H234479   3.837   1.713  10.190
 4282TIP3   OH234480   4.801   1.645   8.568
 4282TIP3    H134481   4.717   1.598   8.557
 4282TIP3    H234482   4.852   1.601   8.499
 4283TIP3   OH234483   5.002   1.528  10.239
 4283TIP3    H134484   4.966   1.443  10.271
 4283TIP3    H234485   5.075   1.541  10.301
 4284TIP3   OH234486   5.222   1.618   8.528
 4284TIP3    H134487   5.244   1.536   8.577
 4284TIP3    H234488   5.300   1.637   8.475
 4285TIP3   OH234489   3.870   1.172  10.306
 4285TIP3    H134490   3.889   1.082  10.273
 4285TIP3    H234491   3.797   1.200  10.248
 4286TIP3   OH234492   4.318   1.216   8.523
 4286TIP3    H134493   4.321   1.134   8.571
 4286TIP3    H234494   4.372   1.195   8.445
 4287TIP3   OH234495   4.552   1.176  10.243
 4287TIP3    H134496   4.511   1.204  10.160
 4287TIP3    H234497   4.550   1.077  10.236
 4288TIP3   OH234498   5.114   1.161   9.982
 4288TIP3    H134499   5.194   1.218   9.979
 4288TIP3    H234500   5.045   1.228   9.990
 4289TIP3   OH234501   3.955   0.896  10.242
 4289TIP3    H134502   4.008   0.816  10.232
 4289TIP3    H234503   3.945   0.897  10.338
 4290TIP3   OH234504   4.428   1.012   8.752
 4290TIP3    H134505   4.377   0.960   8.815
 4290TIP3    H234506   4.458   0.943   8.690
 4291TIP3   OH234507   4.355   0.790   9.981
 4291TIP3    H134508   4.297   0.862  10.010
 4291TIP3    H234509   4.394   0.828   9.900
 4292TIP3   OH234510   4.534   0.832   8.576
 4292TIP3    H134511   4.512   0.814   8.483
 4292TIP3    H234512   4.630   0.844   8.596
 4293TIP3   OH234513   4.862   1.051  10.322
 4293TIP3    H134514   4.957   1.046  10.298
 4293TIP3    H234515   4.843   0.969  10.368
 4294TIP3   OH234516   5.460   1.078  17.022
 4294TIP3    H134517   5.445   1.031  16.938
 4294TIP3    H234518   5.476   1.169  16.996
 4295TIP3   OH234519   4.397   0.529  10.086
 4295TIP3    H134520   4.407   0.459  10.020
 4295TIP3    H234521   4.389   0.611  10.033
 4296TIP3   OH234522   4.437   0.369   9.842
 4296TIP3    H134523   4.488   0.417   9.772
 4296TIP3    H234524   4.347   0.358   9.803
 4297TIP3   OH234525   4.590   0.917   9.865
 4297TIP3    H134526   4.666   0.901   9.809
 4297TIP3    H234527   4.553   1.001   9.832
 4298TIP3   OH234528   5.160   0.971  10.172
 4298TIP3    H134529   5.140   1.047  10.115
 4298TIP3    H234530   5.258   0.971  10.164
 4299TIP3   OH234531   4.237   0.662  10.271
 4299TIP3    H134532   4.167   0.595  10.267
 4299TIP3    H234533   4.307   0.617  10.221
 4300TIP3   OH234534   4.507   0.126   9.900
 4300TIP3    H134535   4.498   0.222   9.875
 4300TIP3    H234536   4.442   0.088   9.839
 4301TIP3   OH234537   4.640   0.541  10.241
 4301TIP3    H134538   4.609   0.523  10.332
 4301TIP3    H234539   4.558   0.525  10.189
 4302TIP3   OH234540   4.912   0.462  10.153
 4302TIP3    H134541   4.815   0.463  10.162
 4302TIP3    H234542   4.935   0.391  10.214
 4303TIP3   OH234543   4.046   0.445  10.247
 4303TIP3    H134544   4.083   0.374  10.191
 4303TIP3    H234545   4.057   0.407  10.336
 4304TIP3   OH234546   4.535   7.387  10.153
 4304TIP3    H134547   4.607   7.324  10.151
 4304TIP3    H234548   4.525   7.416  10.059
 4305TIP3   OH234549   4.519   1.903   8.673
 4305TIP3    H134550   4.616   1.913   8.686
 4305TIP3    H234551   4.503   1.970   8.607
 4306TIP3   OH234552   3.876   1.362   8.628
 4306TIP3    H134553   3.973   1.371   8.648
 4306TIP3    H234554   3.879   1.305   8.551
 4307TIP3   OH234555   3.752   1.899   9.123
 4307TIP3    H134556   3.681   1.851   9.077
 4307TIP3    H234557   3.781   1.834   9.189
 4308TIP3   OH234558   3.835   1.713   9.311
 4308TIP3    H134559   3.799   1.625   9.331
 4308TIP3    H234560   3.858   1.746   9.399
 4309TIP3   OH234561   5.590   1.791   9.602
 4309TIP3    H134562   5.591   1.809   9.698
 4309TIP3    H234563   5.659   1.852   9.575
 4310TIP3   OH234564   5.545   1.751   9.896
 4310TIP3    H134565   5.500   1.673   9.860
 4310TIP3    H234566   5.595   1.711   9.970
 4311TIP3   OH234567   5.395   1.326  10.367
 4311TIP3    H134568   5.304   1.317  10.400
 4311TIP3    H234569   5.424   1.410  10.407
 4312TIP3   OH234570   5.527   1.154   8.905
 4312TIP3    H134571   5.610   1.197   8.931
 4312TIP3    H234572   5.519   1.087   8.976
 4313TIP3   OH234573   5.560   0.962   9.096
 4313TIP3    H134574   5.483   0.917   9.138
 4313TIP3    H234575   5.618   0.979   9.173
 4314TIP3   OH234576   5.534   1.233   9.595
 4314TIP3    H134577   5.615   1.196   9.557
 4314TIP3    H234578   5.548   1.329   9.579
 4315TIP3   OH234579   5.389   1.524   9.822
 4315TIP3    H134580   5.320   1.560   9.881
 4315TIP3    H234581   5.334   1.485   9.751
 4316TIP3   OH234582   5.581   0.944   8.736
 4316TIP3    H134583   5.528   0.985   8.665
 4316TIP3    H234584   5.582   1.018   8.801
 4317TIP3   OH234585   5.387   0.674   8.587
 4317TIP3    H134586   5.433   0.736   8.527
 4317TIP3    H234587   5.406   0.591   8.538
 4318TIP3   OH234588   5.341   0.808   9.154
 4318TIP3    H134589   5.324   0.714   9.155
 4318TIP3    H234590   5.309   0.835   9.242
 4319TIP3   OH234591   3.841   1.021   9.560
 4319TIP3    H134592   3.858   1.013   9.464
 4319TIP3    H234593   3.930   1.003   9.595
 4320TIP3   OH234594   5.425   1.007  10.118
 4320TIP3    H134595   5.486   0.935  10.140
 4320TIP3    H234596   5.482   1.086  10.124
 4321TIP3   OH234597   5.578   0.797  10.185
 4321TIP3    H134598   5.488   0.760  10.173
 4321TIP3    H234599   5.632   0.718  10.176
 4322TIP3   OH234600   5.347   0.419   8.507
 4322TIP3    H134601   5.410   0.366   8.560
 4322TIP3    H234602   5.261   0.374   8.517
 4323TIP3   OH234603   5.309   0.570   8.994
 4323TIP3    H134604   5.335   0.478   9.020
 4323TIP3    H234605   5.394   0.613   8.985
 4324TIP3   OH234606   5.371   0.627   9.543
 4324TIP3    H134607   5.467   0.648   9.543
 4324TIP3    H234608   5.352   0.638   9.638
 4325TIP3   OH234609   5.377   0.699   9.819
 4325TIP3    H134610   5.291   0.727   9.857
 4325TIP3    H234611   5.421   0.785   9.801
 4326TIP3   OH234612   3.802   0.547  10.171
 4326TIP3    H134613   3.897   0.529  10.188
 4326TIP3    H234614   3.762   0.469  10.205
 4327TIP3   OH234615   5.608   0.099  10.355
 4327TIP3    H134616   5.636   0.035  10.290
 4327TIP3    H234617   5.612   0.184  10.308
 4328TIP3   OH234618   5.373   0.300   9.003
 4328TIP3    H134619   5.395   0.254   9.088
 4328TIP3    H234620   5.315   0.231   8.960
 4329TIP3   OH234621   3.918   0.383   9.460
 4329TIP3    H134622   3.965   0.300   9.485
 4329TIP3    H234623   3.977   0.448   9.499
 4330TIP3   OH234624   3.751   0.680   9.564
 4330TIP3    H134625   3.807   0.655   9.488
 4330TIP3    H234626   3.798   0.760   9.591
 4331TIP3   OH234627   5.557   0.311  10.189
 4331TIP3    H134628   5.464   0.337  10.181
 4331TIP3    H234629   5.563   0.253  10.111
 4332TIP3   OH234630   5.555   0.312   8.654
 4332TIP3    H134631   5.598   0.231   8.615
 4332TIP3    H234632   5.634   0.367   8.660
 4333TIP3   OH234633   3.791   0.301   8.970
 4333TIP3    H134634   3.696   0.321   8.961
 4333TIP3    H234635   3.828   0.355   8.898
 4334TIP3   OH234636   5.261   1.801   9.167
 4334TIP3    H134637   5.329   1.771   9.104
 4334TIP3    H234638   5.312   1.851   9.232
 4335TIP3   OH234639   3.782   0.174   9.801
 4335TIP3    H134640   3.716   0.155   9.869
 4335TIP3    H234641   3.735   0.238   9.745
 4336TIP3   OH234642   4.005   1.493  10.220
 4336TIP3    H134643   3.921   1.512  10.175
 4336TIP3    H234644   3.977   1.486  10.312
 4337TIP3   OH234645   4.295   1.591   9.844
 4337TIP3    H134646   4.263   1.679   9.817
 4337TIP3    H234647   4.388   1.600   9.815
 4338TIP3   OH234648   4.729   1.735  10.137
 4338TIP3    H134649   4.749   1.700  10.226
 4338TIP3    H234650   4.819   1.765  10.110
 4339TIP3   OH234651   4.958   1.863  10.068
 4339TIP3    H134652   5.028   1.802  10.043
 4339TIP3    H234653   4.994   1.903  10.150
 4340TIP3   OH234654   5.460   0.125   9.974
 4340TIP3    H134655   5.376   0.156   9.936
 4340TIP3    H234656   5.476   0.043   9.925
 4341TIP3   OH234657   4.038   1.915   9.842
 4341TIP3    H134658   3.965   1.966   9.804
 4341TIP3    H234659   4.007   1.897   9.932
 4342TIP3   OH234660   4.285   1.873   9.750
 4342TIP3    H134661   4.197   1.889   9.791
 4342TIP3    H234662   4.280   1.932   9.673
 4343TIP3   OH234663   4.756   1.864   9.669
 4343TIP3    H134664   4.710   1.920   9.604
 4343TIP3    H234665   4.769   1.927   9.743
 4344TIP3   OH234666   4.984   1.745   9.772
 4344TIP3    H134667   4.899   1.773   9.734
 4344TIP3    H234668   5.033   1.828   9.763
 4345TIP3   OH234669   5.237   1.901   9.790
 4345TIP3    H134670   5.240   1.998   9.771
 4345TIP3    H234671   5.265   1.864   9.704
 4346TIP3   OH234672   3.985   1.780   9.539
 4346TIP3    H134673   3.976   1.735   9.625
 4346TIP3    H234674   4.066   1.742   9.500
 4347TIP3   OH234675   4.192   1.651   9.404
 4347TIP3    H134676   4.176   1.558   9.427
 4347TIP3    H234677   4.278   1.667   9.449
 4348TIP3   OH234678   4.453   1.700   9.492
 4348TIP3    H134679   4.468   1.608   9.465
 4348TIP3    H234680   4.457   1.694   9.588
 4349TIP3   OH234681   4.795   0.274   9.402
 4349TIP3    H134682   4.733   0.205   9.433
 4349TIP3    H234683   4.858   0.219   9.353
 4350TIP3   OH234684   5.310   0.073   9.414
 4350TIP3    H134685   5.371   0.126   9.359
 4350TIP3    H234686   5.223   0.106   9.389
 4351TIP3   OH234687   5.480   0.198   9.236
 4351TIP3    H134688   5.548   0.137   9.201
 4351TIP3    H234689   5.532   0.279   9.251
 4352TIP3   OH234690   4.040   0.132   9.176
 4352TIP3    H134691   3.952   0.107   9.142
 4352TIP3    H234692   4.075   0.043   9.196
 4353TIP3   OH234693   3.884   0.151   8.706
 4353TIP3    H134694   3.971   0.193   8.695
 4353TIP3    H234695   3.857   0.173   8.796
 4354TIP3   OH234696   4.509   0.163   9.203
 4354TIP3    H134697   4.603   0.161   9.178
 4354TIP3    H234698   4.499   0.096   9.270
 4355TIP3   OH234699   5.034   0.147   9.335
 4355TIP3    H134700   5.047   0.147   9.240
 4355TIP3    H234701   5.024   0.050   9.349
 4356TIP3   OH234702   5.179   0.130   8.906
 4356TIP3    H134703   5.105   0.185   8.880
 4356TIP3    H234704   5.141   0.041   8.912
 4357TIP3   OH234705   3.904   1.699   8.864
 4357TIP3    H134706   3.836   1.698   8.794
 4357TIP3    H234707   3.907   1.794   8.879
 4358TIP3   OH234708   4.095   0.293   8.612
 4358TIP3    H134709   4.148   0.237   8.555
 4358TIP3    H234710   4.160   0.331   8.673
 4359TIP3   OH234711   4.588   0.318   8.858
 4359TIP3    H134712   4.630   0.267   8.929
 4359TIP3    H234713   4.603   0.407   8.898
 4360TIP3   OH234714   4.787   1.859   8.699
 4360TIP3    H134715   4.883   1.856   8.685
 4360TIP3    H234716   4.770   1.784   8.637
 4361TIP3   OH234717   5.460   1.779   8.970
 4361TIP3    H134718   5.440   1.701   8.913
 4361TIP3    H234719   5.451   1.852   8.906
 4362TIP3   OH234720   4.009   0.183  10.132
 4362TIP3    H134721   3.986   0.102  10.178
 4362TIP3    H234722   4.103   0.182  10.164
 4363TIP3   OH234723   4.206   0.136  10.279
 4363TIP3    H134724   4.300   0.117  10.276
 4363TIP3    H234725   4.186   0.060  10.337
 4364TIP3   OH234726   4.086   1.797   8.560
 4364TIP3    H134727   4.056   1.823   8.647
 4364TIP3    H234728   4.162   1.741   8.577
 4365TIP3   OH234729   5.058   7.425  10.312
 4365TIP3    H134730   5.063   7.359  10.384
 4365TIP3    H234731   5.143   7.399  10.273
 4366TIP3   OH234732   5.383   1.653  10.184
 4366TIP3    H134733   5.305   1.639  10.126
 4366TIP3    H234734   5.376   1.749  10.198
 4367TIP3   OH234735   6.829   1.040   9.175
 4367TIP3    H134736   6.828   1.138   9.172
 4367TIP3    H234737   6.756   1.018   9.115
 4368TIP3   OH234738   6.715   0.967   9.525
 4368TIP3    H134739   6.713   0.902   9.598
 4368TIP3    H234740   6.680   0.915   9.450
 4369TIP3   OH234741   5.949   0.935   9.681
 4369TIP3    H134742   5.958   0.866   9.750
 4369TIP3    H234743   6.025   0.992   9.703
 4370TIP3   OH234744   7.085   1.259   9.356
 4370TIP3    H134745   7.042   1.189   9.406
 4370TIP3    H234746   7.091   1.329   9.424
 4371TIP3   OH234747   6.042   1.380   9.530
 4371TIP3    H134748   6.012   1.293   9.500
 4371TIP3    H234749   6.138   1.362   9.535
 4372TIP3   OH234750   5.707   0.734   9.080
 4372TIP3    H134751   5.666   0.823   9.076
 4372TIP3    H234752   5.650   0.682   9.023
 4373TIP3   OH234753   5.778   0.959   9.295
 4373TIP3    H134754   5.805   0.876   9.340
 4373TIP3    H234755   5.847   0.969   9.228
 4374TIP3   OH234756   6.798   1.779   9.378
 4374TIP3    H134757   6.861   1.708   9.349
 4374TIP3    H234758   6.774   1.743   9.464
 4375TIP3   OH234759   6.552   1.206   9.574
 4375TIP3    H134760   6.586   1.144   9.507
 4375TIP3    H234761   6.634   1.223   9.625
 4376TIP3   OH234762   6.867   0.653   9.605
 4376TIP3    H134763   6.886   0.557   9.605
 4376TIP3    H234764   6.858   0.668   9.509
 4377TIP3   OH234765   6.180   0.466   9.326
 4377TIP3    H134766   6.192   0.548   9.275
 4377TIP3    H234767   6.141   0.407   9.259
 4378TIP3   OH234768   6.955   0.471   9.163
 4378TIP3    H134769   7.020   0.439   9.230
 4378TIP3    H234770   7.010   0.527   9.108
 4379TIP3   OH234771   5.842   0.703   9.400
 4379TIP3    H134772   5.910   0.649   9.445
 4379TIP3    H234773   5.853   0.673   9.309
 4380TIP3   OH234774   6.358   0.859   9.332
 4380TIP3    H134775   6.426   0.801   9.370
 4380TIP3    H234776   6.307   0.794   9.280
 4381TIP3   OH234777   6.072   0.356   9.732
 4381TIP3    H134778   6.042   0.409   9.655
 4381TIP3    H234779   6.002   0.376   9.798
 4382TIP3   OH234780   6.797   1.299   9.085
 4382TIP3    H134781   6.774   1.274   8.994
 4382TIP3    H234782   6.769   1.393   9.089
 4383TIP3   OH234783   6.322   1.117   9.754
 4383TIP3    H134784   6.252   1.181   9.776
 4383TIP3    H234785   6.393   1.177   9.724
 4384TIP3   OH234786   7.116   0.402   9.368
 4384TIP3    H134787   7.108   0.324   9.421
 4384TIP3    H234788   7.189   0.450   9.413
 4385TIP3   OH234789   6.027   0.539   9.532
 4385TIP3    H134790   6.091   0.606   9.565
 4385TIP3    H234791   6.081   0.496   9.460
 4386TIP3   OH234792   6.167   1.317   9.835
 4386TIP3    H134793   6.162   1.409   9.802
 4386TIP3    H234794   6.080   1.309   9.881
 4387TIP3   OH234795   5.773   1.278   8.914
 4387TIP3    H134796   5.753   1.313   8.825
 4387TIP3    H234797   5.782   1.361   8.967
 4388TIP3   OH234798   7.128   1.441   9.598
 4388TIP3    H134799   7.031   1.455   9.604
 4388TIP3    H234800   7.160   1.529   9.572
 4389TIP3   OH234801   7.160   0.292   9.727
 4389TIP3    H134802   7.083   0.351   9.716
 4389TIP3    H234803   7.228   0.329   9.670
 4390TIP3   OH234804   6.493   0.106   9.472
 4390TIP3    H134805   6.482   0.010   9.473
 4390TIP3    H234806   6.402   0.131   9.496
 4391TIP3   OH234807   6.958   1.620   9.250
 4391TIP3    H134808   7.004   1.550   9.200
 4391TIP3    H234809   7.005   1.699   9.215
 4392TIP3   OH234810   7.081   1.414   9.099
 4392TIP3    H134811   7.054   1.344   9.038
 4392TIP3    H234812   7.087   1.365   9.183
 4393TIP3   OH234813   7.222   1.286   9.959
 4393TIP3    H134814   7.253   1.217   9.897
 4393TIP3    H234815   7.263   1.364   9.916
 4394TIP3   OH234816   6.693   0.965   8.925
 4394TIP3    H134817   6.625   1.024   8.887
 4394TIP3    H234818   6.765   0.975   8.860
 4395TIP3   OH234819   6.700   0.819   8.635
 4395TIP3    H134820   6.773   0.820   8.698
 4395TIP3    H234821   6.732   0.755   8.572
 4396TIP3   OH234822   7.039   0.988   9.018
 4396TIP3    H134823   6.966   1.013   9.080
 4396TIP3    H234824   7.086   0.921   9.074
 4397TIP3   OH234825   7.027   0.799   9.931
 4397TIP3    H134826   7.031   0.881   9.983
 4397TIP3    H234827   6.969   0.832   9.860
 4398TIP3   OH234828   6.199   1.052   9.211
 4398TIP3    H134829   6.168   1.013   9.126
 4398TIP3    H234830   6.262   0.984   9.244
 4399TIP3   OH234831   6.332   1.390   9.479
 4399TIP3    H134832   6.332   1.338   9.398
 4399TIP3    H234833   6.411   1.355   9.525
 4400TIP3   OH234834   6.233   0.927   9.578
 4400TIP3    H134835   6.288   0.936   9.497
 4400TIP3    H234836   6.273   0.993   9.638
 4401TIP3   OH234837   6.871   1.484   9.647
 4401TIP3    H134838   6.849   1.548   9.715
 4401TIP3    H234839   6.850   1.398   9.690
 4402TIP3   OH234840   6.329   1.371  10.048
 4402TIP3    H134841   6.285   1.444  10.095
 4402TIP3    H234842   6.262   1.349   9.979
 4403TIP3   OH234843   6.930   0.903   8.784
 4403TIP3    H134844   6.980   0.926   8.866
 4403TIP3    H234845   6.968   0.960   8.715
 4404TIP3   OH234846   6.023   0.986   9.965
 4404TIP3    H134847   6.027   1.052  10.037
 4404TIP3    H234848   5.930   0.995   9.940
 4405TIP3   OH234849   6.697   1.578   9.134
 4405TIP3    H134850   6.741   1.610   9.214
 4405TIP3    H234851   6.642   1.653   9.108
 4406TIP3   OH234852   6.154   1.570  10.122
 4406TIP3    H134853   6.148   1.563  10.025
 4406TIP3    H234854   6.060   1.560  10.147
 4407TIP3   OH234855   7.254   0.082   8.740
 4407TIP3    H134856   7.187   0.098   8.809
 4407TIP3    H234857   7.306   0.161   8.731
 4408TIP3   OH234858   6.096   0.955   8.973
 4408TIP3    H134859   6.069   1.032   8.919
 4408TIP3    H234860   6.032   0.888   8.949
 4409TIP3   OH234861   5.708   1.197   9.860
 4409TIP3    H134862   5.661   1.188   9.775
 4409TIP3    H234863   5.715   1.103   9.885
 4410TIP3   OH234864   5.682   1.471   9.540
 4410TIP3    H134865   5.778   1.460   9.539
 4410TIP3    H234866   5.674   1.553   9.590
 4411TIP3   OH234867   6.603   1.495   9.998
 4411TIP3    H134868   6.607   1.581  10.047
 4411TIP3    H234869   6.515   1.459  10.020
 4412TIP3   OH234870   6.647   1.869   8.974
 4412TIP3    H134871   6.638   1.864   8.877
 4412TIP3    H234872   6.651   1.965   8.991
 4413TIP3   OH234873   6.011   1.758   9.157
 4413TIP3    H134874   6.025   1.716   9.245
 4413TIP3    H234875   5.926   1.717   9.133
 4414TIP3   OH234876   6.954   1.790   8.671
 4414TIP3    H134877   6.997   1.712   8.630
 4414TIP3    H234878   6.955   1.765   8.765
 4415TIP3   OH234879   6.920   1.785   8.951
 4415TIP3    H134880   6.824   1.791   8.970
 4415TIP3    H234881   6.946   1.711   9.008
 4416TIP3   OH234882   7.190   0.700  10.162
 4416TIP3    H134883   7.169   0.737  10.075
 4416TIP3    H234884   7.226   0.612  10.135
 4417TIP3   OH234885   5.936   1.327   9.956
 4417TIP3    H134886   5.957   1.293  10.046
 4417TIP3    H234887   5.848   1.289   9.936
 4418TIP3   OH234888   6.199   0.193   9.557
 4418TIP3    H134889   6.112   0.173   9.516
 4418TIP3    H234890   6.180   0.274   9.606
 4419TIP3   OH234891   6.664   0.141   9.891
 4419TIP3    H134892   6.703   0.105   9.971
 4419TIP3    H234893   6.568   0.134   9.907
 4420TIP3   OH234894   6.992   0.523   9.972
 4420TIP3    H134895   6.940   0.508  10.054
 4420TIP3    H234896   6.980   0.619   9.956
 4421TIP3   OH234897   7.083   1.009   8.570
 4421TIP3    H134898   7.079   0.998   8.474
 4421TIP3    H234899   7.163   1.062   8.579
 4422TIP3   OH234900   6.633   0.399   8.623
 4422TIP3    H134901   6.602   0.397   8.715
 4422TIP3    H234902   6.606   0.311   8.593
 4423TIP3   OH234903   6.214   0.674   9.678
 4423TIP3    H134904   6.140   0.673   9.741
 4423TIP3    H234905   6.209   0.765   9.640
 4424TIP3   OH234906   6.210   0.684   9.164
 4424TIP3    H134907   6.116   0.660   9.150
 4424TIP3    H234908   6.247   0.656   9.078
 4425TIP3   OH234909   6.764   0.736   9.037
 4425TIP3    H134910   6.723   0.819   9.004
 4425TIP3    H234911   6.832   0.719   8.970
 4426TIP3   OH234912   6.668   0.758  10.185
 4426TIP3    H134913   6.616   0.680  10.215
 4426TIP3    H234914   6.751   0.744  10.233
 4427TIP3   OH234915   6.865   0.688   9.326
 4427TIP3    H134916   6.837   0.742   9.251
 4427TIP3    H234917   6.874   0.602   9.280
 4428TIP3   OH234918   5.975   0.698   9.844
 4428TIP3    H134919   5.985   0.741   9.931
 4428TIP3    H234920   5.932   0.614   9.866
 4429TIP3   OH234921   6.329   0.460   8.562
 4429TIP3    H134922   6.274   0.398   8.614
 4429TIP3    H234923   6.269   0.500   8.499
 4430TIP3   OH234924   5.643   0.414   9.239
 4430TIP3    H134925   5.709   0.408   9.312
 4430TIP3    H234926   5.688   0.371   9.166
 4431TIP3   OH234927   5.769   0.484   8.782
 4431TIP3    H134928   5.822   0.540   8.720
 4431TIP3    H234929   5.706   0.548   8.816
 4432TIP3   OH234930   6.785   0.842   9.779
 4432TIP3    H134931   6.824   0.773   9.721
 4432TIP3    H234932   6.738   0.790   9.847
 4433TIP3   OH234933   6.465   0.441   9.263
 4433TIP3    H134934   6.372   0.436   9.293
 4433TIP3    H234935   6.513   0.426   9.345
 4434TIP3   OH234936   5.948   0.593   9.151
 4434TIP3    H134937   5.860   0.612   9.113
 4434TIP3    H234938   5.975   0.508   9.111
 4435TIP3   OH234939   6.310   0.600   8.911
 4435TIP3    H134940   6.405   0.614   8.931
 4435TIP3    H234941   6.286   0.668   8.845
 4436TIP3   OH234942   6.902   0.364   9.586
 4436TIP3    H134943   6.834   0.368   9.656
 4436TIP3    H234944   6.852   0.341   9.506
 4437TIP3   OH234945   6.180   0.718   8.674
 4437TIP3    H134946   6.125   0.683   8.601
 4437TIP3    H234947   6.263   0.740   8.627
 4438TIP3   OH234948   7.222   1.930  10.223
 4438TIP3    H134949   7.250   1.964  10.136
 4438TIP3    H234950   7.296   1.959  10.275
 4439TIP3   OH234951   5.993   1.177  10.181
 4439TIP3    H134952   6.066   1.200  10.240
 4439TIP3    H234953   5.917   1.188  10.243
 4440TIP3   OH234954   6.594   0.715   9.452
 4440TIP3    H134955   6.655   0.659   9.401
 4440TIP3    H234956   6.578   0.662   9.531
 4441TIP3   OH234957   6.093   0.335   9.096
 4441TIP3    H134958   6.059   0.244   9.099
 4441TIP3    H234959   6.172   0.325   9.041
 4442TIP3   OH234960   6.457   0.548   9.694
 4442TIP3    H134961   6.375   0.601   9.703
 4442TIP3    H234962   6.513   0.584   9.766
 4443TIP3   OH234963   6.516   1.169   8.867
 4443TIP3    H134964   6.436   1.124   8.833
 4443TIP3    H234965   6.493   1.183   8.961
 4444TIP3   OH234966   7.220   1.097   9.745
 4444TIP3    H134967   7.284   1.115   9.673
 4444TIP3    H234968   7.138   1.094   9.693
 4445TIP3   OH234969   6.901   0.453   8.681
 4445TIP3    H134970   6.807   0.467   8.664
 4445TIP3    H234971   6.928   0.540   8.715
 4446TIP3   OH234972   6.668   1.197   9.989
 4446TIP3    H134973   6.631   1.155  10.067
 4446TIP3    H234974   6.641   1.289   9.998
 4447TIP3   OH234975   6.973   0.645   8.842
 4447TIP3    H134976   7.059   0.633   8.887
 4447TIP3    H234977   6.980   0.731   8.798
 4448TIP3   OH234978   6.027   1.111   9.444
 4448TIP3    H134979   6.095   1.103   9.375
 4448TIP3    H234980   6.033   1.025   9.490
 4449TIP3   OH234981   6.725   1.319   8.772
 4449TIP3    H134982   6.687   1.403   8.804
 4449TIP3    H234983   6.652   1.255   8.789
 4450TIP3   OH234984   5.725   0.951   9.970
 4450TIP3    H134985   5.743   0.907  10.055
 4450TIP3    H234986   5.662   0.890   9.927
 4451TIP3   OH234987   6.427   0.907  10.188
 4451TIP3    H134988   6.395   0.876  10.101
 4451TIP3    H234989   6.519   0.876  10.188
 4452TIP3   OH234990   6.894   1.438   9.986
 4452TIP3    H134991   6.803   1.458   9.959
 4452TIP3    H234992   6.893   1.472  10.076
 4453TIP3   OH234993   7.280   1.541   8.862
 4453TIP3    H134994   7.251   1.457   8.897
 4453TIP3    H234995   7.320   1.523   8.777
 4454TIP3   OH234996   7.006   1.020   9.575
 4454TIP3    H134997   6.912   0.999   9.559
 4454TIP3    H234998   7.053   0.948   9.530
 4455TIP3   OH234999   6.264   1.457   9.183
 4455TIP3    H135000   6.314   1.537   9.162
 4455TIP3    H235001   6.176   1.480   9.150
 4456TIP3   OH235002   5.836   0.941   8.637
 4456TIP3    H135003   5.899   1.003   8.677
 4456TIP3    H235004   5.750   0.973   8.669
 4457TIP3   OH235005   6.405   1.223   9.135
 4457TIP3    H135006   6.374   1.315   9.143
 4457TIP3    H235007   6.334   1.173   9.179
 4458TIP3   OH235008   6.451   1.642   9.776
 4458TIP3    H135009   6.497   1.722   9.747
 4458TIP3    H235010   6.513   1.607   9.842
 4459TIP3   OH235011   6.275   1.722   9.087
 4459TIP3    H135012   6.178   1.736   9.102
 4459TIP3    H235013   6.310   1.806   9.122
 4460TIP3   OH235014   6.804   1.240   9.738
 4460TIP3    H135015   6.771   1.221   9.828
 4460TIP3    H235016   6.867   1.169   9.721
 4461TIP3   OH235017   7.033   1.345   8.650
 4461TIP3    H135018   7.061   1.300   8.732
 4461TIP3    H235019   6.937   1.331   8.656
 4462TIP3   OH235020   7.080   1.703   9.988
 4462TIP3    H135021   7.015   1.651   9.937
 4462TIP3    H235022   7.105   1.769   9.920
 4463TIP3   OH235023   5.891   0.424   9.930
 4463TIP3    H135024   5.800   0.457   9.921
 4463TIP3    H235025   5.878   0.335   9.967
 4464TIP3   OH235026   7.115   1.209   8.872
 4464TIP3    H135027   7.089   1.129   8.924
 4464TIP3    H235028   7.209   1.217   8.895
 4465TIP3   OH235029   5.852   1.603   9.768
 4465TIP3    H135030   5.883   1.511   9.770
 4465TIP3    H235031   5.876   1.635   9.856
 4466TIP3   OH235032   6.327   1.412   8.739
 4466TIP3    H135033   6.354   1.356   8.813
 4466TIP3    H235034   6.336   1.503   8.775
 4467TIP3   OH235035   5.975   1.135   8.783
 4467TIP3    H135036   5.910   1.175   8.845
 4467TIP3    H235037   6.033   1.210   8.763
 4468TIP3   OH235038   6.762   0.398   9.824
 4468TIP3    H135039   6.838   0.408   9.884
 4468TIP3    H235040   6.729   0.308   9.841
 4469TIP3   OH235041   6.842   0.358   8.932
 4469TIP3    H135042   6.861   0.407   8.849
 4469TIP3    H235043   6.893   0.407   8.997
 4470TIP3   OH235044   6.607   1.577   8.814
 4470TIP3    H135045   6.525   1.629   8.819
 4470TIP3    H235046   6.661   1.626   8.750
 4471TIP3   OH235047   6.561   0.530   9.011
 4471TIP3    H135048   6.638   0.590   9.013
 4471TIP3    H235049   6.535   0.522   9.105
 4472TIP3   OH235050   6.620   0.637   9.930
 4472TIP3    H135051   6.627   0.691  10.012
 4472TIP3    H235052   6.684   0.566   9.940
 4473TIP3   OH235053   6.645   0.238   9.106
 4473TIP3    H135054   6.615   0.307   9.167
 4473TIP3    H235055   6.711   0.290   9.054
 4474TIP3   OH235056   6.345   1.680   8.816
 4474TIP3    H135057   6.361   1.762   8.765
 4474TIP3    H235058   6.319   1.715   8.905
 4475TIP3   OH235059   6.214   0.347   8.775
 4475TIP3    H135060   6.206   0.438   8.808
 4475TIP3    H235061   6.306   0.331   8.802
 4476TIP3   OH235062   7.236   0.418  10.011
 4476TIP3    H135063   7.144   0.453  10.003
 4476TIP3    H235064   7.265   0.422   9.919
 4477TIP3   OH235065   7.098   0.803   9.422
 4477TIP3    H135066   7.015   0.761   9.390
 4477TIP3    H235067   7.137   0.729   9.470
 4478TIP3   OH235068   6.036   1.396   8.676
 4478TIP3    H135069   6.103   1.457   8.709
 4478TIP3    H235070   6.088   1.347   8.608
 4479TIP3   OH235071   5.874   0.663   8.600
 4479TIP3    H135072   5.875   0.760   8.606
 4479TIP3    H235073   5.790   0.644   8.556
 4480TIP3   OH235074   7.207   1.729   9.584
 4480TIP3    H135075   7.190   1.798   9.517
 4480TIP3    H235076   7.301   1.738   9.602
 4481TIP3   OH235077   5.930   0.155   9.466
 4481TIP3    H135078   5.933   0.145   9.369
 4481TIP3    H235079   5.921   0.061   9.490
 4482TIP3   OH235080   5.847   1.533   9.079
 4482TIP3    H135081   5.761   1.577   9.075
 4482TIP3    H235082   5.894   1.579   9.008
 4483TIP3   OH235083   5.779   1.791  10.200
 4483TIP3    H135084   5.827   1.781  10.283
 4483TIP3    H235085   5.722   1.714  10.193
 4484TIP3   OH235086   6.238   1.692  10.366
 4484TIP3    H135087   6.307   1.635  10.400
 4484TIP3    H235088   6.228   1.660  10.274
 4485TIP3   OH235089   6.687   1.645   8.567
 4485TIP3    H135090   6.603   1.598   8.557
 4485TIP3    H235091   6.737   1.601   8.498
 4486TIP3   OH235092   6.889   1.528  10.242
 4486TIP3    H135093   6.852   1.441  10.267
 4486TIP3    H235094   6.966   1.544  10.299
 4487TIP3   OH235095   7.101   1.614   8.526
 4487TIP3    H135096   7.130   1.536   8.576
 4487TIP3    H235097   7.180   1.644   8.479
 4488TIP3   OH235098   5.759   1.170  10.306
 4488TIP3    H135099   5.776   1.083  10.267
 4488TIP3    H235100   5.687   1.204  10.248
 4489TIP3   OH235101   6.203   1.217   8.523
 4489TIP3    H135102   6.208   1.134   8.570
 4489TIP3    H235103   6.257   1.194   8.445
 4490TIP3   OH235104   6.435   1.173  10.246
 4490TIP3    H135105   6.397   1.206  10.162
 4490TIP3    H235106   6.436   1.076  10.235
 4491TIP3   OH235107   6.997   1.157   9.984
 4491TIP3    H135108   7.076   1.216   9.974
 4491TIP3    H235109   6.929   1.226   9.988
 4492TIP3   OH235110   5.852   0.898  10.247
 4492TIP3    H135111   5.892   0.812  10.232
 4492TIP3    H235112   5.824   0.896  10.338
 4493TIP3   OH235113   6.316   1.013   8.752
 4493TIP3    H135114   6.264   0.960   8.814
 4493TIP3    H235115   6.346   0.944   8.688
 4494TIP3   OH235116   6.240   0.792   9.980
 4494TIP3    H135117   6.181   0.865  10.005
 4494TIP3    H235118   6.281   0.829   9.900
 4495TIP3   OH235119   6.423   0.836   8.571
 4495TIP3    H135120   6.412   0.815   8.477
 4495TIP3    H235121   6.521   0.843   8.582
 4496TIP3   OH235122   6.748   1.053  10.327
 4496TIP3    H135123   6.839   1.043  10.295
 4496TIP3    H235124   6.730   0.968  10.371
 4497TIP3   OH235125   6.279   0.532  10.088
 4497TIP3    H135126   6.293   0.460  10.024
 4497TIP3    H235127   6.276   0.611  10.032
 4498TIP3   OH235128   6.323   0.369   9.841
 4498TIP3    H135129   6.373   0.417   9.771
 4498TIP3    H235130   6.233   0.358   9.802
 4499TIP3   OH235131   6.475   0.917   9.867
 4499TIP3    H135132   6.550   0.900   9.809
 4499TIP3    H235133   6.439   1.000   9.832
 4500TIP3   OH235134   6.916   0.693  10.367
 4500TIP3    H135135   6.938   0.600  10.354
 4500TIP3    H235136   7.004   0.733  10.361
 4501TIP3   OH235137   7.043   0.976  10.179
 4501TIP3    H135138   7.023   1.045  10.113
 4501TIP3    H235139   7.140   0.967  10.161
 4502TIP3   OH235140   6.123   0.653  10.282
 4502TIP3    H135141   6.049   0.594  10.257
 4502TIP3    H235142   6.191   0.621  10.218
 4503TIP3   OH235143   6.393   0.126   9.900
 4503TIP3    H135144   6.383   0.222   9.878
 4503TIP3    H235145   6.327   0.087   9.840
 4504TIP3   OH235146   6.528   0.545  10.241
 4504TIP3    H135147   6.498   0.518  10.331
 4504TIP3    H235148   6.448   0.522  10.190
 4505TIP3   OH235149   6.798   0.466  10.156
 4505TIP3    H135150   6.701   0.462  10.167
 4505TIP3    H235151   6.829   0.398  10.219
 4506TIP3   OH235152   6.964   0.330  10.345
 4506TIP3    H135153   6.951   0.231  10.341
 4506TIP3    H235154   6.933   0.351  10.436
 4507TIP3   OH235155   5.939   0.446  10.255
 4507TIP3    H135156   5.963   0.376  10.191
 4507TIP3    H235157   5.933   0.394  10.337
 4508TIP3   OH235158   6.416   7.387  10.152
 4508TIP3    H135159   6.491   7.327  10.163
 4508TIP3    H235160   6.416   7.414  10.058
 4509TIP3   OH235161   6.405   1.903   8.673
 4509TIP3    H135162   6.502   1.913   8.686
 4509TIP3    H235163   6.388   1.970   8.607
 4510TIP3   OH235164   5.764   1.363   8.625
 4510TIP3    H135165   5.859   1.371   8.647
 4510TIP3    H235166   5.767   1.304   8.548
 4511TIP3   OH235167   5.638   1.900   9.123
 4511TIP3    H135168   5.567   1.851   9.077
 4511TIP3    H235169   5.666   1.834   9.189
 4512TIP3   OH235170   5.722   1.712   9.310
 4512TIP3    H135171   5.685   1.625   9.331
 4512TIP3    H235172   5.745   1.746   9.398
 4513TIP3   OH235173   7.272   1.516   9.829
 4513TIP3    H135174   7.206   1.562   9.882
 4513TIP3    H235175   7.219   1.484   9.752
 4514TIP3   OH235176   7.299   0.674   8.590
 4514TIP3    H135177   7.322   0.738   8.521
 4514TIP3    H235178   7.284   0.589   8.545
 4515TIP3   OH235179   7.189   0.817   9.157
 4515TIP3    H135180   7.204   0.722   9.160
 4515TIP3    H235181   7.188   0.839   9.251
 4516TIP3   OH235182   5.726   1.021   9.560
 4516TIP3    H135183   5.744   1.013   9.464
 4516TIP3    H235184   5.816   1.003   9.595
 4517TIP3   OH235185  -0.041   1.015  10.155
 4517TIP3    H135186   0.015   0.935  10.149
 4517TIP3    H235187   0.013   1.084  10.112
 4518TIP3   OH235188   7.225   0.421   8.511
 4518TIP3    H135189   7.290   0.373   8.563
 4518TIP3    H235190   7.144   0.369   8.519
 4519TIP3   OH235191   7.191   0.566   8.989
 4519TIP3    H135192   7.220   0.480   9.024
 4519TIP3    H235193   7.270   0.603   8.950
 4520TIP3   OH235194   7.214   0.575   9.537
 4520TIP3    H135195   7.309   0.586   9.522
 4520TIP3    H235196   7.216   0.622   9.622
 4521TIP3   OH235197   7.261   0.698   9.835
 4521TIP3    H135198   7.171   0.728   9.855
 4521TIP3    H235199   7.302   0.775   9.792
 4522TIP3   OH235200   5.690   0.551  10.179
 4522TIP3    H135201   5.783   0.525  10.192
 4522TIP3    H235202   5.644   0.468  10.199
 4523TIP3   OH235203   7.181   0.284   9.056
 4523TIP3    H135204   7.264   0.249   9.092
 4523TIP3    H235205   7.173   0.228   8.975
 4524TIP3   OH235206   5.805   0.383   9.459
 4524TIP3    H135207   5.851   0.300   9.485
 4524TIP3    H235208   5.863   0.448   9.499
 4525TIP3   OH235209   5.636   0.680   9.564
 4525TIP3    H135210   5.693   0.655   9.489
 4525TIP3    H235211   5.683   0.760   9.591
 4526TIP3   OH235212   5.675   0.303   8.969
 4526TIP3    H135213   5.580   0.320   8.960
 4526TIP3    H235214   5.714   0.355   8.897
 4527TIP3   OH235215   7.134   1.789   9.172
 4527TIP3    H135216   7.199   1.754   9.111
 4527TIP3    H235217   7.189   1.845   9.230
 4528TIP3   OH235218   5.667   0.175   9.800
 4528TIP3    H135219   5.601   0.156   9.868
 4528TIP3    H235220   5.621   0.239   9.743
 4529TIP3   OH235221   5.892   1.494  10.215
 4529TIP3    H135222   5.807   1.513  10.174
 4529TIP3    H235223   5.867   1.488  10.309
 4530TIP3   OH235224   6.181   1.590   9.841
 4530TIP3    H135225   6.149   1.679   9.817
 4530TIP3    H235226   6.275   1.600   9.815
 4531TIP3   OH235227   6.615   1.735  10.139
 4531TIP3    H135228   6.636   1.697  10.225
 4531TIP3    H235229   6.704   1.766  10.109
 4532TIP3   OH235230   6.843   1.860  10.070
 4532TIP3    H135231   6.918   1.805  10.041
 4532TIP3    H235232   6.883   1.908  10.146
 4533TIP3   OH235233   5.921   1.915   9.842
 4533TIP3    H135234   5.848   1.968   9.808
 4533TIP3    H235235   5.894   1.903   9.935
 4534TIP3   OH235236   6.169   1.874   9.752
 4534TIP3    H135237   6.080   1.891   9.791
 4534TIP3    H235238   6.166   1.932   9.674
 4535TIP3   OH235239   6.642   1.864   9.668
 4535TIP3    H135240   6.596   1.920   9.604
 4535TIP3    H235241   6.654   1.927   9.743
 4536TIP3   OH235242   6.872   1.744   9.772
 4536TIP3    H135243   6.786   1.772   9.735
 4536TIP3    H235244   6.917   1.830   9.764
 4537TIP3   OH235245   7.127   1.907   9.795
 4537TIP3    H135246   7.119   2.001   9.770
 4537TIP3    H235247   7.153   1.867   9.710
 4538TIP3   OH235248   5.871   1.781   9.539
 4538TIP3    H135249   5.862   1.734   9.624
 4538TIP3    H235250   5.951   1.742   9.499
 4539TIP3   OH235251   6.078   1.651   9.404
 4539TIP3    H135252   6.061   1.558   9.427
 4539TIP3    H235253   6.163   1.667   9.449
 4540TIP3   OH235254   6.335   1.700   9.491
 4540TIP3    H135255   6.353   1.608   9.465
 4540TIP3    H235256   6.342   1.695   9.588
 4541TIP3   OH235257   6.681   0.274   9.401
 4541TIP3    H135258   6.619   0.205   9.433
 4541TIP3    H235259   6.744   0.219   9.353
 4542TIP3   OH235260   7.185   0.082   9.428
 4542TIP3    H135261   7.251   0.120   9.368
 4542TIP3    H235262   7.102   0.108   9.389
 4543TIP3   OH235263   5.925   0.132   9.176
 4543TIP3    H135264   5.837   0.107   9.142
 4543TIP3    H235265   5.960   0.044   9.195
 4544TIP3   OH235266   5.769   0.150   8.705
 4544TIP3    H135267   5.856   0.194   8.695
 4544TIP3    H235268   5.744   0.171   8.796
 4545TIP3   OH235269   6.394   0.164   9.203
 4545TIP3    H135270   6.488   0.161   9.177
 4545TIP3    H235271   6.384   0.096   9.270
 4546TIP3   OH235272   6.922   0.145   9.334
 4546TIP3    H135273   6.934   0.149   9.239
 4546TIP3    H235274   6.911   0.048   9.347
 4547TIP3   OH235275   7.056   0.121   8.897
 4547TIP3    H135276   6.986   0.186   8.880
 4547TIP3    H235277   7.014   0.037   8.913
 4548TIP3   OH235278   5.789   1.699   8.864
 4548TIP3    H135279   5.721   1.698   8.794
 4548TIP3    H235280   5.792   1.794   8.879
 4549TIP3   OH235281   5.981   0.293   8.612
 4549TIP3    H135282   6.033   0.238   8.554
 4549TIP3    H235283   6.047   0.331   8.673
 4550TIP3   OH235284   6.474   0.318   8.858
 4550TIP3    H135285   6.513   0.265   8.929
 4550TIP3    H235286   6.489   0.406   8.899
 4551TIP3   OH235287   6.674   1.859   8.698
 4551TIP3    H135288   6.771   1.856   8.685
 4551TIP3    H235289   6.655   1.784   8.636
 4552TIP3   OH235290   5.906   0.183  10.140
 4552TIP3    H135291   5.871   0.102  10.177
 4552TIP3    H235292   6.000   0.176  10.168
 4553TIP3   OH235293   6.117   0.129  10.287
 4553TIP3    H135294   6.207   0.097  10.265
 4553TIP3    H235295   6.078   0.049  10.323
 4554TIP3   OH235296   5.972   1.797   8.560
 4554TIP3    H135297   5.941   1.823   8.647
 4554TIP3    H235298   6.047   1.741   8.577
 4555TIP3   OH235299   6.945   7.419  10.309
 4555TIP3    H135300   6.946   7.356  10.385
 4555TIP3    H235301   7.030   7.393  10.272
 4556TIP3   OH235302   7.257   1.650  10.192
 4556TIP3    H135303   7.192   1.638  10.120
 4556TIP3    H235304   7.251   1.749  10.195
 4557TIP3   OH235305   1.173   2.928   9.175
 4557TIP3    H135306   1.171   3.026   9.172
 4557TIP3    H235307   1.100   2.904   9.116
 4558TIP3   OH235308   1.058   2.852   9.525
 4558TIP3    H135309   1.057   2.788   9.597
 4558TIP3    H235310   1.022   2.802   9.451
 4559TIP3   OH235311   0.297   2.820   9.678
 4559TIP3    H135312   0.302   2.751   9.748
 4559TIP3    H235313   0.370   2.878   9.703
 4560TIP3   OH235314   1.426   3.147   9.355
 4560TIP3    H135315   1.385   3.075   9.404
 4560TIP3    H235316   1.429   3.218   9.422
 4561TIP3   OH235317   0.381   3.265   9.532
 4561TIP3    H135318   0.351   3.178   9.500
 4561TIP3    H235319   0.477   3.247   9.535
 4562TIP3   OH235320   0.071   2.624   9.053
 4562TIP3    H135321   0.020   2.703   9.083
 4562TIP3    H235322  -0.002   2.566   9.040
 4563TIP3   OH235323   0.118   2.838   9.290
 4563TIP3    H135324   0.146   2.761   9.342
 4563TIP3    H235325   0.192   2.852   9.230
 4564TIP3   OH235326   1.139   3.664   9.378
 4564TIP3    H135327   1.203   3.595   9.349
 4564TIP3    H235328   1.116   3.629   9.465
 4565TIP3   OH235329   0.895   3.092   9.574
 4565TIP3    H135330   0.929   3.030   9.507
 4565TIP3    H235331   0.977   3.108   9.625
 4566TIP3   OH235332   1.756   2.257   9.643
 4566TIP3    H135333   1.772   2.315   9.720
 4566TIP3    H235334   1.813   2.302   9.579
 4567TIP3   OH235335   1.212   2.539   9.605
 4567TIP3    H135336   1.229   2.443   9.605
 4567TIP3    H235337   1.202   2.553   9.509
 4568TIP3   OH235338   0.525   2.348   9.326
 4568TIP3    H135339   0.535   2.431   9.277
 4568TIP3    H235340   0.484   2.291   9.257
 4569TIP3   OH235341   1.301   2.352   9.157
 4569TIP3    H135342   1.361   2.325   9.231
 4569TIP3    H235343   1.355   2.418   9.113
 4570TIP3   OH235344   0.188   2.587   9.391
 4570TIP3    H135345   0.255   2.537   9.442
 4570TIP3    H235346   0.204   2.553   9.301
 4571TIP3   OH235347   0.701   2.745   9.332
 4571TIP3    H135348   0.769   2.687   9.370
 4571TIP3    H235349   0.650   2.679   9.280
 4572TIP3   OH235350   1.796   2.397   9.874
 4572TIP3    H135351   1.741   2.477   9.860
 4572TIP3    H235352   1.806   2.394   9.969
 4573TIP3   OH235353   0.415   2.238   9.730
 4573TIP3    H135354   0.387   2.295   9.655
 4573TIP3    H235355   0.346   2.261   9.797
 4574TIP3   OH235356   1.142   3.186   9.084
 4574TIP3    H135357   1.115   3.159   8.995
 4574TIP3    H235358   1.113   3.280   9.089
 4575TIP3   OH235359   0.668   3.002   9.754
 4575TIP3    H135360   0.595   3.065   9.776
 4575TIP3    H235361   0.737   3.063   9.724
 4576TIP3   OH235362   1.480   2.290   9.358
 4576TIP3    H135363   1.454   2.217   9.414
 4576TIP3    H235364   1.544   2.336   9.414
 4577TIP3   OH235365   0.370   2.420   9.534
 4577TIP3    H135366   0.429   2.491   9.566
 4577TIP3    H235367   0.425   2.383   9.460
 4578TIP3   OH235368   0.509   3.203   9.832
 4578TIP3    H135369   0.504   3.296   9.802
 4578TIP3    H235370   0.422   3.195   9.879
 4579TIP3   OH235371   0.119   3.170   8.912
 4579TIP3    H135372   0.097   3.201   8.822
 4579TIP3    H235373   0.125   3.250   8.968
 4580TIP3   OH235374   1.480   3.332   9.592
 4580TIP3    H135375   1.383   3.343   9.603
 4580TIP3    H235376   1.506   3.423   9.570
 4581TIP3   OH235377   1.512   2.159   9.732
 4581TIP3    H135378   1.439   2.221   9.717
 4581TIP3    H235379   1.583   2.202   9.678
 4582TIP3   OH235380   0.808   1.973   9.475
 4582TIP3    H135381   0.794   1.876   9.469
 4582TIP3    H235382   0.720   2.002   9.507
 4583TIP3   OH235383   1.306   3.509   9.250
 4583TIP3    H135384   1.348   3.438   9.199
 4583TIP3    H235385   1.350   3.588   9.212
 4584TIP3   OH235386   1.427   3.302   9.101
 4584TIP3    H135387   1.397   3.233   9.039
 4584TIP3    H235388   1.430   3.253   9.185
 4585TIP3   OH235389   1.590   3.162   9.952
 4585TIP3    H135390   1.601   3.095   9.881
 4585TIP3    H235391   1.607   3.246   9.905
 4586TIP3   OH235392   1.037   2.850   8.925
 4586TIP3    H135393   0.968   2.909   8.887
 4586TIP3    H235394   1.108   2.861   8.860
 4587TIP3   OH235395   1.041   2.703   8.637
 4587TIP3    H135396   1.116   2.706   8.699
 4587TIP3    H235397   1.074   2.643   8.571
 4588TIP3   OH235398   1.777   2.793   9.753
 4588TIP3    H135399   1.712   2.866   9.759
 4588TIP3    H235400   1.827   2.818   9.673
 4589TIP3   OH235401   1.380   2.867   9.020
 4589TIP3    H135402   1.308   2.896   9.081
 4589TIP3    H235403   1.431   2.806   9.075
 4590TIP3   OH235404   1.375   2.686   9.932
 4590TIP3    H135405   1.377   2.768   9.986
 4590TIP3    H235406   1.313   2.717   9.864
 4591TIP3   OH235407   0.546   2.938   9.211
 4591TIP3    H135408   0.510   2.898   9.129
 4591TIP3    H235409   0.606   2.868   9.245
 4592TIP3   OH235410   0.676   3.275   9.479
 4592TIP3    H135411   0.676   3.224   9.398
 4592TIP3    H235412   0.754   3.240   9.525
 4593TIP3   OH235413   0.578   2.813   9.578
 4593TIP3    H135414   0.632   2.822   9.497
 4593TIP3    H235415   0.616   2.880   9.638
 4594TIP3   OH235416   1.219   3.370   9.649
 4594TIP3    H135417   1.190   3.434   9.714
 4594TIP3    H235418   1.193   3.284   9.690
 4595TIP3   OH235419   0.672   3.255  10.050
 4595TIP3    H135420   0.631   3.333  10.094
 4595TIP3    H235421   0.606   3.235   9.978
 4596TIP3   OH235422   1.275   2.785   8.785
 4596TIP3    H135423   1.323   2.813   8.867
 4596TIP3    H235424   1.310   2.846   8.717
 4597TIP3   OH235425   0.370   2.873   9.968
 4597TIP3    H135426   0.372   2.942  10.036
 4597TIP3    H235427   0.277   2.880   9.938
 4598TIP3   OH235428   1.041   3.464   9.135
 4598TIP3    H135429   1.085   3.496   9.214
 4598TIP3    H235430   0.986   3.539   9.108
 4599TIP3   OH235431   0.496   3.459  10.123
 4599TIP3    H135432   0.491   3.448  10.026
 4599TIP3    H235433   0.403   3.443  10.147
 4600TIP3   OH235434   1.642   1.966   8.778
 4600TIP3    H135435   1.546   1.974   8.799
 4600TIP3    H235436   1.664   2.050   8.734
 4601TIP3   OH235437   0.443   2.840   8.970
 4601TIP3    H135438   0.414   2.918   8.920
 4601TIP3    H235439   0.375   2.775   8.949
 4602TIP3   OH235440   1.752   3.399   8.613
 4602TIP3    H135441   1.765   3.495   8.625
 4602TIP3    H235442   1.845   3.370   8.607
 4603TIP3   OH235443   0.093   3.074   9.841
 4603TIP3    H135444   0.021   3.079   9.776
 4603TIP3    H235445   0.066   2.989   9.881
 4604TIP3   OH235446   0.043   3.373   9.521
 4604TIP3    H135447   0.131   3.340   9.541
 4604TIP3    H235448   0.024   3.431   9.595
 4605TIP3   OH235449   1.852   3.425  10.105
 4605TIP3    H135450   1.833   3.329  10.108
 4605TIP3    H235451   1.767   3.453  10.150
 4606TIP3   OH235452   0.947   3.380   9.997
 4606TIP3    H135453   0.951   3.464  10.046
 4606TIP3    H235454   0.858   3.344  10.018
 4607TIP3   OH235455   0.988   3.755   8.974
 4607TIP3    H135456   0.981   3.750   8.877
 4607TIP3    H235457   0.993   3.851   8.992
 4608TIP3   OH235458   0.354   3.643   9.156
 4608TIP3    H135459   0.368   3.601   9.243
 4608TIP3    H235460   0.271   3.601   9.130
 4609TIP3   OH235461   1.283   3.669   8.672
 4609TIP3    H135462   1.341   3.603   8.630
 4609TIP3    H235463   1.302   3.653   8.766
 4610TIP3   OH235464   1.263   3.669   8.953
 4610TIP3    H135465   1.168   3.677   8.970
 4610TIP3    H235466   1.288   3.594   9.010
 4611TIP3   OH235467   1.559   2.567  10.161
 4611TIP3    H135468   1.521   2.624  10.090
 4611TIP3    H235469   1.567   2.482  10.119
 4612TIP3   OH235470   0.279   3.219   9.958
 4612TIP3    H135471   0.295   3.178  10.045
 4612TIP3    H235472   0.194   3.177   9.931
 4613TIP3   OH235473   0.548   2.064   9.550
 4613TIP3    H135474   0.458   2.051   9.514
 4613TIP3    H235475   0.533   2.145   9.600
 4614TIP3   OH235476   1.013   2.030   9.891
 4614TIP3    H135477   1.049   1.984   9.969
 4614TIP3    H235478   0.915   2.018   9.902
 4615TIP3   OH235479   1.340   2.412   9.981
 4615TIP3    H135480   1.275   2.397  10.053
 4615TIP3    H235481   1.324   2.505   9.954
 4616TIP3   OH235482   1.422   2.900   8.571
 4616TIP3    H135483   1.424   2.881   8.476
 4616TIP3    H235484   1.509   2.943   8.582
 4617TIP3   OH235485   0.981   2.285   8.625
 4617TIP3    H135486   0.940   2.281   8.714
 4617TIP3    H235487   0.947   2.200   8.592
 4618TIP3   OH235488   0.557   2.560   9.678
 4618TIP3    H135489   0.484   2.558   9.741
 4618TIP3    H235490   0.550   2.650   9.640
 4619TIP3   OH235491   0.554   2.570   9.164
 4619TIP3    H135492   0.460   2.546   9.150
 4619TIP3    H235493   0.591   2.542   9.078
 4620TIP3   OH235494   1.106   2.619   9.038
 4620TIP3    H135495   1.064   2.703   9.007
 4620TIP3    H235496   1.174   2.607   8.970
 4621TIP3   OH235497   1.013   2.644  10.185
 4621TIP3    H135498   0.959   2.567  10.214
 4621TIP3    H235499   1.096   2.632  10.234
 4622TIP3   OH235500   1.209   2.571   9.326
 4622TIP3    H135501   1.179   2.627   9.253
 4622TIP3    H235502   1.216   2.486   9.280
 4623TIP3   OH235503   0.320   2.583   9.845
 4623TIP3    H135504   0.325   2.624   9.933
 4623TIP3    H235505   0.274   2.500   9.865
 4624TIP3   OH235506   0.674   2.346   8.562
 4624TIP3    H135507   0.619   2.284   8.615
 4624TIP3    H235508   0.613   2.384   8.499
 4625TIP3   OH235509   0.013   2.319   9.230
 4625TIP3    H135510   0.054   2.289   9.314
 4625TIP3    H235511   0.037   2.250   9.167
 4626TIP3   OH235512   0.115   2.378   8.777
 4626TIP3    H135513   0.168   2.434   8.716
 4626TIP3    H235514   0.044   2.437   8.801
 4627TIP3   OH235515   1.127   2.728   9.780
 4627TIP3    H135516   1.166   2.660   9.722
 4627TIP3    H235517   1.081   2.676   9.847
 4628TIP3   OH235518   0.807   2.327   9.264
 4628TIP3    H135519   0.713   2.327   9.294
 4628TIP3    H235520   0.856   2.309   9.346
 4629TIP3   OH235521   0.297   2.482   9.147
 4629TIP3    H135522   0.207   2.498   9.112
 4629TIP3    H235523   0.318   2.395   9.107
 4630TIP3   OH235524   0.652   2.488   8.914
 4630TIP3    H135525   0.748   2.498   8.930
 4630TIP3    H235526   0.630   2.553   8.845
 4631TIP3   OH235527   1.249   2.248   9.588
 4631TIP3    H135528   1.181   2.254   9.658
 4631TIP3    H235529   1.198   2.224   9.510
 4632TIP3   OH235530   0.526   2.603   8.673
 4632TIP3    H135531   0.470   2.569   8.601
 4632TIP3    H235532   0.607   2.626   8.626
 4633TIP3   OH235533   1.576   3.790  10.231
 4633TIP3    H135534   1.583   3.847  10.151
 4633TIP3    H235535   1.641   3.840  10.282
 4634TIP3   OH235536   0.340   3.060  10.178
 4634TIP3    H135537   0.410   3.086  10.240
 4634TIP3    H235538   0.262   3.077  10.233
 4635TIP3   OH235539   0.936   2.602   9.453
 4635TIP3    H135540   0.996   2.549   9.400
 4635TIP3    H235541   0.922   2.547   9.531
 4636TIP3   OH235542   0.437   2.217   9.098
 4636TIP3    H135543   0.405   2.125   9.095
 4636TIP3    H235544   0.516   2.210   9.043
 4637TIP3   OH235545   0.801   2.435   9.695
 4637TIP3    H135546   0.718   2.487   9.703
 4637TIP3    H235547   0.856   2.470   9.767
 4638TIP3   OH235548   0.860   3.055   8.867
 4638TIP3    H135549   0.779   3.010   8.833
 4638TIP3    H235550   0.836   3.068   8.961
 4639TIP3   OH235551   1.578   2.978   9.744
 4639TIP3    H135552   1.634   3.026   9.681
 4639TIP3    H235553   1.492   2.982   9.698
 4640TIP3   OH235554   1.248   2.338   8.687
 4640TIP3    H135555   1.153   2.346   8.663
 4640TIP3    H235556   1.265   2.432   8.707
 4641TIP3   OH235557   1.007   3.084   9.986
 4641TIP3    H135558   0.974   3.040  10.065
 4641TIP3    H235559   0.984   3.177   9.999
 4642TIP3   OH235560   1.324   2.527   8.842
 4642TIP3    H135561   1.405   2.533   8.896
 4642TIP3    H235562   1.321   2.615   8.799
 4643TIP3   OH235563   0.373   2.998   9.444
 4643TIP3    H135564   0.438   2.988   9.374
 4643TIP3    H235565   0.377   2.913   9.490
 4644TIP3   OH235566   1.069   3.203   8.772
 4644TIP3    H135567   1.032   3.288   8.803
 4644TIP3    H235568   0.995   3.141   8.789
 4645TIP3   OH235569   0.092   2.816   9.944
 4645TIP3    H135570   0.102   2.792  10.037
 4645TIP3    H235571   0.008   2.773   9.923
 4646TIP3   OH235572   0.772   2.796  10.185
 4646TIP3    H135573   0.739   2.761  10.101
 4646TIP3    H235574   0.863   2.762  10.187
 4647TIP3   OH235575   1.240   3.327   9.984
 4647TIP3    H135576   1.147   3.344   9.959
 4647TIP3    H235577   1.236   3.355  10.076
 4648TIP3   OH235578   1.801   2.542   8.826
 4648TIP3    H135579   1.751   2.514   8.747
 4648TIP3    H235580   1.815   2.636   8.799
 4649TIP3   OH235581   1.807   3.135  10.104
 4649TIP3    H135582   1.716   3.149  10.066
 4649TIP3    H235583   1.859   3.122  10.022
 4650TIP3   OH235584   1.635   3.427   8.861
 4650TIP3    H135585   1.598   3.344   8.895
 4650TIP3    H235586   1.665   3.406   8.770
 4651TIP3   OH235587   1.356   2.909   9.573
 4651TIP3    H135588   1.262   2.889   9.561
 4651TIP3    H235589   1.399   2.833   9.529
 4652TIP3   OH235590   0.606   3.342   9.184
 4652TIP3    H135591   0.657   3.422   9.163
 4652TIP3    H235592   0.519   3.365   9.150
 4653TIP3   OH235593   0.170   2.823   8.644
 4653TIP3    H135594   0.239   2.886   8.674
 4653TIP3    H235595   0.088   2.860   8.675
 4654TIP3   OH235596   0.749   3.108   9.135
 4654TIP3    H135597   0.717   3.200   9.143
 4654TIP3    H235598   0.677   3.059   9.179
 4655TIP3   OH235599   0.795   3.526   9.774
 4655TIP3    H135600   0.839   3.608   9.748
 4655TIP3    H235601   0.856   3.493   9.843
 4656TIP3   OH235602   0.617   3.607   9.087
 4656TIP3    H135603   0.521   3.621   9.102
 4656TIP3    H235604   0.653   3.691   9.122
 4657TIP3   OH235605   1.145   3.126   9.737
 4657TIP3    H135606   1.113   3.106   9.827
 4657TIP3    H235607   1.210   3.055   9.720
 4658TIP3   OH235608   1.375   3.230   8.650
 4658TIP3    H135609   1.406   3.185   8.732
 4658TIP3    H235610   1.280   3.214   8.657
 4659TIP3   OH235611   1.424   3.582   9.987
 4659TIP3    H135612   1.357   3.535   9.935
 4659TIP3    H235613   1.446   3.654   9.924
 4660TIP3   OH235614   1.827   3.674   8.672
 4660TIP3    H135615   1.895   3.738   8.645
 4660TIP3    H235616   1.754   3.733   8.700
 4661TIP3   OH235617   0.234   2.309   9.920
 4661TIP3    H135618   0.144   2.345   9.925
 4661TIP3    H235619   0.223   2.225   9.970
 4662TIP3   OH235620   1.458   3.097   8.873
 4662TIP3    H135621   1.434   3.016   8.922
 4662TIP3    H235622   1.553   3.104   8.892
 4663TIP3   OH235623   0.201   3.492   9.765
 4663TIP3    H135624   0.222   3.398   9.768
 4663TIP3    H235625   0.220   3.517   9.856
 4664TIP3   OH235626   0.667   3.301   8.738
 4664TIP3    H135627   0.697   3.241   8.808
 4664TIP3    H235628   0.681   3.388   8.778
 4665TIP3   OH235629   0.316   3.019   8.782
 4665TIP3    H135630   0.254   3.060   8.847
 4665TIP3    H235631   0.376   3.093   8.763
 4666TIP3   OH235632   1.109   2.288   9.821
 4666TIP3    H135633   1.179   2.294   9.886
 4666TIP3    H235634   1.068   2.201   9.841
 4667TIP3   OH235635   1.191   2.241   8.930
 4667TIP3    H135636   1.198   2.295   8.850
 4667TIP3    H235637   1.235   2.293   8.999
 4668TIP3   OH235638   0.947   3.460   8.810
 4668TIP3    H135639   0.870   3.517   8.821
 4668TIP3    H235640   1.006   3.511   8.751
 4669TIP3   OH235641   0.907   2.417   9.011
 4669TIP3    H135642   0.981   2.480   9.016
 4669TIP3    H235643   0.877   2.406   9.103
 4670TIP3   OH235644   0.957   2.521   9.931
 4670TIP3    H135645   0.967   2.579  10.009
 4670TIP3    H235646   1.025   2.453   9.938
 4671TIP3   OH235647   0.993   2.125   9.099
 4671TIP3    H135648   0.958   2.190   9.162
 4671TIP3    H235649   1.060   2.180   9.055
 4672TIP3   OH235650   0.683   3.566   8.812
 4672TIP3    H135651   0.707   3.650   8.767
 4672TIP3    H235652   0.662   3.599   8.903
 4673TIP3   OH235653   0.557   2.235   8.777
 4673TIP3    H135654   0.550   2.327   8.810
 4673TIP3    H235655   0.649   2.213   8.803
 4674TIP3   OH235656   1.574   2.306  10.021
 4674TIP3    H135657   1.486   2.347   9.996
 4674TIP3    H235658   1.613   2.308   9.931
 4675TIP3   OH235659   1.440   2.688   9.416
 4675TIP3    H135660   1.357   2.643   9.389
 4675TIP3    H235661   1.488   2.620   9.468
 4676TIP3   OH235662   0.380   3.292   8.666
 4676TIP3    H135663   0.448   3.337   8.716
 4676TIP3    H235664   0.431   3.228   8.613
 4677TIP3   OH235665   0.225   2.548   8.591
 4677TIP3    H135666   0.219   2.643   8.610
 4677TIP3    H235667   0.136   2.527   8.565
 4678TIP3   OH235668   1.545   3.614   9.583
 4678TIP3    H135669   1.537   3.682   9.514
 4678TIP3    H235670   1.641   3.619   9.600
 4679TIP3   OH235671   0.293   2.027   9.463
 4679TIP3    H135672   0.276   2.026   9.366
 4679TIP3    H235673   0.253   1.941   9.489
 4680TIP3   OH235674   0.194   3.419   9.081
 4680TIP3    H135675   0.106   3.459   9.075
 4680TIP3    H235676   0.238   3.467   9.009
 4681TIP3   OH235677   0.132   3.682  10.205
 4681TIP3    H135678   0.171   3.659  10.289
 4681TIP3    H235679   0.072   3.605  10.191
 4682TIP3   OH235680   1.029   3.532   8.565
 4682TIP3    H135681   0.947   3.482   8.557
 4682TIP3    H235682   1.082   3.488   8.499
 4683TIP3   OH235683   1.226   3.416  10.247
 4683TIP3    H135684   1.202   3.325  10.265
 4683TIP3    H235685   1.310   3.422  10.296
 4684TIP3   OH235686   1.449   3.501   8.526
 4684TIP3    H135687   1.476   3.423   8.577
 4684TIP3    H235688   1.528   3.526   8.476
 4685TIP3   OH235689   0.119   3.056  10.307
 4685TIP3    H135690   0.119   2.964  10.275
 4685TIP3    H235691   0.036   3.090  10.266
 4686TIP3   OH235692   0.546   3.104   8.524
 4686TIP3    H135693   0.551   3.020   8.571
 4686TIP3    H235694   0.599   3.077   8.447
 4687TIP3   OH235695   0.775   3.062  10.249
 4687TIP3    H135696   0.740   3.090  10.162
 4687TIP3    H235697   0.780   2.964  10.239
 4688TIP3   OH235698   1.343   3.046   9.984
 4688TIP3    H135699   1.423   3.103   9.978
 4688TIP3    H235700   1.274   3.113   9.990
 4689TIP3   OH235701   0.189   2.782  10.242
 4689TIP3    H135702   0.238   2.698  10.234
 4689TIP3    H235703   0.170   2.781  10.336
 4690TIP3   OH235704   0.659   2.899   8.752
 4690TIP3    H135705   0.608   2.845   8.814
 4690TIP3    H235706   0.689   2.830   8.688
 4691TIP3   OH235707   0.584   2.678   9.980
 4691TIP3    H135708   0.522   2.749  10.007
 4691TIP3    H235709   0.623   2.715   9.900
 4692TIP3   OH235710   0.765   2.722   8.571
 4692TIP3    H135711   0.755   2.701   8.478
 4692TIP3    H235712   0.863   2.728   8.583
 4693TIP3   OH235713   1.090   2.933  10.312
 4693TIP3    H135714   1.185   2.933  10.301
 4693TIP3    H235715   1.071   2.861  10.374
 4694TIP3   OH235716   1.683   2.965  17.022
 4694TIP3    H135717   1.673   2.915  16.939
 4694TIP3    H235718   1.705   3.055  16.995
 4695TIP3   OH235719   0.628   2.416  10.087
 4695TIP3    H135720   0.635   2.345  10.020
 4695TIP3    H235721   0.618   2.496  10.032
 4696TIP3   OH235722   0.665   2.253   9.841
 4696TIP3    H135723   0.716   2.300   9.771
 4696TIP3    H235724   0.575   2.246   9.801
 4697TIP3   OH235725   0.819   2.803   9.866
 4697TIP3    H135726   0.894   2.786   9.808
 4697TIP3    H235727   0.782   2.886   9.832
 4698TIP3   OH235728   1.256   2.576  10.365
 4698TIP3    H135729   1.285   2.486  10.358
 4698TIP3    H235730   1.341   2.626  10.364
 4699TIP3   OH235731   1.391   2.857  10.174
 4699TIP3    H135732   1.369   2.932  10.116
 4699TIP3    H235733   1.488   2.855  10.163
 4700TIP3   OH235734   0.460   2.547  10.270
 4700TIP3    H135735   0.390   2.479  10.264
 4700TIP3    H235736   0.532   2.504  10.220
 4701TIP3   OH235737   0.744   1.997   9.881
 4701TIP3    H135738   0.726   2.093   9.871
 4701TIP3    H235739   0.669   1.960   9.831
 4702TIP3   OH235740   0.873   2.427  10.245
 4702TIP3    H135741   0.834   2.410  10.333
 4702TIP3    H235742   0.794   2.412  10.190
 4703TIP3   OH235743   1.143   2.343  10.153
 4703TIP3    H135744   1.045   2.351  10.160
 4703TIP3    H235745   1.162   2.278  10.221
 4704TIP3   OH235746   1.306   2.207  10.346
 4704TIP3    H135747   1.288   2.108  10.347
 4704TIP3    H235748   1.272   2.233  10.433
 4705TIP3   OH235749   0.284   2.334  10.254
 4705TIP3    H135750   0.305   2.260  10.195
 4705TIP3    H235751   0.276   2.289  10.341
 4706TIP3   OH235752   0.762   1.934  10.151
 4706TIP3    H135753   0.830   1.864  10.150
 4706TIP3    H235754   0.752   1.951  10.056
 4707TIP3   OH235755   0.807   2.104  10.356
 4707TIP3    H135756   0.785   2.044  10.281
 4707TIP3    H235757   0.738   2.172  10.352
 4708TIP3   OH235758   0.748   3.784   8.666
 4708TIP3    H135759   0.844   3.799   8.686
 4708TIP3    H235760   0.729   3.859   8.610
 4709TIP3   OH235761   0.109   3.249   8.627
 4709TIP3    H135762   0.204   3.257   8.649
 4709TIP3    H235763   0.109   3.188   8.552
 4710TIP3   OH235764   7.350   3.795   9.114
 4710TIP3    H135765   7.264   3.770   9.076
 4710TIP3    H235766   7.364   3.728   9.185
 4711TIP3   OH235767   0.058   3.603   9.305
 4711TIP3    H135768   0.030   3.512   9.329
 4711TIP3    H235769   0.088   3.633   9.393
 4712TIP3   OH235770   1.820   3.676   9.605
 4712TIP3    H135771   1.820   3.697   9.700
 4712TIP3    H235772   1.886   3.738   9.572
 4713TIP3   OH235773   1.798   3.619   9.885
 4713TIP3    H135774   1.723   3.559   9.861
 4713TIP3    H235775   1.812   3.597   9.977
 4714TIP3   OH235776   1.753   3.042   8.907
 4714TIP3    H135777   1.838   3.083   8.930
 4714TIP3    H235778   1.749   2.972   8.976
 4715TIP3   OH235779   1.786   2.851   9.097
 4715TIP3    H135780   1.711   2.800   9.134
 4715TIP3    H235781   1.846   2.863   9.173
 4716TIP3   OH235782   1.763   3.119   9.596
 4716TIP3    H135783   1.844   3.082   9.557
 4716TIP3    H235784   1.776   3.214   9.577
 4717TIP3   OH235785   1.619   3.411   9.823
 4717TIP3    H135786   1.548   3.444   9.881
 4717TIP3    H235787   1.565   3.371   9.751
 4718TIP3   OH235788   1.817   2.833   8.733
 4718TIP3    H135789   1.757   2.868   8.665
 4718TIP3    H235790   1.809   2.902   8.801
 4719TIP3   OH235791   1.612   2.556   8.598
 4719TIP3    H135792   1.660   2.617   8.538
 4719TIP3    H235793   1.636   2.475   8.549
 4720TIP3   OH235794   1.568   2.696   9.153
 4720TIP3    H135795   1.554   2.601   9.153
 4720TIP3    H235796   1.538   2.721   9.243
 4721TIP3   OH235797   0.066   2.904   9.558
 4721TIP3    H135798   0.086   2.901   9.462
 4721TIP3    H235799   0.156   2.891   9.596
 4722TIP3   OH235800   1.656   2.894  10.111
 4722TIP3    H135801   1.714   2.819  10.139
 4722TIP3    H235802   1.714   2.971  10.127
 4723TIP3   OH235803   1.804   2.684  10.187
 4723TIP3    H135804   1.716   2.645  10.172
 4723TIP3    H235805   1.862   2.607  10.181
 4724TIP3   OH235806   1.577   2.302   8.507
 4724TIP3    H135807   1.641   2.251   8.560
 4724TIP3    H235808   1.492   2.256   8.512
 4725TIP3   OH235809   1.534   2.450   8.987
 4725TIP3    H135810   1.571   2.365   9.022
 4725TIP3    H235811   1.616   2.499   8.967
 4726TIP3   OH235812   1.600   2.511   9.544
 4726TIP3    H135813   1.696   2.533   9.542
 4726TIP3    H235814   1.581   2.524   9.638
 4727TIP3   OH235815   1.606   2.581   9.824
 4727TIP3    H135816   1.518   2.614   9.856
 4727TIP3    H235817   1.650   2.667   9.802
 4728TIP3   OH235818   0.052   2.430  10.175
 4728TIP3    H135819   0.141   2.404  10.201
 4728TIP3    H235820  -0.006   2.358  10.209
 4729TIP3   OH235821   1.597   2.186   9.003
 4729TIP3    H135822   1.625   2.145   9.088
 4729TIP3    H235823   1.544   2.114   8.962
 4730TIP3   OH235824   0.146   2.260   9.464
 4730TIP3    H135825   0.200   2.181   9.486
 4730TIP3    H235826   0.202   2.331   9.500
 4731TIP3   OH235827   0.052   2.617   9.605
 4731TIP3    H135828   0.060   2.582   9.514
 4731TIP3    H235829   0.030   2.707   9.581
 4732TIP3   OH235830   1.783   2.191   8.660
 4732TIP3    H135831   1.827   2.119   8.611
 4732TIP3    H235832   1.858   2.254   8.663
 4733TIP3   OH235833   7.399   2.191   8.946
 4733TIP3    H135834   7.304   2.211   8.952
 4733TIP3    H235835   7.428   2.256   8.878
 4734TIP3   OH235836   1.490   3.686   9.167
 4734TIP3    H135837   1.558   3.656   9.105
 4734TIP3    H235838   1.541   3.737   9.232
 4735TIP3   OH235839   7.370   2.053   9.813
 4735TIP3    H135840   7.296   2.033   9.871
 4735TIP3    H235841   7.319   2.110   9.752
 4736TIP3   OH235842   0.238   3.384  10.223
 4736TIP3    H135843   0.154   3.395  10.175
 4736TIP3    H235844   0.205   3.367  10.311
 4737TIP3   OH235845   0.526   3.479   9.847
 4737TIP3    H135846   0.488   3.563   9.817
 4737TIP3    H235847   0.618   3.488   9.815
 4738TIP3   OH235848   0.957   3.621  10.140
 4738TIP3    H135849   0.978   3.583  10.226
 4738TIP3    H235850   1.045   3.648  10.107
 4739TIP3   OH235851   1.186   3.744  10.072
 4739TIP3    H135852   1.260   3.690  10.039
 4739TIP3    H235853   1.229   3.792  10.143
 4740TIP3   OH235854   1.681   2.006   9.981
 4740TIP3    H135855   1.605   2.036   9.930
 4740TIP3    H235856   1.708   1.928   9.929
 4741TIP3   OH235857   0.270   3.804   9.847
 4741TIP3    H135858   0.194   3.849   9.805
 4741TIP3    H235859   0.232   3.781   9.933
 4742TIP3   OH235860   0.515   3.760   9.749
 4742TIP3    H135861   0.427   3.775   9.792
 4742TIP3    H235862   0.509   3.820   9.673
 4743TIP3   OH235863   0.985   3.750   9.669
 4743TIP3    H135864   0.938   3.806   9.604
 4743TIP3    H235865   0.998   3.813   9.742
 4744TIP3   OH235866   1.213   3.632   9.775
 4744TIP3    H135867   1.129   3.659   9.735
 4744TIP3    H235868   1.263   3.715   9.764
 4745TIP3   OH235869   1.471   3.787   9.795
 4745TIP3    H135870   1.469   3.884   9.774
 4745TIP3    H235871   1.494   3.752   9.707
 4746TIP3   OH235872   0.212   3.666   9.536
 4746TIP3    H135873   0.207   3.623   9.624
 4746TIP3    H235874   0.293   3.627   9.499
 4747TIP3   OH235875   0.422   3.536   9.402
 4747TIP3    H135876   0.403   3.443   9.428
 4747TIP3    H235877   0.506   3.552   9.449
 4748TIP3   OH235878   0.682   3.586   9.492
 4748TIP3    H135879   0.697   3.493   9.465
 4748TIP3    H235880   0.686   3.580   9.588
 4749TIP3   OH235881   1.027   2.151   9.405
 4749TIP3    H135882   0.958   2.087   9.433
 4749TIP3    H235883   1.081   2.097   9.347
 4750TIP3   OH235884   1.547   1.950   9.407
 4750TIP3    H135885   1.600   2.020   9.359
 4750TIP3    H235886   1.455   1.987   9.391
 4751TIP3   OH235887   1.708   2.078   9.241
 4751TIP3    H135888   1.778   2.025   9.195
 4751TIP3    H235889   1.757   2.164   9.251
 4752TIP3   OH235890   0.262   2.011   9.192
 4752TIP3    H135891   0.186   1.993   9.133
 4752TIP3    H235892   0.312   1.928   9.181
 4753TIP3   OH235893   0.186   2.002   8.781
 4753TIP3    H135894   0.199   2.056   8.702
 4753TIP3    H235895   0.100   2.032   8.816
 4754TIP3   OH235896   0.710   2.006   9.169
 4754TIP3    H135897   0.800   2.041   9.161
 4754TIP3    H235898   0.707   1.984   9.262
 4755TIP3   OH235899   1.288   2.004   9.332
 4755TIP3    H135900   1.274   2.019   9.237
 4755TIP3    H235901   1.242   1.917   9.344
 4756TIP3   OH235902   1.408   2.014   8.895
 4756TIP3    H135903   1.328   2.066   8.883
 4756TIP3    H235904   1.369   1.926   8.920
 4757TIP3   OH235905   0.152   3.592   8.851
 4757TIP3    H135906   0.068   3.582   8.801
 4757TIP3    H235907   0.136   3.683   8.879
 4758TIP3   OH235908   0.322   2.183   8.610
 4758TIP3    H135909   0.375   2.118   8.562
 4758TIP3    H235910   0.385   2.214   8.676
 4759TIP3   OH235911   0.825   2.207   8.854
 4759TIP3    H135912   0.853   2.150   8.927
 4759TIP3    H235913   0.834   2.294   8.900
 4760TIP3   OH235914   1.013   3.742   8.700
 4760TIP3    H135915   1.111   3.744   8.686
 4760TIP3    H235916   1.001   3.670   8.635
 4761TIP3   OH235917   1.691   3.664   8.968
 4761TIP3    H135918   1.668   3.588   8.911
 4761TIP3    H235919   1.679   3.739   8.906
 4762TIP3   OH235920   0.247   2.072  10.141
 4762TIP3    H135921   0.212   1.987  10.171
 4762TIP3    H235922   0.340   2.064  10.173
 4763TIP3   OH235923   0.452   2.002  10.292
 4763TIP3    H135924   0.545   1.976  10.273
 4763TIP3    H235925   0.425   1.923  10.338
 4764TIP3   OH235926   0.323   3.680   8.560
 4764TIP3    H135927   0.281   3.713   8.642
 4764TIP3    H235928   0.390   3.627   8.595
 4765TIP3   OH235929   1.300   1.944  10.314
 4765TIP3    H135930   1.296   1.887  10.393
 4765TIP3    H235931   1.386   1.923  10.275
 4766TIP3   OH235932   1.618   3.536  10.173
 4766TIP3    H135933   1.531   3.525  10.130
 4766TIP3    H235934   1.603   3.629  10.204
 4767TIP3   OH235935   3.058   2.928   9.176
 4767TIP3    H135936   3.056   3.026   9.172
 4767TIP3    H235937   2.985   2.904   9.116
 4768TIP3   OH235938   2.943   2.852   9.526
 4768TIP3    H135939   2.942   2.788   9.598
 4768TIP3    H235940   2.908   2.801   9.451
 4769TIP3   OH235941   2.178   2.820   9.681
 4769TIP3    H135942   2.187   2.751   9.750
 4769TIP3    H235943   2.253   2.877   9.703
 4770TIP3   OH235944   3.312   3.147   9.354
 4770TIP3    H135945   3.271   3.076   9.404
 4770TIP3    H235946   3.314   3.218   9.421
 4771TIP3   OH235947   2.270   3.265   9.535
 4771TIP3    H135948   2.240   3.179   9.499
 4771TIP3    H235949   2.366   3.247   9.534
 4772TIP3   OH235950   1.935   2.621   9.081
 4772TIP3    H135951   1.892   2.708   9.074
 4772TIP3    H235952   1.880   2.567   9.022
 4773TIP3   OH235953   2.007   2.843   9.295
 4773TIP3    H135954   2.034   2.761   9.340
 4773TIP3    H235955   2.076   2.854   9.228
 4774TIP3   OH235956   3.024   3.663   9.378
 4774TIP3    H135957   3.089   3.595   9.349
 4774TIP3    H235958   3.002   3.629   9.465
 4775TIP3   OH235959   2.780   3.093   9.574
 4775TIP3    H135960   2.814   3.031   9.508
 4775TIP3    H235961   2.862   3.109   9.625
 4776TIP3   OH235962   3.640   2.259   9.645
 4776TIP3    H135963   3.658   2.317   9.722
 4776TIP3    H235964   3.698   2.301   9.579
 4777TIP3   OH235965   3.098   2.539   9.605
 4777TIP3    H135966   3.115   2.444   9.605
 4777TIP3    H235967   3.087   2.553   9.509
 4778TIP3   OH235968   2.409   2.348   9.326
 4778TIP3    H135969   2.420   2.432   9.276
 4778TIP3    H235970   2.369   2.291   9.257
 4779TIP3   OH235971   3.183   2.356   9.163
 4779TIP3    H135972   3.248   2.325   9.230
 4779TIP3    H235973   3.239   2.414   9.109
 4780TIP3   OH235974   2.071   2.589   9.399
 4780TIP3    H135975   2.138   2.535   9.445
 4780TIP3    H235976   2.082   2.558   9.308
 4781TIP3   OH235977   2.587   2.745   9.332
 4781TIP3    H135978   2.654   2.687   9.371
 4781TIP3    H235979   2.536   2.680   9.280
 4782TIP3   OH235980   3.684   2.398   9.873
 4782TIP3    H135981   3.625   2.476   9.862
 4782TIP3    H235982   3.688   2.391   9.969
 4783TIP3   OH235983   2.301   2.238   9.730
 4783TIP3    H135984   2.272   2.295   9.655
 4783TIP3    H235985   2.233   2.262   9.798
 4784TIP3   OH235986   3.028   3.185   9.084
 4784TIP3    H135987   3.001   3.159   8.995
 4784TIP3    H235988   2.998   3.279   9.089
 4785TIP3   OH235989   2.551   3.003   9.752
 4785TIP3    H135990   2.481   3.067   9.777
 4785TIP3    H235991   2.622   3.062   9.724
 4786TIP3   OH235992   3.364   2.291   9.363
 4786TIP3    H135993   3.342   2.214   9.416
 4786TIP3    H235994   3.431   2.334   9.418
 4787TIP3   OH235995   2.257   2.423   9.534
 4787TIP3    H135996   2.320   2.493   9.565
 4787TIP3    H235997   2.309   2.383   9.460
 4788TIP3   OH235998   2.395   3.203   9.839
 4788TIP3    H135999   2.392   3.293   9.801
 4788TIP3    H236000   2.306   3.194   9.880
 4789TIP3   OH236001   2.002   3.164   8.914
 4789TIP3    H136002   1.982   3.199   8.825
 4789TIP3    H236003   2.011   3.246   8.967
 4790TIP3   OH236004   3.365   3.331   9.591
 4790TIP3    H136005   3.268   3.343   9.603
 4790TIP3    H236006   3.392   3.423   9.571
 4791TIP3   OH236007   3.397   2.159   9.729
 4791TIP3    H136008   3.325   2.223   9.720
 4791TIP3    H236009   3.469   2.201   9.678
 4792TIP3   OH236010   2.694   1.972   9.476
 4792TIP3    H136011   2.680   1.876   9.469
 4792TIP3    H236012   2.606   2.002   9.507
 4793TIP3   OH236013   3.191   3.510   9.250
 4793TIP3    H136014   3.233   3.438   9.199
 4793TIP3    H236015   3.236   3.588   9.212
 4794TIP3   OH236016   3.312   3.302   9.101
 4794TIP3    H136017   3.283   3.233   9.039
 4794TIP3    H236018   3.315   3.253   9.185
 4795TIP3   OH236019   3.473   3.162   9.951
 4795TIP3    H136020   3.488   3.097   9.879
 4795TIP3    H236021   3.494   3.246   9.906
 4796TIP3   OH236022   2.922   2.851   8.926
 4796TIP3    H136023   2.854   2.910   8.886
 4796TIP3    H236024   2.994   2.860   8.860
 4797TIP3   OH236025   2.927   2.705   8.636
 4797TIP3    H136026   3.001   2.705   8.699
 4797TIP3    H236027   2.960   2.641   8.572
 4798TIP3   OH236028   3.662   2.793   9.755
 4798TIP3    H136029   3.596   2.865   9.758
 4798TIP3    H236030   3.712   2.817   9.675
 4799TIP3   OH236031   3.268   2.872   9.021
 4799TIP3    H136032   3.193   2.896   9.082
 4799TIP3    H236033   3.316   2.805   9.073
 4800TIP3   OH236034   3.260   2.688   9.934
 4800TIP3    H136035   3.262   2.771   9.984
 4800TIP3    H236036   3.200   2.717   9.862
 4801TIP3   OH236037   2.429   2.937   9.211
 4801TIP3    H136038   2.398   2.898   9.126
 4801TIP3    H236039   2.491   2.868   9.245
 4802TIP3   OH236040   2.562   3.275   9.479
 4802TIP3    H136041   2.562   3.223   9.397
 4802TIP3    H236042   2.641   3.240   9.524
 4803TIP3   OH236043   2.462   2.812   9.578
 4803TIP3    H136044   2.517   2.822   9.497
 4803TIP3    H236045   2.502   2.879   9.638
 4804TIP3   OH236046   3.105   3.370   9.648
 4804TIP3    H136047   3.075   3.434   9.714
 4804TIP3    H236048   3.079   3.285   9.690
 4805TIP3   OH236049   2.557   3.256  10.047
 4805TIP3    H136050   2.517   3.330  10.096
 4805TIP3    H236051   2.491   3.235   9.976
 4806TIP3   OH236052   3.157   2.790   8.787
 4806TIP3    H136053   3.211   2.811   8.867
 4806TIP3    H236054   3.197   2.845   8.717
 4807TIP3   OH236055   2.252   2.871   9.961
 4807TIP3    H136056   2.259   2.935  10.034
 4807TIP3    H236057   2.158   2.880   9.941
 4808TIP3   OH236058   2.926   3.464   9.135
 4808TIP3    H136059   2.970   3.495   9.214
 4808TIP3    H236060   2.872   3.539   9.108
 4809TIP3   OH236061   2.381   3.459  10.120
 4809TIP3    H136062   2.378   3.448  10.024
 4809TIP3    H236063   2.290   3.444  10.150
 4810TIP3   OH236064   3.528   1.965   8.776
 4810TIP3    H136065   3.433   1.976   8.800
 4810TIP3    H236066   3.549   2.050   8.736
 4811TIP3   OH236067   2.325   2.840   8.973
 4811TIP3    H136068   2.298   2.917   8.919
 4811TIP3    H236069   2.261   2.773   8.949
 4812TIP3   OH236070   3.638   3.398   8.613
 4812TIP3    H136071   3.651   3.494   8.625
 4812TIP3    H236072   3.731   3.370   8.606
 4813TIP3   OH236073   1.938   3.084   9.861
 4813TIP3    H136074   1.890   3.074   9.776
 4813TIP3    H236075   1.944   2.989   9.884
 4814TIP3   OH236076   1.911   3.358   9.545
 4814TIP3    H136077   2.007   3.346   9.536
 4814TIP3    H236078   1.902   3.443   9.589
 4815TIP3   OH236079   3.734   3.426  10.108
 4815TIP3    H136080   3.723   3.329  10.108
 4815TIP3    H236081   3.648   3.451  10.150
 4816TIP3   OH236082   2.832   3.382   9.994
 4816TIP3    H136083   2.837   3.465  10.048
 4816TIP3    H236084   2.746   3.345  10.020
 4817TIP3   OH236085   2.874   3.755   8.974
 4817TIP3    H136086   2.867   3.750   8.877
 4817TIP3    H236087   2.878   3.851   8.991
 4818TIP3   OH236088   2.239   3.643   9.158
 4818TIP3    H136089   2.254   3.602   9.245
 4818TIP3    H236090   2.154   3.602   9.133
 4819TIP3   OH236091   3.177   3.675   8.670
 4819TIP3    H136092   3.225   3.600   8.630
 4819TIP3    H236093   3.185   3.652   8.765
 4820TIP3   OH236094   3.149   3.670   8.951
 4820TIP3    H136095   3.053   3.677   8.970
 4820TIP3    H236096   3.174   3.596   9.008
 4821TIP3   OH236097   3.451   2.572  10.155
 4821TIP3    H136098   3.403   2.619  10.086
 4821TIP3    H236099   3.450   2.481  10.124
 4822TIP3   OH236100   2.156   3.226   9.963
 4822TIP3    H136101   2.187   3.176  10.043
 4822TIP3    H236102   2.079   3.171   9.934
 4823TIP3   OH236103   2.432   2.062   9.551
 4823TIP3    H136104   2.342   2.049   9.515
 4823TIP3    H236105   2.419   2.145   9.600
 4824TIP3   OH236106   2.897   2.029   9.889
 4824TIP3    H136107   2.935   1.985   9.967
 4824TIP3    H236108   2.799   2.017   9.901
 4825TIP3   OH236109   3.225   2.414   9.977
 4825TIP3    H136110   3.169   2.393  10.055
 4825TIP3    H236111   3.207   2.507   9.955
 4826TIP3   OH236112   3.308   2.899   8.572
 4826TIP3    H136113   3.309   2.883   8.476
 4826TIP3    H236114   3.395   2.943   8.582
 4827TIP3   OH236115   2.861   2.286   8.623
 4827TIP3    H136116   2.829   2.281   8.714
 4827TIP3    H236117   2.833   2.199   8.593
 4828TIP3   OH236118   2.443   2.560   9.678
 4828TIP3    H136119   2.369   2.559   9.741
 4828TIP3    H236120   2.438   2.650   9.640
 4829TIP3   OH236121   2.438   2.570   9.164
 4829TIP3    H136122   2.344   2.546   9.150
 4829TIP3    H236123   2.476   2.542   9.078
 4830TIP3   OH236124   2.991   2.620   9.037
 4830TIP3    H136125   2.951   2.704   9.005
 4830TIP3    H236126   3.060   2.605   8.970
 4831TIP3   OH236127   2.891   2.643  10.180
 4831TIP3    H136128   2.840   2.564  10.210
 4831TIP3    H236129   2.977   2.633  10.220
 4832TIP3   OH236130   3.094   2.570   9.325
 4832TIP3    H136131   3.065   2.627   9.252
 4832TIP3    H236132   3.103   2.485   9.278
 4833TIP3   OH236133   2.204   2.584   9.845
 4833TIP3    H136134   2.214   2.623   9.934
 4833TIP3    H236135   2.161   2.500   9.866
 4834TIP3   OH236136   2.559   2.346   8.563
 4834TIP3    H136137   2.504   2.284   8.615
 4834TIP3    H236138   2.499   2.385   8.500
 4835TIP3   OH236139   1.870   2.290   9.246
 4835TIP3    H136140   1.939   2.293   9.314
 4835TIP3    H236141   1.918   2.259   9.167
 4836TIP3   OH236142   1.997   2.367   8.779
 4836TIP3    H136143   2.049   2.425   8.719
 4836TIP3    H236144   1.932   2.433   8.811
 4837TIP3   OH236145   3.014   2.728   9.781
 4837TIP3    H136146   3.052   2.660   9.722
 4837TIP3    H236147   2.966   2.675   9.847
 4838TIP3   OH236148   2.694   2.327   9.265
 4838TIP3    H136149   2.600   2.327   9.293
 4838TIP3    H236150   2.742   2.309   9.347
 4839TIP3   OH236151   2.174   2.481   9.151
 4839TIP3    H136152   2.086   2.497   9.111
 4839TIP3    H236153   2.203   2.398   9.110
 4840TIP3   OH236154   2.538   2.488   8.914
 4840TIP3    H136155   2.634   2.498   8.930
 4840TIP3    H236156   2.516   2.553   8.845
 4841TIP3   OH236157   3.134   2.250   9.588
 4841TIP3    H136158   3.066   2.255   9.658
 4841TIP3    H236159   3.083   2.224   9.510
 4842TIP3   OH236160   2.409   2.603   8.674
 4842TIP3    H136161   2.353   2.569   8.601
 4842TIP3    H236162   2.491   2.626   8.627
 4843TIP3   OH236163   3.455   3.813  10.221
 4843TIP3    H136164   3.482   3.851  10.135
 4843TIP3    H236165   3.525   3.845  10.278
 4844TIP3   OH236166   2.220   3.069  10.175
 4844TIP3    H136167   2.294   3.083  10.236
 4844TIP3    H236168   2.146   3.067  10.238
 4845TIP3   OH236169   2.822   2.602   9.453
 4845TIP3    H136170   2.882   2.549   9.400
 4845TIP3    H236171   2.807   2.547   9.531
 4846TIP3   OH236172   2.323   2.216   9.098
 4846TIP3    H136173   2.292   2.124   9.096
 4846TIP3    H236174   2.401   2.210   9.042
 4847TIP3   OH236175   2.686   2.435   9.695
 4847TIP3    H136176   2.603   2.487   9.703
 4847TIP3    H236177   2.741   2.470   9.767
 4848TIP3   OH236178   2.745   3.054   8.867
 4848TIP3    H136179   2.665   3.010   8.833
 4848TIP3    H236180   2.722   3.068   8.961
 4849TIP3   OH236181   3.464   2.978   9.745
 4849TIP3    H136182   3.520   3.026   9.681
 4849TIP3    H236183   3.378   2.982   9.698
 4850TIP3   OH236184   3.132   2.336   8.683
 4850TIP3    H136185   3.037   2.352   8.665
 4850TIP3    H236186   3.162   2.424   8.714
 4851TIP3   OH236187   2.895   3.084   9.987
 4851TIP3    H136188   2.859   3.041  10.066
 4851TIP3    H236189   2.868   3.175   9.999
 4852TIP3   OH236190   3.202   2.531   8.850
 4852TIP3    H136191   3.291   2.517   8.886
 4852TIP3    H236192   3.211   2.612   8.797
 4853TIP3   OH236193   2.256   2.997   9.444
 4853TIP3    H136194   2.324   2.988   9.375
 4853TIP3    H236195   2.261   2.911   9.490
 4854TIP3   OH236196   2.954   3.203   8.772
 4854TIP3    H136197   2.917   3.288   8.804
 4854TIP3    H236198   2.881   3.141   8.789
 4855TIP3   OH236199   1.954   2.837   9.968
 4855TIP3    H136200   1.971   2.793  10.054
 4855TIP3    H236201   1.891   2.776   9.926
 4856TIP3   OH236202   2.656   2.791  10.187
 4856TIP3    H136203   2.624   2.763  10.100
 4856TIP3    H236204   2.750   2.763  10.184
 4857TIP3   OH236205   3.125   3.326   9.983
 4857TIP3    H136206   3.032   3.345   9.961
 4857TIP3    H236207   3.122   3.356  10.076
 4858TIP3   OH236208   3.691   2.544   8.825
 4858TIP3    H136209   3.635   2.513   8.751
 4858TIP3    H236210   3.699   2.637   8.797
 4859TIP3   OH236211   3.690   3.130  10.103
 4859TIP3    H136212   3.600   3.152  10.067
 4859TIP3    H236213   3.745   3.125  10.021
 4860TIP3   OH236214   3.521   3.427   8.861
 4860TIP3    H136215   3.483   3.344   8.894
 4860TIP3    H236216   3.551   3.406   8.770
 4861TIP3   OH236217   3.241   2.909   9.573
 4861TIP3    H136218   3.147   2.888   9.562
 4861TIP3    H236219   3.284   2.833   9.529
 4862TIP3   OH236220   2.493   3.342   9.183
 4862TIP3    H136221   2.543   3.423   9.162
 4862TIP3    H236222   2.405   3.365   9.150
 4863TIP3   OH236223   2.066   2.828   8.636
 4863TIP3    H136224   2.128   2.890   8.678
 4863TIP3    H236225   1.979   2.855   8.670
 4864TIP3   OH236226   2.635   3.108   9.135
 4864TIP3    H136227   2.603   3.200   9.143
 4864TIP3    H236228   2.563   3.059   9.179
 4865TIP3   OH236229   2.679   3.527   9.777
 4865TIP3    H136230   2.725   3.607   9.747
 4865TIP3    H236231   2.741   3.493   9.843
 4866TIP3   OH236232   2.503   3.608   9.086
 4866TIP3    H136233   2.406   3.622   9.102
 4866TIP3    H236234   2.539   3.691   9.122
 4867TIP3   OH236235   3.030   3.126   9.736
 4867TIP3    H136236   3.000   3.108   9.827
 4867TIP3    H236237   3.096   3.056   9.720
 4868TIP3   OH236238   3.261   3.230   8.650
 4868TIP3    H136239   3.291   3.185   8.732
 4868TIP3    H236240   3.165   3.214   8.657
 4869TIP3   OH236241   3.314   3.583   9.986
 4869TIP3    H136242   3.244   3.535   9.939
 4869TIP3    H236243   3.332   3.655   9.922
 4870TIP3   OH236244   3.713   3.672   8.672
 4870TIP3    H136245   3.782   3.736   8.646
 4870TIP3    H236246   3.641   3.732   8.702
 4871TIP3   OH236247   2.121   2.311   9.926
 4871TIP3    H136248   2.029   2.345   9.921
 4871TIP3    H236249   2.110   2.225   9.969
 4872TIP3   OH236250   3.344   3.097   8.872
 4872TIP3    H136251   3.319   3.016   8.922
 4872TIP3    H236252   3.439   3.103   8.892
 4873TIP3   OH236253   2.080   3.484   9.763
 4873TIP3    H136254   2.118   3.395   9.757
 4873TIP3    H236255   2.134   3.532   9.826
 4874TIP3   OH236256   2.555   3.298   8.740
 4874TIP3    H136257   2.582   3.241   8.813
 4874TIP3    H236258   2.565   3.389   8.775
 4875TIP3   OH236259   2.204   3.020   8.784
 4875TIP3    H136260   2.139   3.061   8.845
 4875TIP3    H236261   2.262   3.095   8.763
 4876TIP3   OH236262   2.992   2.288   9.821
 4876TIP3    H136263   3.067   2.292   9.881
 4876TIP3    H236264   2.955   2.200   9.840
 4877TIP3   OH236265   3.066   2.246   8.932
 4877TIP3    H136266   3.091   2.291   8.849
 4877TIP3    H236267   3.125   2.289   8.995
 4878TIP3   OH236268   2.836   3.462   8.814
 4878TIP3    H136269   2.754   3.514   8.819
 4878TIP3    H236270   2.890   3.511   8.750
 4879TIP3   OH236271   2.789   2.419   9.012
 4879TIP3    H136272   2.868   2.478   9.015
 4879TIP3    H236273   2.763   2.407   9.105
 4880TIP3   OH236274   2.846   2.522   9.927
 4880TIP3    H136275   2.852   2.578  10.006
 4880TIP3    H236276   2.913   2.453   9.939
 4881TIP3   OH236277   2.875   2.125   9.099
 4881TIP3    H136278   2.843   2.190   9.163
 4881TIP3    H236279   2.945   2.180   9.055
 4882TIP3   OH236280   2.574   3.566   8.816
 4882TIP3    H136281   2.591   3.648   8.765
 4882TIP3    H236282   2.548   3.600   8.904
 4883TIP3   OH236283   2.441   2.235   8.777
 4883TIP3    H136284   2.435   2.326   8.810
 4883TIP3    H236285   2.533   2.212   8.802
 4884TIP3   OH236286   3.462   2.306  10.016
 4884TIP3    H136287   3.371   2.340  10.002
 4884TIP3    H236288   3.494   2.307   9.924
 4885TIP3   OH236289   3.325   2.688   9.416
 4885TIP3    H136290   3.243   2.643   9.389
 4885TIP3    H236291   3.373   2.619   9.468
 4886TIP3   OH236292   2.265   3.281   8.676
 4886TIP3    H136293   2.332   3.342   8.709
 4886TIP3    H236294   2.317   3.233   8.608
 4887TIP3   OH236295   2.104   2.548   8.596
 4887TIP3    H136296   2.102   2.645   8.607
 4887TIP3    H236297   2.017   2.529   8.559
 4888TIP3   OH236298   3.431   3.614   9.584
 4888TIP3    H136299   3.423   3.682   9.514
 4888TIP3    H236300   3.528   3.619   9.602
 4889TIP3   OH236301   2.178   2.026   9.466
 4889TIP3    H136302   2.163   2.028   9.368
 4889TIP3    H236303   2.140   1.939   9.489
 4890TIP3   OH236304   2.076   3.419   9.079
 4890TIP3    H136305   1.990   3.463   9.074
 4890TIP3    H236306   2.123   3.464   9.008
 4891TIP3   OH236307   2.008   3.674  10.197
 4891TIP3    H136308   2.056   3.665  10.282
 4891TIP3    H236309   1.949   3.598  10.201
 4892TIP3   OH236310   2.461   3.571  10.365
 4892TIP3    H136311   2.540   3.528  10.400
 4892TIP3    H236312   2.464   3.548  10.271
 4893TIP3   OH236313   2.916   3.531   8.568
 4893TIP3    H136314   2.831   3.484   8.557
 4893TIP3    H236315   2.966   3.487   8.498
 4894TIP3   OH236316   3.116   3.411  10.240
 4894TIP3    H136317   3.085   3.323  10.270
 4894TIP3    H236318   3.192   3.429  10.299
 4895TIP3   OH236319   3.336   3.504   8.528
 4895TIP3    H136320   3.360   3.423   8.576
 4895TIP3    H236321   3.415   3.523   8.474
 4896TIP3   OH236322   1.987   3.061  10.303
 4896TIP3    H136323   2.004   2.968  10.275
 4896TIP3    H236324   1.911   3.086  10.247
 4897TIP3   OH236325   2.432   3.103   8.523
 4897TIP3    H136326   2.437   3.019   8.570
 4897TIP3    H236327   2.486   3.080   8.445
 4898TIP3   OH236328   2.668   3.060  10.244
 4898TIP3    H136329   2.623   3.091  10.164
 4898TIP3    H236330   2.663   2.962  10.235
 4899TIP3   OH236331   3.228   3.046   9.984
 4899TIP3    H136332   3.307   3.103   9.979
 4899TIP3    H236333   3.159   3.113   9.988
 4900TIP3   OH236334   2.074   2.785  10.244
 4900TIP3    H136335   2.123   2.703  10.232
 4900TIP3    H236336   2.054   2.783  10.338
 4901TIP3   OH236337   2.544   2.900   8.751
 4901TIP3    H136338   2.493   2.846   8.814
 4901TIP3    H236339   2.575   2.831   8.688
 4902TIP3   OH236340   2.469   2.676   9.981
 4902TIP3    H136341   2.411   2.748  10.009
 4902TIP3    H236342   2.509   2.714   9.901
 4903TIP3   OH236343   2.652   2.722   8.571
 4903TIP3    H136344   2.641   2.701   8.477
 4903TIP3    H236345   2.749   2.728   8.582
 4904TIP3   OH236346   2.979   2.937  10.319
 4904TIP3    H136347   3.075   2.932  10.306
 4904TIP3    H236348   2.958   2.861  10.372
 4905TIP3   OH236349   3.568   2.965  17.022
 4905TIP3    H136350   3.559   2.915  16.939
 4905TIP3    H236351   3.591   3.055  16.995
 4906TIP3   OH236352   2.517   2.416  10.088
 4906TIP3    H136353   2.520   2.346  10.021
 4906TIP3    H236354   2.503   2.497  10.033
 4907TIP3   OH236355   2.551   2.253   9.843
 4907TIP3    H136356   2.602   2.299   9.772
 4907TIP3    H236357   2.461   2.245   9.804
 4908TIP3   OH236358   2.705   2.802   9.867
 4908TIP3    H136359   2.779   2.786   9.809
 4908TIP3    H236360   2.668   2.885   9.833
 4909TIP3   OH236361   3.277   2.856  10.172
 4909TIP3    H136362   3.255   2.932  10.115
 4909TIP3    H236363   3.374   2.854  10.160
 4910TIP3   OH236364   2.357   2.540  10.280
 4910TIP3    H136365   2.280   2.484  10.262
 4910TIP3    H236366   2.421   2.507  10.215
 4911TIP3   OH236367   2.629   1.997   9.880
 4911TIP3    H136368   2.611   2.094   9.870
 4911TIP3    H236369   2.555   1.960   9.830
 4912TIP3   OH236370   2.759   2.422  10.244
 4912TIP3    H136371   2.716   2.414  10.330
 4912TIP3    H236372   2.679   2.412  10.186
 4913TIP3   OH236373   3.028   2.350  10.158
 4913TIP3    H136374   2.931   2.347  10.161
 4913TIP3    H236375   3.057   2.276  10.215
 4914TIP3   OH236376   3.176   2.209  10.346
 4914TIP3    H136377   3.184   2.111  10.341
 4914TIP3    H236378   3.165   2.225  10.439
 4915TIP3   OH236379   2.165   2.332  10.252
 4915TIP3    H136380   2.191   2.261  10.191
 4915TIP3    H236381   2.160   2.288  10.337
 4916TIP3   OH236382   2.653   1.935  10.155
 4916TIP3    H136383   2.720   1.864  10.148
 4916TIP3    H236384   2.639   1.953  10.060
 4917TIP3   OH236385   2.633   3.789   8.673
 4917TIP3    H136386   2.730   3.798   8.686
 4917TIP3    H236387   2.617   3.856   8.607
 4918TIP3   OH236388   1.990   3.247   8.627
 4918TIP3    H136389   2.086   3.259   8.646
 4918TIP3    H236390   1.994   3.190   8.549
 4919TIP3   OH236391   1.867   3.784   9.124
 4919TIP3    H136392   1.795   3.736   9.077
 4919TIP3    H236393   1.895   3.718   9.190
 4920TIP3   OH236394   1.950   3.598   9.310
 4920TIP3    H136395   1.913   3.511   9.332
 4920TIP3    H236396   1.973   3.632   9.398
 4921TIP3   OH236397   3.703   3.678   9.603
 4921TIP3    H136398   3.706   3.694   9.699
 4921TIP3    H236399   3.774   3.737   9.573
 4922TIP3   OH236400   3.660   3.638   9.897
 4922TIP3    H136401   3.614   3.560   9.859
 4922TIP3    H236402   3.709   3.593   9.968
 4923TIP3   OH236403   3.507   3.215  10.364
 4923TIP3    H136404   3.419   3.203  10.404
 4923TIP3    H236405   3.540   3.293  10.408
 4924TIP3   OH236406   3.638   3.042   8.907
 4924TIP3    H136407   3.723   3.084   8.930
 4924TIP3    H236408   3.635   2.972   8.976
 4925TIP3   OH236409   3.672   2.851   9.097
 4925TIP3    H136410   3.597   2.800   9.134
 4925TIP3    H236411   3.732   2.863   9.173
 4926TIP3   OH236412   3.648   3.120   9.595
 4926TIP3    H136413   3.729   3.082   9.557
 4926TIP3    H236414   3.663   3.215   9.579
 4927TIP3   OH236415   3.504   3.410   9.822
 4927TIP3    H136416   3.435   3.445   9.881
 4927TIP3    H236417   3.449   3.370   9.751
 4928TIP3   OH236418   3.702   2.832   8.734
 4928TIP3    H136419   3.642   2.868   8.665
 4928TIP3    H236420   3.695   2.902   8.801
 4929TIP3   OH236421   3.500   2.558   8.597
 4929TIP3    H136422   3.546   2.617   8.535
 4929TIP3    H236423   3.519   2.474   8.552
 4930TIP3   OH236424   3.455   2.698   9.154
 4930TIP3    H136425   3.440   2.602   9.149
 4930TIP3    H236426   3.422   2.719   9.244
 4931TIP3   OH236427   1.955   2.906   9.560
 4931TIP3    H136428   1.973   2.898   9.464
 4931TIP3    H236429   2.045   2.888   9.595
 4932TIP3   OH236430   3.539   2.892  10.120
 4932TIP3    H136431   3.602   2.819  10.136
 4932TIP3    H236432   3.598   2.970  10.123
 4933TIP3   OH236433   3.690   2.683  10.185
 4933TIP3    H136434   3.602   2.641  10.172
 4933TIP3    H236435   3.747   2.604  10.181
 4934TIP3   OH236436   3.465   2.297   8.497
 4934TIP3    H136437   3.523   2.255   8.565
 4934TIP3    H236438   3.376   2.266   8.519
 4935TIP3   OH236439   3.421   2.456   9.002
 4935TIP3    H136440   3.452   2.363   9.012
 4935TIP3    H236441   3.499   2.496   8.961
 4936TIP3   OH236442   3.485   2.510   9.544
 4936TIP3    H136443   3.581   2.533   9.542
 4936TIP3    H236444   3.467   2.524   9.638
 4937TIP3   OH236445   3.492   2.583   9.822
 4937TIP3    H136446   3.404   2.612   9.853
 4937TIP3    H236447   3.536   2.668   9.800
 4938TIP3   OH236448   1.916   2.426  10.166
 4938TIP3    H136449   2.010   2.417  10.191
 4938TIP3    H236450   1.873   2.353  10.210
 4939TIP3   OH236451   3.718   1.987  10.355
 4939TIP3    H136452   3.755   1.920  10.296
 4939TIP3    H236453   3.730   2.069  10.305
 4940TIP3   OH236454   3.489   2.184   9.004
 4940TIP3    H136455   3.510   2.141   9.090
 4940TIP3    H236456   3.428   2.120   8.960
 4941TIP3   OH236457   2.037   2.264   9.460
 4941TIP3    H136458   2.085   2.183   9.486
 4941TIP3    H236459   2.092   2.334   9.498
 4942TIP3   OH236460   1.865   2.566   9.565
 4942TIP3    H136461   1.921   2.540   9.488
 4942TIP3    H236462   1.912   2.646   9.590
 4943TIP3   OH236463   3.673   2.201  10.189
 4943TIP3    H136464   3.578   2.224  10.186
 4943TIP3    H236465   3.675   2.144  10.111
 4944TIP3   OH236466   3.670   2.191   8.660
 4944TIP3    H136467   3.713   2.119   8.611
 4944TIP3    H236468   3.742   2.255   8.663
 4945TIP3   OH236469   1.900   2.189   8.969
 4945TIP3    H136470   1.807   2.211   8.958
 4945TIP3    H236471   1.944   2.240   8.898
 4946TIP3   OH236472   3.375   3.686   9.167
 4946TIP3    H136473   3.443   3.656   9.105
 4946TIP3    H236474   3.427   3.736   9.232
 4947TIP3   OH236475   1.897   2.055   9.798
 4947TIP3    H136476   1.833   2.038   9.869
 4947TIP3    H236477   1.852   2.127   9.748
 4948TIP3   OH236478   2.116   3.383  10.214
 4948TIP3    H136479   2.026   3.394  10.183
 4948TIP3    H236480   2.099   3.372  10.309
 4949TIP3   OH236481   2.407   3.478   9.843
 4949TIP3    H136482   2.380   3.567   9.816
 4949TIP3    H236483   2.501   3.484   9.816
 4950TIP3   OH236484   2.844   3.617  10.136
 4950TIP3    H136485   2.858   3.589  10.229
 4950TIP3    H236486   2.933   3.650  10.113
 4951TIP3   OH236487   3.071   3.745  10.062
 4951TIP3    H136488   3.146   3.687  10.042
 4951TIP3    H236489   3.106   3.788  10.145
 4952TIP3   OH236490   3.574   2.008   9.976
 4952TIP3    H136491   3.490   2.037   9.936
 4952TIP3    H236492   3.590   1.925   9.926
 4953TIP3   OH236493   2.146   3.791   9.844
 4953TIP3    H136494   2.081   3.853   9.803
 4953TIP3    H236495   2.121   3.793   9.938
 4954TIP3   OH236496   2.397   3.756   9.750
 4954TIP3    H136497   2.310   3.777   9.791
 4954TIP3    H236498   2.396   3.818   9.674
 4955TIP3   OH236499   2.870   3.750   9.669
 4955TIP3    H136500   2.824   3.806   9.604
 4955TIP3    H236501   2.883   3.813   9.742
 4956TIP3   OH236502   3.099   3.630   9.772
 4956TIP3    H136503   3.014   3.659   9.734
 4956TIP3    H236504   3.148   3.714   9.763
 4957TIP3   OH236505   3.357   3.787   9.793
 4957TIP3    H136506   3.352   3.883   9.771
 4957TIP3    H236507   3.379   3.750   9.706
 4958TIP3   OH236508   2.100   3.666   9.538
 4958TIP3    H136509   2.090   3.619   9.623
 4958TIP3    H236510   2.182   3.628   9.498
 4959TIP3   OH236511   2.307   3.537   9.404
 4959TIP3    H136512   2.290   3.444   9.427
 4959TIP3    H236513   2.392   3.553   9.449
 4960TIP3   OH236514   2.568   3.586   9.492
 4960TIP3    H136515   2.583   3.493   9.465
 4960TIP3    H236516   2.572   3.580   9.588
 4961TIP3   OH236517   2.912   2.151   9.405
 4961TIP3    H136518   2.845   2.087   9.434
 4961TIP3    H236519   2.967   2.097   9.347
 4962TIP3   OH236520   3.426   1.955   9.411
 4962TIP3    H136521   3.487   2.015   9.360
 4962TIP3    H236522   3.337   1.991   9.389
 4963TIP3   OH236523   3.592   2.081   9.239
 4963TIP3    H136524   3.661   2.022   9.198
 4963TIP3    H236525   3.644   2.164   9.250
 4964TIP3   OH236526   2.147   2.011   9.194
 4964TIP3    H136527   2.071   1.995   9.135
 4964TIP3    H236528   2.196   1.928   9.183
 4965TIP3   OH236529   2.023   1.989   8.761
 4965TIP3    H136530   2.074   2.053   8.708
 4965TIP3    H236531   1.971   2.047   8.819
 4966TIP3   OH236532   2.596   2.006   9.169
 4966TIP3    H136533   2.686   2.041   9.161
 4966TIP3    H236534   2.593   1.984   9.262
 4967TIP3   OH236535   3.168   2.007   9.331
 4967TIP3    H136536   3.163   2.019   9.235
 4967TIP3    H236537   3.130   1.917   9.343
 4968TIP3   OH236538   3.294   2.009   8.896
 4968TIP3    H136539   3.220   2.070   8.882
 4968TIP3    H236540   3.250   1.924   8.920
 4969TIP3   OH236541   2.018   3.585   8.864
 4969TIP3    H136542   1.951   3.584   8.794
 4969TIP3    H236543   2.021   3.680   8.879
 4970TIP3   OH236544   2.208   2.173   8.618
 4970TIP3    H136545   2.263   2.120   8.561
 4970TIP3    H236546   2.274   2.217   8.674
 4971TIP3   OH236547   2.712   2.207   8.854
 4971TIP3    H136548   2.738   2.150   8.928
 4971TIP3    H236549   2.719   2.294   8.900
 4972TIP3   OH236550   2.901   3.744   8.699
 4972TIP3    H136551   2.998   3.742   8.685
 4972TIP3    H236552   2.884   3.670   8.637
 4973TIP3   OH236553   3.574   3.665   8.970
 4973TIP3    H136554   3.555   3.587   8.913
 4973TIP3    H236555   3.566   3.738   8.906
 4974TIP3   OH236556   2.134   2.068  10.138
 4974TIP3    H136557   2.100   1.986  10.177
 4974TIP3    H236558   2.227   2.064  10.171
 4975TIP3   OH236559   2.338   2.004  10.294
 4975TIP3    H136560   2.427   1.974  10.272
 4975TIP3    H236561   2.302   1.926  10.340
 4976TIP3   OH236562   2.204   3.683   8.560
 4976TIP3    H136563   2.170   3.708   8.647
 4976TIP3    H236564   2.278   3.625   8.578
 4977TIP3   OH236565   3.179   1.940  10.316
 4977TIP3    H136566   3.188   1.889  10.399
 4977TIP3    H236567   3.270   1.931  10.278
 4978TIP3   OH236568   3.499   3.539  10.180
 4978TIP3    H136569   3.420   3.526  10.124
 4978TIP3    H236570   3.487   3.633  10.201
 4979TIP3   OH236571   4.947   2.927   9.176
 4979TIP3    H136572   4.943   3.025   9.173
 4979TIP3    H236573   4.872   2.904   9.117
 4980TIP3   OH236574   4.829   2.852   9.526
 4980TIP3    H136575   4.827   2.788   9.598
 4980TIP3    H236576   4.794   2.802   9.451
 4981TIP3   OH236577   4.064   2.820   9.681
 4981TIP3    H136578   4.073   2.751   9.750
 4981TIP3    H236579   4.139   2.877   9.703
 4982TIP3   OH236580   5.201   3.144   9.356
 4982TIP3    H136581   5.154   3.077   9.405
 4982TIP3    H236582   5.200   3.218   9.420
 4983TIP3   OH236583   4.157   3.265   9.531
 4983TIP3    H136584   4.126   3.178   9.499
 4983TIP3    H236585   4.252   3.247   9.535
 4984TIP3   OH236586   3.821   2.620   9.080
 4984TIP3    H136587   3.777   2.708   9.074
 4984TIP3    H236588   3.764   2.567   9.022
 4985TIP3   OH236589   3.892   2.843   9.295
 4985TIP3    H136590   3.920   2.761   9.340
 4985TIP3    H236591   3.961   2.854   9.228
 4986TIP3   OH236592   4.909   3.663   9.378
 4986TIP3    H136593   4.974   3.595   9.349
 4986TIP3    H236594   4.888   3.629   9.465
 4987TIP3   OH236595   4.667   3.092   9.574
 4987TIP3    H136596   4.700   3.030   9.507
 4987TIP3    H236597   4.748   3.108   9.625
 4988TIP3   OH236598   5.520   2.265   9.641
 4988TIP3    H136599   5.545   2.313   9.724
 4988TIP3    H236600   5.588   2.299   9.582
 4989TIP3   OH236601   4.989   2.540   9.603
 4989TIP3    H136602   4.998   2.443   9.606
 4989TIP3    H236603   4.970   2.552   9.508
 4990TIP3   OH236604   4.294   2.348   9.326
 4990TIP3    H136605   4.306   2.432   9.276
 4990TIP3    H236606   4.255   2.291   9.257
 4991TIP3   OH236607   5.068   2.358   9.164
 4991TIP3    H136608   5.133   2.323   9.229
 4991TIP3    H236609   5.125   2.412   9.107
 4992TIP3   OH236610   3.957   2.589   9.399
 4992TIP3    H136611   4.024   2.535   9.445
 4992TIP3    H236612   3.968   2.558   9.308
 4993TIP3   OH236613   4.473   2.745   9.332
 4993TIP3    H136614   4.540   2.687   9.371
 4993TIP3    H236615   4.421   2.680   9.280
 4994TIP3   OH236616   5.571   2.405   9.868
 4994TIP3    H136617   5.506   2.477   9.866
 4994TIP3    H236618   5.577   2.384   9.963
 4995TIP3   OH236619   4.186   2.238   9.730
 4995TIP3    H136620   4.158   2.295   9.655
 4995TIP3    H236621   4.118   2.261   9.798
 4996TIP3   OH236622   4.913   3.185   9.084
 4996TIP3    H136623   4.886   3.159   8.994
 4996TIP3    H236624   4.883   3.279   9.089
 4997TIP3   OH236625   4.437   3.002   9.752
 4997TIP3    H136626   4.367   3.067   9.777
 4997TIP3    H236627   4.508   3.062   9.724
 4998TIP3   OH236628   5.250   2.293   9.364
 4998TIP3    H136629   5.228   2.214   9.414
 4998TIP3    H236630   5.319   2.331   9.420
 4999TIP3   OH236631   4.143   2.424   9.534
 4999TIP3    H136632   4.205   2.493   9.565
 4999TIP3    H236633   4.194   2.383   9.460
 5000TIP3   OH236634   4.282   3.203   9.836
 5000TIP3    H136635   4.277   3.294   9.803
 5000TIP3    H236636   4.193   3.195   9.880
 5001TIP3   OH236637   3.888   3.164   8.914
 5001TIP3    H136638   3.868   3.199   8.825
 5001TIP3    H236639   3.896   3.246   8.967
 5002TIP3   OH236640   5.251   3.331   9.591
 5002TIP3    H136641   5.154   3.342   9.603
 5002TIP3    H236642   5.277   3.423   9.570
 5003TIP3   OH236643   5.280   2.157   9.728
 5003TIP3    H136644   5.211   2.224   9.721
 5003TIP3    H236645   5.355   2.199   9.680
 5004TIP3   OH236646   4.579   1.972   9.476
 5004TIP3    H136647   4.564   1.875   9.469
 5004TIP3    H236648   4.491   2.002   9.507
 5005TIP3   OH236649   5.077   3.510   9.250
 5005TIP3    H136650   5.119   3.438   9.199
 5005TIP3    H236651   5.121   3.588   9.212
 5006TIP3   OH236652   5.198   3.302   9.101
 5006TIP3    H136653   5.168   3.233   9.039
 5006TIP3    H236654   5.201   3.253   9.185
 5007TIP3   OH236655   5.360   3.162   9.953
 5007TIP3    H136656   5.374   3.096   9.880
 5007TIP3    H236657   5.379   3.246   9.908
 5008TIP3   OH236658   4.810   2.851   8.926
 5008TIP3    H136659   4.741   2.909   8.887
 5008TIP3    H236660   4.880   2.860   8.860
 5009TIP3   OH236661   4.813   2.705   8.636
 5009TIP3    H136662   4.886   2.705   8.699
 5009TIP3    H236663   4.846   2.641   8.572
 5010TIP3   OH236664   5.545   2.790   9.749
 5010TIP3    H136665   5.484   2.866   9.761
 5010TIP3    H236666   5.602   2.821   9.676
 5011TIP3   OH236667   5.155   2.874   9.023
 5011TIP3    H136668   5.078   2.897   9.080
 5011TIP3    H236669   5.199   2.804   9.071
 5012TIP3   OH236670   5.146   2.687   9.932
 5012TIP3    H136671   5.147   2.769   9.985
 5012TIP3    H236672   5.082   2.717   9.864
 5013TIP3   OH236673   4.315   2.938   9.211
 5013TIP3    H136674   4.283   2.898   9.126
 5013TIP3    H236675   4.377   2.869   9.245
 5014TIP3   OH236676   4.447   3.276   9.479
 5014TIP3    H136677   4.447   3.224   9.398
 5014TIP3    H236678   4.525   3.240   9.525
 5015TIP3   OH236679   4.348   2.812   9.578
 5015TIP3    H136680   4.402   2.822   9.497
 5015TIP3    H236681   4.387   2.879   9.638
 5016TIP3   OH236682   4.991   3.370   9.648
 5016TIP3    H136683   4.960   3.434   9.713
 5016TIP3    H236684   4.964   3.285   9.691
 5017TIP3   OH236685   4.442   3.255  10.051
 5017TIP3    H136686   4.400   3.331  10.096
 5017TIP3    H236687   4.378   3.235   9.978
 5018TIP3   OH236688   5.043   2.789   8.788
 5018TIP3    H136689   5.096   2.811   8.867
 5018TIP3    H236690   5.081   2.845   8.718
 5019TIP3   OH236691   4.138   2.872   9.963
 5019TIP3    H136692   4.143   2.939  10.034
 5019TIP3    H236693   4.044   2.880   9.940
 5020TIP3   OH236694   4.812   3.464   9.135
 5020TIP3    H136695   4.856   3.495   9.214
 5020TIP3    H236696   4.758   3.539   9.108
 5021TIP3   OH236697   4.269   3.458  10.123
 5021TIP3    H136698   4.263   3.450  10.026
 5021TIP3    H236699   4.174   3.447  10.147
 5022TIP3   OH236700   5.413   1.965   8.776
 5022TIP3    H136701   5.318   1.975   8.800
 5022TIP3    H236702   5.435   2.050   8.736
 5023TIP3   OH236703   4.211   2.840   8.973
 5023TIP3    H136704   4.184   2.917   8.919
 5023TIP3    H236705   4.146   2.773   8.949
 5024TIP3   OH236706   5.523   3.396   8.612
 5024TIP3    H136707   5.535   3.492   8.624
 5024TIP3    H236708   5.617   3.370   8.607
 5025TIP3   OH236709   3.821   3.083   9.862
 5025TIP3    H136710   3.777   3.074   9.776
 5025TIP3    H236711   3.829   2.988   9.885
 5026TIP3   OH236712   3.797   3.356   9.540
 5026TIP3    H136713   3.893   3.345   9.538
 5026TIP3    H236714   3.789   3.438   9.591
 5027TIP3   OH236715   5.621   3.427  10.113
 5027TIP3    H136716   5.609   3.331  10.104
 5027TIP3    H236717   5.532   3.452  10.146
 5028TIP3   OH236718   4.717   3.383   9.993
 5028TIP3    H136719   4.723   3.464  10.048
 5028TIP3    H236720   4.631   3.345  10.019
 5029TIP3   OH236721   4.760   3.755   8.974
 5029TIP3    H136722   4.752   3.749   8.877
 5029TIP3    H236723   4.764   3.851   8.991
 5030TIP3   OH236724   4.125   3.643   9.157
 5030TIP3    H136725   4.140   3.602   9.245
 5030TIP3    H236726   4.040   3.602   9.134
 5031TIP3   OH236727   5.064   3.677   8.672
 5031TIP3    H136728   5.109   3.600   8.629
 5031TIP3    H236729   5.071   3.651   8.766
 5032TIP3   OH236730   5.035   3.670   8.951
 5032TIP3    H136731   4.939   3.677   8.970
 5032TIP3    H236732   5.060   3.596   9.008
 5033TIP3   OH236733   5.335   2.574  10.156
 5033TIP3    H136734   5.286   2.619  10.086
 5033TIP3    H236735   5.337   2.481  10.126
 5034TIP3   OH236736   4.050   3.214   9.958
 5034TIP3    H136737   4.071   3.177  10.047
 5034TIP3    H236738   3.964   3.174   9.934
 5035TIP3   OH236739   4.318   2.062   9.551
 5035TIP3    H136740   4.228   2.049   9.515
 5035TIP3    H236741   4.304   2.145   9.600
 5036TIP3   OH236742   4.782   2.030   9.889
 5036TIP3    H136743   4.821   1.987   9.967
 5036TIP3    H236744   4.685   2.017   9.902
 5037TIP3   OH236745   5.110   2.413   9.977
 5037TIP3    H136746   5.055   2.393  10.056
 5037TIP3    H236747   5.095   2.507   9.956
 5038TIP3   OH236748   5.192   2.901   8.571
 5038TIP3    H136749   5.193   2.875   8.478
 5038TIP3    H236750   5.280   2.941   8.586
 5039TIP3   OH236751   4.747   2.286   8.623
 5039TIP3    H136752   4.714   2.281   8.714
 5039TIP3    H236753   4.719   2.199   8.593
 5040TIP3   OH236754   4.328   2.560   9.677
 5040TIP3    H136755   4.255   2.559   9.742
 5040TIP3    H236756   4.323   2.650   9.640
 5041TIP3   OH236757   4.324   2.570   9.164
 5041TIP3    H136758   4.230   2.546   9.150
 5041TIP3    H236759   4.361   2.542   9.078
 5042TIP3   OH236760   4.877   2.620   9.038
 5042TIP3    H136761   4.836   2.704   9.005
 5042TIP3    H236762   4.945   2.605   8.970
 5043TIP3   OH236763   4.779   2.637  10.189
 5043TIP3    H136764   4.729   2.562  10.219
 5043TIP3    H236765   4.866   2.631  10.235
 5044TIP3   OH236766   4.985   2.572   9.324
 5044TIP3    H136767   4.949   2.626   9.252
 5044TIP3    H236768   4.987   2.485   9.279
 5045TIP3   OH236769   4.091   2.584   9.845
 5045TIP3    H136770   4.101   2.625   9.933
 5045TIP3    H236771   4.046   2.500   9.866
 5046TIP3   OH236772   4.445   2.346   8.563
 5046TIP3    H136773   4.390   2.284   8.615
 5046TIP3    H236774   4.385   2.385   8.500
 5047TIP3   OH236775   3.756   2.295   9.244
 5047TIP3    H136776   3.825   2.291   9.314
 5047TIP3    H236777   3.801   2.258   9.166
 5048TIP3   OH236778   3.885   2.368   8.780
 5048TIP3    H136779   3.935   2.426   8.719
 5048TIP3    H236780   3.817   2.430   8.811
 5049TIP3   OH236781   4.898   2.729   9.779
 5049TIP3    H136782   4.937   2.660   9.722
 5049TIP3    H236783   4.852   2.676   9.846
 5050TIP3   OH236784   4.579   2.327   9.265
 5050TIP3    H136785   4.486   2.327   9.293
 5050TIP3    H236786   4.627   2.309   9.347
 5051TIP3   OH236787   4.060   2.481   9.151
 5051TIP3    H136788   3.972   2.497   9.111
 5051TIP3    H236789   4.089   2.398   9.110
 5052TIP3   OH236790   4.424   2.488   8.914
 5052TIP3    H136791   4.520   2.498   8.930
 5052TIP3    H236792   4.401   2.553   8.845
 5053TIP3   OH236793   5.020   2.250   9.587
 5053TIP3    H136794   4.952   2.255   9.658
 5053TIP3    H236795   4.969   2.224   9.510
 5054TIP3   OH236796   4.294   2.603   8.674
 5054TIP3    H136797   4.239   2.569   8.601
 5054TIP3    H236798   4.377   2.626   8.627
 5055TIP3   OH236799   5.340   3.813  10.221
 5055TIP3    H136800   5.368   3.855  10.137
 5055TIP3    H236801   5.409   3.845  10.282
 5056TIP3   OH236802   4.107   3.060  10.177
 5056TIP3    H136803   4.178   3.088  10.235
 5056TIP3    H236804   4.029   3.069  10.237
 5057TIP3   OH236805   4.708   2.602   9.453
 5057TIP3    H136806   4.767   2.548   9.400
 5057TIP3    H236807   4.693   2.547   9.531
 5058TIP3   OH236808   4.208   2.216   9.099
 5058TIP3    H136809   4.177   2.124   9.096
 5058TIP3    H236810   4.287   2.210   9.042
 5059TIP3   OH236811   4.571   2.434   9.695
 5059TIP3    H136812   4.489   2.487   9.703
 5059TIP3    H236813   4.627   2.470   9.767
 5060TIP3   OH236814   4.631   3.054   8.868
 5060TIP3    H136815   4.550   3.010   8.833
 5060TIP3    H236816   4.608   3.068   8.961
 5061TIP3   OH236817   5.351   2.973   9.740
 5061TIP3    H136818   5.405   3.028   9.681
 5061TIP3    H236819   5.262   2.984   9.700
 5062TIP3   OH236820   5.017   2.336   8.683
 5062TIP3    H136821   4.923   2.352   8.665
 5062TIP3    H236822   5.047   2.424   8.713
 5063TIP3   OH236823   4.780   3.084   9.986
 5063TIP3    H136824   4.746   3.041  10.065
 5063TIP3    H236825   4.754   3.176   9.999
 5064TIP3   OH236826   5.087   2.531   8.848
 5064TIP3    H136827   5.176   2.516   8.884
 5064TIP3    H236828   5.096   2.612   8.796
 5065TIP3   OH236829   4.142   2.997   9.445
 5065TIP3    H136830   4.209   2.988   9.375
 5065TIP3    H236831   4.147   2.911   9.490
 5066TIP3   OH236832   4.841   3.202   8.777
 5066TIP3    H136833   4.802   3.288   8.803
 5066TIP3    H236834   4.766   3.140   8.789
 5067TIP3   OH236835   3.840   2.836   9.969
 5067TIP3    H136836   3.857   2.793  10.055
 5067TIP3    H236837   3.778   2.775   9.926
 5068TIP3   OH236838   4.540   2.791  10.188
 5068TIP3    H136839   4.509   2.763  10.100
 5068TIP3    H236840   4.634   2.765  10.186
 5069TIP3   OH236841   5.011   3.326   9.984
 5069TIP3    H136842   4.919   3.344   9.960
 5069TIP3    H236843   5.007   3.355  10.077
 5070TIP3   OH236844   5.575   2.544   8.827
 5070TIP3    H136845   5.521   2.513   8.753
 5070TIP3    H236846   5.585   2.637   8.799
 5071TIP3   OH236847   5.576   3.129  10.105
 5071TIP3    H136848   5.488   3.151  10.066
 5071TIP3    H236849   5.631   3.124  10.024
 5072TIP3   OH236850   5.406   3.426   8.861
 5072TIP3    H136851   5.369   3.344   8.894
 5072TIP3    H236852   5.436   3.406   8.770
 5073TIP3   OH236853   5.127   2.908   9.571
 5073TIP3    H136854   5.032   2.890   9.562
 5073TIP3    H236855   5.167   2.831   9.530
 5074TIP3   OH236856   4.378   3.342   9.183
 5074TIP3    H136857   4.428   3.423   9.162
 5074TIP3    H236858   4.291   3.365   9.150
 5075TIP3   OH236859   3.951   2.828   8.635
 5075TIP3    H136860   4.014   2.890   8.678
 5075TIP3    H236861   3.864   2.855   8.670
 5076TIP3   OH236862   4.520   3.108   9.135
 5076TIP3    H136863   4.488   3.200   9.143
 5076TIP3    H236864   4.448   3.059   9.179
 5077TIP3   OH236865   4.565   3.527   9.776
 5077TIP3    H136866   4.611   3.608   9.747
 5077TIP3    H236867   4.629   3.492   9.840
 5078TIP3   OH236868   4.388   3.608   9.086
 5078TIP3    H136869   4.292   3.622   9.102
 5078TIP3    H236870   4.424   3.691   9.122
 5079TIP3   OH236871   4.917   3.126   9.737
 5079TIP3    H136872   4.885   3.109   9.828
 5079TIP3    H236873   4.981   3.055   9.721
 5080TIP3   OH236874   5.148   3.225   8.649
 5080TIP3    H136875   5.175   3.185   8.734
 5080TIP3    H236876   5.051   3.216   8.656
 5081TIP3   OH236877   5.199   3.586   9.988
 5081TIP3    H136878   5.130   3.536   9.939
 5081TIP3    H236879   5.218   3.655   9.921
 5082TIP3   OH236880   5.598   3.673   8.672
 5082TIP3    H136881   5.667   3.737   8.646
 5082TIP3    H236882   5.526   3.733   8.701
 5083TIP3   OH236883   4.004   2.310   9.924
 5083TIP3    H136884   3.914   2.345   9.923
 5083TIP3    H236885   3.995   2.226   9.972
 5084TIP3   OH236886   5.230   3.095   8.871
 5084TIP3    H136887   5.205   3.015   8.922
 5084TIP3    H236888   5.324   3.103   8.895
 5085TIP3   OH236889   3.966   3.488   9.768
 5085TIP3    H136890   3.998   3.397   9.769
 5085TIP3    H236891   3.992   3.518   9.856
 5086TIP3   OH236892   4.441   3.298   8.739
 5086TIP3    H136893   4.468   3.241   8.813
 5086TIP3    H236894   4.450   3.389   8.775
 5087TIP3   OH236895   4.090   3.020   8.784
 5087TIP3    H136896   4.025   3.061   8.845
 5087TIP3    H236897   4.148   3.096   8.763
 5088TIP3   OH236898   4.879   2.288   9.821
 5088TIP3    H136899   4.950   2.293   9.885
 5088TIP3    H236900   4.840   2.200   9.841
 5089TIP3   OH236901   4.952   2.246   8.932
 5089TIP3    H136902   4.977   2.291   8.849
 5089TIP3    H236903   5.011   2.289   8.995
 5090TIP3   OH236904   4.722   3.462   8.813
 5090TIP3    H136905   4.640   3.514   8.819
 5090TIP3    H236906   4.776   3.510   8.747
 5091TIP3   OH236907   4.675   2.419   9.012
 5091TIP3    H136908   4.753   2.478   9.015
 5091TIP3    H236909   4.648   2.407   9.104
 5092TIP3   OH236910   4.730   2.521   9.929
 5092TIP3    H136911   4.740   2.581  10.006
 5092TIP3    H236912   4.799   2.454   9.938
 5093TIP3   OH236913   4.761   2.125   9.099
 5093TIP3    H136914   4.728   2.190   9.163
 5093TIP3    H236915   4.830   2.180   9.055
 5094TIP3   OH236916   4.459   3.566   8.816
 5094TIP3    H136917   4.477   3.648   8.765
 5094TIP3    H236918   4.434   3.600   8.904
 5095TIP3   OH236919   4.326   2.235   8.777
 5095TIP3    H136920   4.321   2.326   8.810
 5095TIP3    H236921   4.418   2.212   8.802
 5096TIP3   OH236922   5.349   2.310  10.017
 5096TIP3    H136923   5.256   2.340  10.003
 5096TIP3    H236924   5.381   2.305   9.926
 5097TIP3   OH236925   5.210   2.685   9.415
 5097TIP3    H136926   5.123   2.646   9.389
 5097TIP3    H236927   5.241   2.615   9.477
 5098TIP3   OH236928   4.151   3.281   8.676
 5098TIP3    H136929   4.217   3.342   8.708
 5098TIP3    H236930   4.202   3.233   8.608
 5099TIP3   OH236931   3.990   2.548   8.596
 5099TIP3    H136932   3.987   2.645   8.607
 5099TIP3    H236933   3.903   2.529   8.559
 5100TIP3   OH236934   5.317   3.614   9.584
 5100TIP3    H136935   5.308   3.682   9.514
 5100TIP3    H236936   5.413   3.619   9.601
 5101TIP3   OH236937   4.066   2.026   9.465
 5101TIP3    H136938   4.047   2.028   9.369
 5101TIP3    H236939   4.025   1.940   9.490
 5102TIP3   OH236940   3.962   3.418   9.079
 5102TIP3    H136941   3.876   3.462   9.075
 5102TIP3    H236942   4.008   3.464   9.008
 5103TIP3   OH236943   3.883   3.682  10.206
 5103TIP3    H136944   3.945   3.661  10.279
 5103TIP3    H236945   3.841   3.596  10.189
 5104TIP3   OH236946   4.344   3.571  10.370
 5104TIP3    H136947   4.426   3.531  10.401
 5104TIP3    H236948   4.347   3.549  10.274
 5105TIP3   OH236949   4.802   3.530   8.567
 5105TIP3    H136950   4.719   3.481   8.553
 5105TIP3    H236951   4.853   3.488   8.496
 5106TIP3   OH236952   5.006   3.410  10.237
 5106TIP3    H136953   4.967   3.327  10.274
 5106TIP3    H236954   5.076   3.428  10.302
 5107TIP3   OH236955   5.222   3.505   8.528
 5107TIP3    H136956   5.246   3.423   8.575
 5107TIP3    H236957   5.297   3.524   8.472
 5108TIP3   OH236958   3.875   3.056  10.309
 5108TIP3    H136959   3.889   2.967  10.272
 5108TIP3    H236960   3.801   3.088  10.253
 5109TIP3   OH236961   4.317   3.102   8.523
 5109TIP3    H136962   4.322   3.019   8.570
 5109TIP3    H236963   4.372   3.080   8.446
 5110TIP3   OH236964   4.548   3.057  10.247
 5110TIP3    H136965   4.513   3.093  10.163
 5110TIP3    H236966   4.553   2.961  10.230
 5111TIP3   OH236967   5.114   3.045   9.985
 5111TIP3    H136968   5.192   3.103   9.978
 5111TIP3    H236969   5.044   3.112   9.990
 5112TIP3   OH236970   3.962   2.783  10.243
 5112TIP3    H136971   4.004   2.696  10.233
 5112TIP3    H236972   3.940   2.783  10.337
 5113TIP3   OH236973   4.430   2.900   8.751
 5113TIP3    H136974   4.379   2.846   8.814
 5113TIP3    H236975   4.462   2.831   8.688
 5114TIP3   OH236976   4.356   2.678   9.984
 5114TIP3    H136977   4.295   2.749  10.007
 5114TIP3    H236978   4.394   2.713   9.901
 5115TIP3   OH236979   4.537   2.722   8.571
 5115TIP3    H136980   4.528   2.702   8.477
 5115TIP3    H236981   4.635   2.728   8.583
 5116TIP3   OH236982   4.861   2.931  10.318
 5116TIP3    H136983   4.957   2.936  10.303
 5116TIP3    H236984   4.850   2.856  10.376
 5117TIP3   OH236985   5.448   2.968  17.027
 5117TIP3    H136986   5.463   2.902  16.956
 5117TIP3    H236987   5.488   3.054  17.005
 5118TIP3   OH236988   4.397   2.417  10.084
 5118TIP3    H136989   4.406   2.345  10.019
 5118TIP3    H236990   4.391   2.497  10.029
 5119TIP3   OH236991   4.437   2.254   9.843
 5119TIP3    H136992   4.487   2.300   9.772
 5119TIP3    H236993   4.347   2.245   9.804
 5120TIP3   OH236994   4.591   2.801   9.866
 5120TIP3    H136995   4.666   2.787   9.808
 5120TIP3    H236996   4.552   2.885   9.836
 5121TIP3   OH236997   5.030   2.578  10.354
 5121TIP3    H136998   5.056   2.486  10.363
 5121TIP3    H236999   5.116   2.622  10.365
 5122TIP3   OH237000   5.163   2.857  10.174
 5122TIP3    H137001   5.139   2.930  10.114
 5122TIP3    H237002   5.259   2.852  10.158
 5123TIP3   OH237003   4.242   2.542  10.280
 5123TIP3    H137004   4.166   2.484  10.263
 5123TIP3    H237005   4.306   2.504  10.217
 5124TIP3   OH237006   4.515   1.998   9.882
 5124TIP3    H137007   4.496   2.094   9.870
 5124TIP3    H237008   4.440   1.960   9.833
 5125TIP3   OH237009   4.914   2.346  10.154
 5125TIP3    H137010   4.818   2.343  10.162
 5125TIP3    H237011   4.946   2.279  10.218
 5126TIP3   OH237012   5.073   2.209  10.351
 5126TIP3    H137013   5.062   2.111  10.344
 5126TIP3    H237014   5.040   2.229  10.440
 5127TIP3   OH237015   4.051   2.332  10.253
 5127TIP3    H137016   4.075   2.259  10.194
 5127TIP3    H237017   4.044   2.289  10.341
 5128TIP3   OH237018   4.534   1.934  10.154
 5128TIP3    H137019   4.604   1.866  10.149
 5128TIP3    H237020   4.523   1.952  10.058
 5129TIP3   OH237021   4.519   3.789   8.673
 5129TIP3    H137022   4.616   3.798   8.686
 5129TIP3    H237023   4.503   3.856   8.607
 5130TIP3   OH237024   3.877   3.247   8.628
 5130TIP3    H137025   3.973   3.257   8.648
 5130TIP3    H237026   3.881   3.191   8.550
 5131TIP3   OH237027   3.753   3.785   9.123
 5131TIP3    H137028   3.681   3.736   9.077
 5131TIP3    H237029   3.781   3.720   9.189
 5132TIP3   OH237030   3.835   3.599   9.311
 5132TIP3    H137031   3.799   3.511   9.331
 5132TIP3    H237032   3.858   3.632   9.399
 5133TIP3   OH237033   5.589   3.678   9.603
 5133TIP3    H137034   5.592   3.694   9.699
 5133TIP3    H237035   5.659   3.737   9.573
 5134TIP3   OH237036   5.546   3.637   9.896
 5134TIP3    H137037   5.499   3.560   9.859
 5134TIP3    H237038   5.596   3.594   9.967
 5135TIP3   OH237039   5.524   3.042   8.909
 5135TIP3    H137040   5.609   3.084   8.930
 5135TIP3    H237041   5.521   2.972   8.976
 5136TIP3   OH237042   5.557   2.852   9.096
 5136TIP3    H137043   5.482   2.801   9.132
 5136TIP3    H237044   5.619   2.865   9.171
 5137TIP3   OH237045   5.533   3.119   9.594
 5137TIP3    H137046   5.616   3.084   9.557
 5137TIP3    H237047   5.548   3.215   9.579
 5138TIP3   OH237048   5.390   3.410   9.823
 5138TIP3    H137049   5.320   3.445   9.881
 5138TIP3    H237050   5.335   3.371   9.751
 5139TIP3   OH237051   5.589   2.833   8.732
 5139TIP3    H137052   5.528   2.870   8.667
 5139TIP3    H237053   5.581   2.901   8.803
 5140TIP3   OH237054   5.385   2.561   8.595
 5140TIP3    H137055   5.435   2.616   8.533
 5140TIP3    H237056   5.404   2.474   8.554
 5141TIP3   OH237057   5.350   2.693   9.165
 5141TIP3    H137058   5.321   2.603   9.141
 5141TIP3    H237059   5.286   2.721   9.231
 5142TIP3   OH237060   3.841   2.906   9.560
 5142TIP3    H137061   3.858   2.898   9.464
 5142TIP3    H237062   3.930   2.888   9.595
 5143TIP3   OH237063   5.426   2.895  10.123
 5143TIP3    H137064   5.486   2.819  10.138
 5143TIP3    H237065   5.488   2.971  10.122
 5144TIP3   OH237066   5.576   2.685  10.185
 5144TIP3    H137067   5.488   2.643  10.170
 5144TIP3    H237068   5.632   2.605  10.182
 5145TIP3   OH237069   5.351   2.297   8.498
 5145TIP3    H137070   5.408   2.255   8.565
 5145TIP3    H237071   5.261   2.265   8.518
 5146TIP3   OH237072   5.310   2.458   9.007
 5146TIP3    H137073   5.335   2.363   9.011
 5146TIP3    H237074   5.385   2.494   8.958
 5147TIP3   OH237075   5.373   2.521   9.541
 5147TIP3    H137076   5.472   2.526   9.550
 5147TIP3    H237077   5.351   2.521   9.637
 5148TIP3   OH237078   5.375   2.585   9.816
 5148TIP3    H137079   5.290   2.612   9.856
 5148TIP3    H237080   5.422   2.671   9.804
 5149TIP3   OH237081   3.803   2.435  10.174
 5149TIP3    H137082   3.896   2.416  10.195
 5149TIP3    H237083   3.757   2.354  10.204
 5150TIP3   OH237084   5.374   2.184   9.004
 5150TIP3    H137085   5.396   2.141   9.090
 5150TIP3    H237086   5.314   2.120   8.960
 5151TIP3   OH237087   3.923   2.266   9.460
 5151TIP3    H137088   3.968   2.183   9.486
 5151TIP3    H237089   3.978   2.334   9.499
 5152TIP3   OH237090   3.751   2.566   9.564
 5152TIP3    H137091   3.807   2.540   9.488
 5152TIP3    H237092   3.798   2.646   9.591
 5153TIP3   OH237093   5.489   2.194  10.231
 5153TIP3    H137094   5.429   2.242  10.172
 5153TIP3    H237095   5.546   2.158  10.158
 5154TIP3   OH237096   5.555   2.191   8.660
 5154TIP3    H137097   5.598   2.119   8.611
 5154TIP3    H237098   5.628   2.255   8.662
 5155TIP3   OH237099   3.787   2.191   8.970
 5155TIP3    H137100   3.693   2.210   8.958
 5155TIP3    H237101   3.828   2.241   8.897
 5156TIP3   OH237102   5.261   3.686   9.167
 5156TIP3    H137103   5.329   3.657   9.104
 5156TIP3    H237104   5.312   3.736   9.232
 5157TIP3   OH237105   3.782   2.057   9.800
 5157TIP3    H137106   3.715   2.037   9.869
 5157TIP3    H237107   3.736   2.124   9.747
 5158TIP3   OH237108   4.008   3.381  10.219
 5158TIP3    H137109   3.925   3.399  10.173
 5158TIP3    H237110   3.977   3.368  10.309
 5159TIP3   OH237111   4.295   3.477   9.843
 5159TIP3    H137112   4.263   3.565   9.818
 5159TIP3    H237113   4.388   3.486   9.815
 5160TIP3   OH237114   4.730   3.618  10.138
 5160TIP3    H137115   4.748   3.586  10.228
 5160TIP3    H237116   4.818   3.650  10.111
 5161TIP3   OH237117   4.958   3.747  10.066
 5161TIP3    H137118   5.030   3.687  10.043
 5161TIP3    H237119   4.994   3.789  10.147
 5162TIP3   OH237120   5.438   1.997   9.981
 5162TIP3    H137121   5.370   2.038   9.927
 5162TIP3    H237122   5.478   1.928   9.923
 5163TIP3   OH237123   4.039   3.801   9.842
 5163TIP3    H137124   3.965   3.851   9.805
 5163TIP3    H237125   4.009   3.782   9.933
 5164TIP3   OH237126   4.285   3.759   9.752
 5164TIP3    H137127   4.196   3.774   9.790
 5164TIP3    H237128   4.280   3.818   9.674
 5165TIP3   OH237129   4.756   3.750   9.669
 5165TIP3    H137130   4.710   3.806   9.604
 5165TIP3    H237131   4.769   3.813   9.742
 5166TIP3   OH237132   4.984   3.630   9.772
 5166TIP3    H137133   4.900   3.659   9.734
 5166TIP3    H237134   5.034   3.714   9.763
 5167TIP3   OH237135   5.243   3.787   9.793
 5167TIP3    H137136   5.238   3.883   9.771
 5167TIP3    H237137   5.265   3.750   9.706
 5168TIP3   OH237138   3.985   3.666   9.538
 5168TIP3    H137139   3.977   3.619   9.624
 5168TIP3    H237140   4.067   3.628   9.499
 5169TIP3   OH237141   4.192   3.537   9.404
 5169TIP3    H137142   4.176   3.444   9.427
 5169TIP3    H237143   4.278   3.553   9.449
 5170TIP3   OH237144   4.453   3.586   9.492
 5170TIP3    H137145   4.468   3.493   9.465
 5170TIP3    H237146   4.457   3.580   9.588
 5171TIP3   OH237147   4.798   2.151   9.405
 5171TIP3    H137148   4.730   2.087   9.434
 5171TIP3    H237149   4.853   2.097   9.347
 5172TIP3   OH237150   5.312   1.954   9.412
 5172TIP3    H137151   5.373   2.014   9.361
 5172TIP3    H237152   5.224   1.991   9.390
 5173TIP3   OH237153   5.478   2.080   9.239
 5173TIP3    H137154   5.547   2.022   9.199
 5173TIP3    H237155   5.530   2.163   9.250
 5174TIP3   OH237156   4.035   2.013   9.192
 5174TIP3    H137157   3.956   1.994   9.137
 5174TIP3    H237158   4.081   1.927   9.184
 5175TIP3   OH237159   3.908   1.988   8.761
 5175TIP3    H137160   3.960   2.052   8.708
 5175TIP3    H237161   3.856   2.047   8.818
 5176TIP3   OH237162   4.481   2.006   9.169
 5176TIP3    H137163   4.572   2.040   9.160
 5176TIP3    H237164   4.479   1.984   9.262
 5177TIP3   OH237165   5.054   2.007   9.331
 5177TIP3    H137166   5.049   2.019   9.236
 5177TIP3    H237167   5.016   1.917   9.343
 5178TIP3   OH237168   5.180   2.010   8.896
 5178TIP3    H137169   5.106   2.070   8.882
 5178TIP3    H237170   5.136   1.924   8.920
 5179TIP3   OH237171   3.904   3.585   8.864
 5179TIP3    H137172   3.836   3.584   8.794
 5179TIP3    H237173   3.907   3.680   8.879
 5180TIP3   OH237174   4.094   2.173   8.617
 5180TIP3    H137175   4.149   2.120   8.560
 5180TIP3    H237176   4.160   2.217   8.674
 5181TIP3   OH237177   4.597   2.207   8.854
 5181TIP3    H137178   4.624   2.150   8.928
 5181TIP3    H237179   4.605   2.294   8.900
 5182TIP3   OH237180   4.787   3.744   8.698
 5182TIP3    H137181   4.884   3.741   8.685
 5182TIP3    H237182   4.771   3.669   8.635
 5183TIP3   OH237183   5.460   3.664   8.970
 5183TIP3    H137184   5.440   3.586   8.912
 5183TIP3    H237185   5.451   3.738   8.907
 5184TIP3   OH237186   4.023   2.065  10.137
 5184TIP3    H137187   3.984   1.987  10.179
 5184TIP3    H237188   4.114   2.064  10.176
 5185TIP3   OH237189   4.224   2.005  10.303
 5185TIP3    H137190   4.310   1.973  10.270
 5185TIP3    H237191   4.186   1.925  10.340
 5186TIP3   OH237192   4.086   3.682   8.560
 5186TIP3    H137193   4.056   3.709   8.647
 5186TIP3    H237194   4.162   3.626   8.577
 5187TIP3   OH237195   5.068   1.942  10.320
 5187TIP3    H137196   5.069   1.880  10.395
 5187TIP3    H237197   5.154   1.929  10.276
 5188TIP3   OH237198   5.385   3.538  10.183
 5188TIP3    H137199   5.306   3.524  10.126
 5188TIP3    H237200   5.372   3.634  10.200
 5189TIP3   OH237201   6.827   2.926   9.176
 5189TIP3    H137202   6.829   3.025   9.172
 5189TIP3    H237203   6.757   2.905   9.113
 5190TIP3   OH237204   6.713   2.853   9.524
 5190TIP3    H137205   6.713   2.789   9.597
 5190TIP3    H237206   6.683   2.800   9.450
 5191TIP3   OH237207   5.951   2.821   9.680
 5191TIP3    H137208   5.958   2.752   9.750
 5191TIP3    H237209   6.025   2.877   9.703
 5192TIP3   OH237210   7.084   3.145   9.356
 5192TIP3    H137211   7.042   3.074   9.406
 5192TIP3    H237212   7.091   3.214   9.424
 5193TIP3   OH237213   6.042   3.265   9.530
 5193TIP3    H137214   6.012   3.178   9.500
 5193TIP3    H237215   6.138   3.247   9.536
 5194TIP3   OH237216   5.703   2.619   9.084
 5194TIP3    H137217   5.666   2.708   9.071
 5194TIP3    H237218   5.651   2.567   9.021
 5195TIP3   OH237219   5.776   2.842   9.295
 5195TIP3    H137220   5.808   2.762   9.341
 5195TIP3    H237221   5.845   2.856   9.229
 5196TIP3   OH237222   6.798   3.664   9.377
 5196TIP3    H137223   6.860   3.594   9.348
 5196TIP3    H237224   6.774   3.629   9.464
 5197TIP3   OH237225   6.552   3.092   9.574
 5197TIP3    H137226   6.587   3.031   9.509
 5197TIP3    H237227   6.634   3.109   9.625
 5198TIP3   OH237228   6.867   2.540   9.604
 5198TIP3    H137229   6.886   2.444   9.605
 5198TIP3    H237230   6.859   2.553   9.508
 5199TIP3   OH237231   6.181   2.349   9.325
 5199TIP3    H137232   6.189   2.431   9.275
 5199TIP3    H237233   6.140   2.289   9.258
 5200TIP3   OH237234   6.955   2.359   9.164
 5200TIP3    H137235   7.020   2.324   9.230
 5200TIP3    H237236   7.011   2.414   9.108
 5201TIP3   OH237237   5.844   2.590   9.398
 5201TIP3    H137238   5.909   2.535   9.446
 5201TIP3    H237239   5.854   2.556   9.308
 5202TIP3   OH237240   6.360   2.741   9.329
 5202TIP3    H137241   6.428   2.688   9.378
 5202TIP3    H237242   6.304   2.668   9.299
 5203TIP3   OH237243   6.074   2.239   9.729
 5203TIP3    H137244   6.041   2.296   9.656
 5203TIP3    H237245   6.006   2.260   9.798
 5204TIP3   OH237246   6.797   3.185   9.085
 5204TIP3    H137247   6.773   3.160   8.994
 5204TIP3    H237248   6.769   3.279   9.088
 5205TIP3   OH237249   6.322   3.002   9.754
 5205TIP3    H137250   6.252   3.067   9.777
 5205TIP3    H237251   6.393   3.062   9.724
 5206TIP3   OH237252   7.116   2.288   9.368
 5206TIP3    H137253   7.109   2.209   9.421
 5206TIP3    H237254   7.189   2.336   9.413
 5207TIP3   OH237255   6.027   2.423   9.533
 5207TIP3    H137256   6.091   2.491   9.566
 5207TIP3    H237257   6.080   2.382   9.460
 5208TIP3   OH237258   6.166   3.202   9.834
 5208TIP3    H137259   6.162   3.294   9.802
 5208TIP3    H237260   6.079   3.195   9.881
 5209TIP3   OH237261   5.773   3.164   8.914
 5209TIP3    H137262   5.753   3.199   8.825
 5209TIP3    H237263   5.782   3.246   8.967
 5210TIP3   OH237264   7.128   3.326   9.598
 5210TIP3    H137265   7.031   3.341   9.604
 5210TIP3    H237266   7.160   3.415   9.572
 5211TIP3   OH237267   7.161   2.170   9.716
 5211TIP3    H137268   7.085   2.232   9.719
 5211TIP3    H237269   7.229   2.219   9.670
 5212TIP3   OH237270   6.465   1.972   9.476
 5212TIP3    H137271   6.451   1.875   9.469
 5212TIP3    H237272   6.377   2.002   9.507
 5213TIP3   OH237273   6.959   3.505   9.253
 5213TIP3    H137274   7.004   3.436   9.201
 5213TIP3    H237275   7.004   3.584   9.215
 5214TIP3   OH237276   7.082   3.299   9.098
 5214TIP3    H137277   7.053   3.229   9.038
 5214TIP3    H237278   7.087   3.251   9.183
 5215TIP3   OH237279   7.224   3.171   9.959
 5215TIP3    H137280   7.254   3.103   9.896
 5215TIP3    H237281   7.264   3.250   9.916
 5216TIP3   OH237282   6.690   2.850   8.924
 5216TIP3    H137283   6.627   2.913   8.884
 5216TIP3    H237284   6.765   2.859   8.862
 5217TIP3   OH237285   6.700   2.705   8.635
 5217TIP3    H137286   6.772   2.705   8.699
 5217TIP3    H237287   6.732   2.641   8.572
 5218TIP3   OH237288   7.038   2.874   9.018
 5218TIP3    H137289   6.966   2.898   9.080
 5218TIP3    H237290   7.086   2.808   9.073
 5219TIP3   OH237291   7.027   2.686   9.931
 5219TIP3    H137292   7.031   2.767   9.983
 5219TIP3    H237293   6.968   2.718   9.860
 5220TIP3   OH237294   6.203   2.941   9.210
 5220TIP3    H137295   6.158   2.903   9.131
 5220TIP3    H237296   6.255   2.873   9.258
 5221TIP3   OH237297   6.332   3.277   9.481
 5221TIP3    H137298   6.332   3.226   9.398
 5221TIP3    H237299   6.411   3.240   9.525
 5222TIP3   OH237300   6.233   2.813   9.576
 5222TIP3    H137301   6.291   2.824   9.499
 5222TIP3    H237302   6.271   2.878   9.639
 5223TIP3   OH237303   6.871   3.370   9.647
 5223TIP3    H137304   6.849   3.434   9.715
 5223TIP3    H237305   6.850   3.284   9.690
 5224TIP3   OH237306   6.329   3.256  10.049
 5224TIP3    H137307   6.286   3.330  10.094
 5224TIP3    H237308   6.263   3.235   9.978
 5225TIP3   OH237309   6.930   2.789   8.785
 5225TIP3    H137310   6.981   2.812   8.866
 5225TIP3    H237311   6.968   2.846   8.715
 5226TIP3   OH237312   6.022   2.870   9.964
 5226TIP3    H137313   6.027   2.937  10.035
 5226TIP3    H237314   5.929   2.879   9.940
 5227TIP3   OH237315   6.697   3.463   9.137
 5227TIP3    H137316   6.742   3.496   9.216
 5227TIP3    H237317   6.643   3.537   9.108
 5228TIP3   OH237318   6.156   3.455  10.121
 5228TIP3    H137319   6.148   3.448  10.024
 5228TIP3    H237320   6.063   3.447  10.150
 5229TIP3   OH237321   7.274   1.956   8.767
 5229TIP3    H137322   7.187   1.981   8.802
 5229TIP3    H237323   7.308   2.039   8.732
 5230TIP3   OH237324   6.102   2.837   8.973
 5230TIP3    H137325   6.071   2.916   8.922
 5230TIP3    H237326   6.032   2.774   8.949
 5231TIP3   OH237327   5.708   3.083   9.862
 5231TIP3    H137328   5.662   3.076   9.776
 5231TIP3    H237329   5.714   2.988   9.884
 5232TIP3   OH237330   5.683   3.356   9.540
 5232TIP3    H137331   5.778   3.345   9.538
 5232TIP3    H237332   5.674   3.438   9.591
 5233TIP3   OH237333   6.602   3.380   9.996
 5233TIP3    H137334   6.608   3.465  10.046
 5233TIP3    H237335   6.515   3.344  10.020
 5234TIP3   OH237336   6.645   3.756   8.975
 5234TIP3    H137337   6.640   3.748   8.878
 5234TIP3    H237338   6.651   3.852   8.991
 5235TIP3   OH237339   6.011   3.643   9.157
 5235TIP3    H137340   6.025   3.602   9.245
 5235TIP3    H237341   5.926   3.602   9.134
 5236TIP3   OH237342   6.973   3.682   8.686
 5236TIP3    H137343   6.990   3.604   8.628
 5236TIP3    H237344   6.955   3.643   8.772
 5237TIP3   OH237345   6.920   3.673   8.956
 5237TIP3    H137346   6.823   3.676   8.967
 5237TIP3    H237347   6.944   3.595   9.006
 5238TIP3   OH237348   7.187   2.583  10.159
 5238TIP3    H137349   7.171   2.621  10.073
 5238TIP3    H237350   7.229   2.497  10.135
 5239TIP3   OH237351   5.936   3.214   9.959
 5239TIP3    H137352   5.957   3.178  10.048
 5239TIP3    H237353   5.848   3.174   9.937
 5240TIP3   OH237354   6.203   2.063   9.551
 5240TIP3    H137355   6.113   2.049   9.515
 5240TIP3    H237356   6.189   2.145   9.602
 5241TIP3   OH237357   6.667   2.030   9.888
 5241TIP3    H137358   6.707   1.986   9.966
 5241TIP3    H237359   6.570   2.017   9.902
 5242TIP3   OH237360   6.992   2.413   9.975
 5242TIP3    H137361   6.941   2.394  10.057
 5242TIP3    H237362   6.979   2.508   9.957
 5243TIP3   OH237363   7.083   2.895   8.570
 5243TIP3    H137364   7.079   2.884   8.474
 5243TIP3    H237365   7.163   2.947   8.579
 5244TIP3   OH237366   6.632   2.287   8.623
 5244TIP3    H137367   6.600   2.281   8.714
 5244TIP3    H237368   6.605   2.199   8.593
 5245TIP3   OH237369   6.213   2.560   9.676
 5245TIP3    H137370   6.141   2.558   9.742
 5245TIP3    H237371   6.208   2.651   9.641
 5246TIP3   OH237372   6.209   2.575   9.158
 5246TIP3    H137373   6.115   2.542   9.152
 5246TIP3    H237374   6.245   2.530   9.077
 5247TIP3   OH237375   6.762   2.620   9.037
 5247TIP3    H137376   6.725   2.704   9.003
 5247TIP3    H237377   6.833   2.603   8.972
 5248TIP3   OH237378   6.664   2.638  10.187
 5248TIP3    H137379   6.615   2.562  10.219
 5248TIP3    H237380   6.751   2.632  10.232
 5249TIP3   OH237381   6.865   2.572   9.327
 5249TIP3    H137382   6.840   2.627   9.252
 5249TIP3    H237383   6.874   2.486   9.280
 5250TIP3   OH237384   5.975   2.584   9.845
 5250TIP3    H137385   5.984   2.623   9.933
 5250TIP3    H237386   5.932   2.499   9.866
 5251TIP3   OH237387   6.331   2.347   8.564
 5251TIP3    H137388   6.275   2.284   8.615
 5251TIP3    H237389   6.271   2.385   8.499
 5252TIP3   OH237390   5.642   2.299   9.243
 5252TIP3    H137391   5.710   2.290   9.313
 5252TIP3    H237392   5.685   2.257   9.166
 5253TIP3   OH237393   5.771   2.368   8.780
 5253TIP3    H137394   5.820   2.426   8.720
 5253TIP3    H237395   5.702   2.430   8.812
 5254TIP3   OH237396   6.785   2.728   9.778
 5254TIP3    H137397   6.824   2.658   9.721
 5254TIP3    H237398   6.738   2.676   9.846
 5255TIP3   OH237399   6.463   2.332   9.266
 5255TIP3    H137400   6.370   2.324   9.296
 5255TIP3    H237401   6.513   2.308   9.345
 5256TIP3   OH237402   5.950   2.483   9.147
 5256TIP3    H137403   5.859   2.496   9.112
 5256TIP3    H237404   5.973   2.395   9.112
 5257TIP3   OH237405   6.308   2.498   8.921
 5257TIP3    H137406   6.406   2.492   8.926
 5257TIP3    H237407   6.287   2.548   8.840
 5258TIP3   OH237408   6.902   2.247   9.587
 5258TIP3    H137409   6.835   2.254   9.658
 5258TIP3    H237410   6.851   2.226   9.508
 5259TIP3   OH237411   6.181   2.604   8.675
 5259TIP3    H137412   6.124   2.569   8.603
 5259TIP3    H237413   6.263   2.625   8.626
 5260TIP3   OH237414   7.223   3.812  10.220
 5260TIP3    H137415   7.253   3.852  10.137
 5260TIP3    H237416   7.291   3.844  10.282
 5261TIP3   OH237417   5.994   3.060  10.177
 5261TIP3    H137418   6.064   3.088  10.238
 5261TIP3    H237419   5.917   3.071  10.235
 5262TIP3   OH237420   6.590   2.600   9.450
 5262TIP3    H137421   6.656   2.549   9.402
 5262TIP3    H237422   6.579   2.549   9.531
 5263TIP3   OH237423   6.095   2.218   9.099
 5263TIP3    H137424   6.063   2.126   9.097
 5263TIP3    H237425   6.173   2.208   9.042
 5264TIP3   OH237426   6.457   2.435   9.696
 5264TIP3    H137427   6.375   2.487   9.703
 5264TIP3    H237428   6.512   2.471   9.767
 5265TIP3   OH237429   6.517   3.054   8.867
 5265TIP3    H137430   6.436   3.013   8.830
 5265TIP3    H237431   6.493   3.073   8.960
 5266TIP3   OH237432   7.220   2.983   9.745
 5266TIP3    H137433   7.284   3.001   9.673
 5266TIP3    H237434   7.137   2.980   9.693
 5267TIP3   OH237435   6.901   2.335   8.684
 5267TIP3    H137436   6.807   2.351   8.664
 5267TIP3    H237437   6.928   2.424   8.714
 5268TIP3   OH237438   6.665   3.082   9.987
 5268TIP3    H137439   6.631   3.040  10.067
 5268TIP3    H237440   6.642   3.175   9.999
 5269TIP3   OH237441   6.973   2.531   8.842
 5269TIP3    H137442   7.059   2.520   8.887
 5269TIP3    H237443   6.980   2.617   8.798
 5270TIP3   OH237444   6.026   2.996   9.444
 5270TIP3    H137445   6.096   2.990   9.376
 5270TIP3    H237446   6.032   2.911   9.492
 5271TIP3   OH237447   6.726   3.202   8.775
 5271TIP3    H137448   6.689   3.289   8.802
 5271TIP3    H237449   6.651   3.141   8.789
 5272TIP3   OH237450   5.725   2.838   9.971
 5272TIP3    H137451   5.743   2.792  10.055
 5272TIP3    H237452   5.664   2.776   9.927
 5273TIP3   OH237453   6.425   2.786  10.191
 5273TIP3    H137454   6.395   2.766  10.101
 5273TIP3    H237455   6.520   2.766  10.186
 5274TIP3   OH237456   6.893   3.324   9.982
 5274TIP3    H137457   6.802   3.344   9.960
 5274TIP3    H237458   6.895   3.355  10.075
 5275TIP3   OH237459   7.281   3.427   8.864
 5275TIP3    H137460   7.250   3.343   8.897
 5275TIP3    H237461   7.321   3.409   8.778
 5276TIP3   OH237462   7.006   2.906   9.575
 5276TIP3    H137463   6.912   2.885   9.559
 5276TIP3    H237464   7.053   2.833   9.530
 5277TIP3   OH237465   6.265   3.339   9.181
 5277TIP3    H137466   6.314   3.421   9.163
 5277TIP3    H237467   6.177   3.364   9.150
 5278TIP3   OH237468   5.835   2.831   8.632
 5278TIP3    H137469   5.899   2.889   8.677
 5278TIP3    H237470   5.751   2.855   8.673
 5279TIP3   OH237471   6.404   3.107   9.134
 5279TIP3    H137472   6.377   3.201   9.143
 5279TIP3    H237473   6.331   3.065   9.182
 5280TIP3   OH237474   6.450   3.527   9.776
 5280TIP3    H137475   6.497   3.607   9.747
 5280TIP3    H237476   6.512   3.492   9.842
 5281TIP3   OH237477   6.275   3.608   9.087
 5281TIP3    H137478   6.178   3.621   9.102
 5281TIP3    H237479   6.310   3.691   9.122
 5282TIP3   OH237480   6.804   3.126   9.737
 5282TIP3    H137481   6.771   3.108   9.827
 5282TIP3    H237482   6.867   3.054   9.721
 5283TIP3   OH237483   7.034   3.226   8.650
 5283TIP3    H137484   7.061   3.186   8.734
 5283TIP3    H237485   6.937   3.217   8.656
 5284TIP3   OH237486   7.080   3.589   9.986
 5284TIP3    H137487   7.016   3.535   9.937
 5284TIP3    H237488   7.105   3.655   9.919
 5285TIP3   OH237489   5.898   2.314   9.920
 5285TIP3    H137490   5.804   2.343   9.925
 5285TIP3    H237491   5.880   2.229   9.969
 5286TIP3   OH237492   7.115   3.095   8.872
 5286TIP3    H137493   7.089   3.015   8.924
 5286TIP3    H237494   7.209   3.102   8.895
 5287TIP3   OH237495   5.852   3.488   9.768
 5287TIP3    H137496   5.884   3.397   9.769
 5287TIP3    H237497   5.879   3.518   9.856
 5288TIP3   OH237498   6.326   3.299   8.739
 5288TIP3    H137499   6.354   3.243   8.812
 5288TIP3    H237500   6.335   3.389   8.774
 5289TIP3   OH237501   5.979   3.020   8.789
 5289TIP3    H137502   5.909   3.062   8.844
 5289TIP3    H237503   6.032   3.097   8.761
 5290TIP3   OH237504   6.762   2.287   9.823
 5290TIP3    H137505   6.837   2.294   9.883
 5290TIP3    H237506   6.725   2.199   9.842
 5291TIP3   OH237507   6.839   2.244   8.931
 5291TIP3    H137508   6.863   2.291   8.848
 5291TIP3    H237509   6.896   2.288   8.995
 5292TIP3   OH237510   6.608   3.466   8.842
 5292TIP3    H137511   6.524   3.511   8.823
 5292TIP3    H237512   6.654   3.498   8.759
 5293TIP3   OH237513   6.556   2.425   9.012
 5293TIP3    H137514   6.639   2.476   9.014
 5293TIP3    H237515   6.537   2.403   9.105
 5294TIP3   OH237516   6.619   2.522   9.930
 5294TIP3    H137517   6.629   2.580  10.008
 5294TIP3    H237518   6.685   2.452   9.939
 5295TIP3   OH237519   6.643   2.126   9.098
 5295TIP3    H137520   6.615   2.189   9.166
 5295TIP3    H237521   6.714   2.179   9.055
 5296TIP3   OH237522   6.344   3.566   8.815
 5296TIP3    H137523   6.362   3.648   8.765
 5296TIP3    H237524   6.320   3.600   8.904
 5297TIP3   OH237525   6.213   2.233   8.777
 5297TIP3    H137526   6.205   2.325   8.809
 5297TIP3    H237527   6.305   2.212   8.802
 5298TIP3   OH237528   7.230   2.301  10.006
 5298TIP3    H137529   7.141   2.343  10.002
 5298TIP3    H237530   7.264   2.314   9.917
 5299TIP3   OH237531   7.098   2.689   9.422
 5299TIP3    H137532   7.015   2.646   9.390
 5299TIP3    H237533   7.137   2.614   9.470
 5300TIP3   OH237534   6.038   3.282   8.676
 5300TIP3    H137535   6.105   3.343   8.708
 5300TIP3    H237536   6.089   3.233   8.608
 5301TIP3   OH237537   5.875   2.549   8.596
 5301TIP3    H137538   5.873   2.645   8.607
 5301TIP3    H237539   5.789   2.529   8.559
 5302TIP3   OH237540   7.207   3.615   9.584
 5302TIP3    H137541   7.190   3.683   9.517
 5302TIP3    H237542   7.301   3.624   9.602
 5303TIP3   OH237543   5.951   2.026   9.465
 5303TIP3    H137544   5.933   2.027   9.368
 5303TIP3    H237545   5.910   1.941   9.490
 5304TIP3   OH237546   5.847   3.418   9.079
 5304TIP3    H137547   5.762   3.462   9.075
 5304TIP3    H237548   5.894   3.464   9.008
 5305TIP3   OH237549   5.768   3.685  10.209
 5305TIP3    H137550   5.827   3.662  10.283
 5305TIP3    H237551   5.729   3.598  10.186
 5306TIP3   OH237552   6.238   3.574  10.363
 5306TIP3    H137553   6.312   3.527  10.399
 5306TIP3    H237554   6.232   3.546  10.270
 5307TIP3   OH237555   6.637   3.498   8.601
 5307TIP3    H137556   6.572   3.452   8.549
 5307TIP3    H237557   6.710   3.501   8.532
 5308TIP3   OH237558   6.889   3.412  10.242
 5308TIP3    H137559   6.855   3.325  10.271
 5308TIP3    H237560   6.964   3.426  10.303
 5309TIP3   OH237561   7.104   3.497   8.528
 5309TIP3    H137562   7.133   3.419   8.577
 5309TIP3    H237563   7.180   3.530   8.478
 5310TIP3   OH237564   5.751   3.054  10.313
 5310TIP3    H137565   5.778   2.970  10.272
 5310TIP3    H237566   5.689   3.088  10.245
 5311TIP3   OH237567   6.201   3.102   8.523
 5311TIP3    H137568   6.207   3.018   8.569
 5311TIP3    H237569   6.258   3.081   8.446
 5312TIP3   OH237570   6.431   3.058  10.245
 5312TIP3    H137571   6.398   3.092  10.160
 5312TIP3    H237572   6.438   2.961  10.231
 5313TIP3   OH237573   6.996   3.042   9.980
 5313TIP3    H137574   7.076   3.101   9.977
 5313TIP3    H237575   6.930   3.112   9.990
 5314TIP3   OH237576   5.853   2.786  10.245
 5314TIP3    H137577   5.891   2.699  10.231
 5314TIP3    H237578   5.822   2.779  10.335
 5315TIP3   OH237579   6.318   2.898   8.755
 5315TIP3    H137580   6.260   2.844   8.809
 5315TIP3    H237581   6.347   2.833   8.686
 5316TIP3   OH237582   6.242   2.676   9.983
 5316TIP3    H137583   6.182   2.747  10.009
 5316TIP3    H237584   6.280   2.713   9.901
 5317TIP3   OH237585   6.423   2.722   8.573
 5317TIP3    H137586   6.411   2.701   8.480
 5317TIP3    H237587   6.521   2.728   8.582
 5318TIP3   OH237588   6.743   2.934  10.320
 5318TIP3    H137589   6.838   2.934  10.301
 5318TIP3    H237590   6.733   2.854  10.374
 5319TIP3   OH237591   6.281   2.416  10.088
 5319TIP3    H137592   6.293   2.345  10.021
 5319TIP3    H237593   6.275   2.496  10.032
 5320TIP3   OH237594   6.322   2.254   9.844
 5320TIP3    H137595   6.373   2.299   9.772
 5320TIP3    H237596   6.232   2.245   9.805
 5321TIP3   OH237597   6.477   2.803   9.867
 5321TIP3    H137598   6.551   2.786   9.808
 5321TIP3    H237599   6.440   2.886   9.834
 5322TIP3   OH237600   6.910   2.578  10.360
 5322TIP3    H137601   6.940   2.486  10.357
 5322TIP3    H237602   6.998   2.622  10.361
 5323TIP3   OH237603   7.045   2.858  10.176
 5323TIP3    H137604   7.024   2.931  10.115
 5323TIP3    H237605   7.141   2.853  10.161
 5324TIP3   OH237606   6.132   2.539  10.280
 5324TIP3    H137607   6.052   2.484  10.266
 5324TIP3    H237608   6.191   2.502  10.212
 5325TIP3   OH237609   6.402   1.998   9.879
 5325TIP3    H137610   6.383   2.094   9.870
 5325TIP3    H237611   6.326   1.961   9.831
 5326TIP3   OH237612   6.798   2.349  10.158
 5326TIP3    H137613   6.702   2.342  10.162
 5326TIP3    H237614   6.832   2.280  10.219
 5327TIP3   OH237615   6.962   2.206  10.344
 5327TIP3    H137616   6.952   2.109  10.344
 5327TIP3    H237617   6.932   2.237  10.432
 5328TIP3   OH237618   5.942   2.333  10.255
 5328TIP3    H137619   5.954   2.260  10.191
 5328TIP3    H237620   5.925   2.285  10.337
 5329TIP3   OH237621   6.423   1.938  10.152
 5329TIP3    H137622   6.489   1.867  10.146
 5329TIP3    H237623   6.409   1.954  10.057
 5330TIP3   OH237624   6.404   3.791   8.673
 5330TIP3    H137625   6.501   3.798   8.686
 5330TIP3    H237626   6.388   3.856   8.604
 5331TIP3   OH237627   5.761   3.245   8.628
 5331TIP3    H137628   5.856   3.258   8.648
 5331TIP3    H237629   5.769   3.190   8.549
 5332TIP3   OH237630   5.638   3.785   9.123
 5332TIP3    H137631   5.566   3.736   9.077
 5332TIP3    H237632   5.666   3.719   9.190
 5333TIP3   OH237633   5.721   3.599   9.311
 5333TIP3    H137634   5.685   3.511   9.331
 5333TIP3    H237635   5.745   3.631   9.399
 5334TIP3   OH237636   7.258   3.221  10.353
 5334TIP3    H137637   7.179   3.206  10.407
 5334TIP3    H237638   7.307   3.285  10.407
 5335TIP3   OH237639   7.273   3.402   9.828
 5335TIP3    H137640   7.207   3.447   9.882
 5335TIP3    H237641   7.220   3.369   9.752
 5336TIP3   OH237642   7.300   2.558   8.591
 5336TIP3    H137643   7.322   2.622   8.521
 5336TIP3    H237644   7.284   2.474   8.545
 5337TIP3   OH237645   7.189   2.704   9.157
 5337TIP3    H137646   7.204   2.608   9.160
 5337TIP3    H237647   7.188   2.725   9.252
 5338TIP3   OH237648   5.726   2.902   9.559
 5338TIP3    H137649   5.748   2.900   9.463
 5338TIP3    H237650   5.816   2.890   9.596
 5339TIP3   OH237651  -0.040   2.897  10.150
 5339TIP3    H137652   0.018   2.819  10.148
 5339TIP3    H237653   0.014   2.970  10.117
 5340TIP3   OH237654   7.225   2.305   8.505
 5340TIP3    H137655   7.290   2.258   8.561
 5340TIP3    H237656   7.144   2.256   8.521
 5341TIP3   OH237657   7.190   2.453   8.989
 5341TIP3    H137658   7.219   2.367   9.024
 5341TIP3    H237659   7.270   2.489   8.950
 5342TIP3   OH237660   7.216   2.459   9.539
 5342TIP3    H137661   7.310   2.471   9.521
 5342TIP3    H237662   7.217   2.509   9.622
 5343TIP3   OH237663   7.262   2.584   9.837
 5343TIP3    H137664   7.171   2.614   9.856
 5343TIP3    H237665   7.302   2.661   9.792
 5344TIP3   OH237666   5.688   2.438  10.184
 5344TIP3    H137667   5.781   2.410  10.193
 5344TIP3    H237668   5.643   2.353  10.200
 5345TIP3   OH237669   7.179   2.165   9.058
 5345TIP3    H137670   7.267   2.138   9.091
 5345TIP3    H237671   7.176   2.111   8.976
 5346TIP3   OH237672   5.806   2.267   9.462
 5346TIP3    H137673   5.851   2.183   9.487
 5346TIP3    H237674   5.865   2.334   9.499
 5347TIP3   OH237675   5.631   2.573   9.554
 5347TIP3    H137676   5.697   2.539   9.490
 5347TIP3    H237677   5.685   2.644   9.593
 5348TIP3   OH237678   5.672   2.191   8.970
 5348TIP3    H137679   5.578   2.210   8.959
 5348TIP3    H237680   5.714   2.241   8.898
 5349TIP3   OH237681   7.134   3.674   9.172
 5349TIP3    H137682   7.199   3.639   9.110
 5349TIP3    H237683   7.188   3.731   9.229
 5350TIP3   OH237684   5.651   2.042   9.777
 5350TIP3    H137685   5.619   2.043   9.870
 5350TIP3    H237686   5.620   2.129   9.749
 5351TIP3   OH237687   5.890   3.378  10.220
 5351TIP3    H137688   5.808   3.401  10.175
 5351TIP3    H237689   5.863   3.372  10.311
 5352TIP3   OH237690   6.180   3.477   9.843
 5352TIP3    H137691   6.149   3.565   9.818
 5352TIP3    H237692   6.274   3.486   9.815
 5353TIP3   OH237693   6.615   3.619  10.138
 5353TIP3    H137694   6.634   3.584  10.225
 5353TIP3    H237695   6.704   3.651  10.110
 5354TIP3   OH237696   6.845   3.747  10.067
 5354TIP3    H137697   6.919   3.689  10.043
 5354TIP3    H237698   6.881   3.791  10.147
 5355TIP3   OH237699   5.924   3.801   9.844
 5355TIP3    H137700   5.851   3.851   9.804
 5355TIP3    H237701   5.893   3.783   9.933
 5356TIP3   OH237702   6.171   3.759   9.751
 5356TIP3    H137703   6.082   3.775   9.790
 5356TIP3    H237704   6.166   3.818   9.674
 5357TIP3   OH237705   6.642   3.750   9.668
 5357TIP3    H137706   6.595   3.806   9.604
 5357TIP3    H237707   6.655   3.813   9.742
 5358TIP3   OH237708   6.871   3.630   9.770
 5358TIP3    H137709   6.785   3.657   9.735
 5358TIP3    H237710   6.917   3.715   9.764
 5359TIP3   OH237711   7.128   3.793   9.796
 5359TIP3    H137712   7.118   3.887   9.771
 5359TIP3    H237713   7.153   3.752   9.710
 5360TIP3   OH237714   5.871   3.666   9.538
 5360TIP3    H137715   5.862   3.621   9.625
 5360TIP3    H237716   5.952   3.628   9.500
 5361TIP3   OH237717   6.078   3.537   9.404
 5361TIP3    H137718   6.061   3.444   9.427
 5361TIP3    H237719   6.163   3.553   9.449
 5362TIP3   OH237720   6.336   3.585   9.491
 5362TIP3    H137721   6.354   3.493   9.465
 5362TIP3    H237722   6.342   3.580   9.587
 5363TIP3   OH237723   6.683   2.151   9.404
 5363TIP3    H137724   6.616   2.087   9.433
 5363TIP3    H237725   6.739   2.097   9.347
 5364TIP3   OH237726   7.199   1.954   9.415
 5364TIP3    H137727   7.253   2.019   9.369
 5364TIP3    H237728   7.109   1.988   9.392
 5365TIP3   OH237729   5.921   2.013   9.191
 5365TIP3    H137730   5.841   1.994   9.137
 5365TIP3    H237731   5.966   1.927   9.185
 5366TIP3   OH237732   5.793   1.989   8.761
 5366TIP3    H137733   5.846   2.053   8.708
 5366TIP3    H237734   5.741   2.047   8.818
 5367TIP3   OH237735   6.367   2.006   9.169
 5367TIP3    H137736   6.457   2.041   9.161
 5367TIP3    H237737   6.364   1.984   9.262
 5368TIP3   OH237738   6.944   2.004   9.329
 5368TIP3    H137739   6.935   2.020   9.234
 5368TIP3    H237740   6.900   1.917   9.343
 5369TIP3   OH237741   7.057   2.004   8.889
 5369TIP3    H137742   6.986   2.070   8.884
 5369TIP3    H237743   7.013   1.922   8.920
 5370TIP3   OH237744   5.789   3.584   8.864
 5370TIP3    H137745   5.721   3.584   8.794
 5370TIP3    H237746   5.792   3.679   8.879
 5371TIP3   OH237747   5.979   2.174   8.617
 5371TIP3    H137748   6.034   2.120   8.560
 5371TIP3    H237749   6.045   2.217   8.674
 5372TIP3   OH237750   6.483   2.207   8.854
 5372TIP3    H137751   6.510   2.149   8.928
 5372TIP3    H237752   6.491   2.293   8.900
 5373TIP3   OH237753   6.675   3.741   8.696
 5373TIP3    H137754   6.771   3.741   8.680
 5373TIP3    H237755   6.656   3.665   8.636
 5374TIP3   OH237756   5.951   2.046  10.129
 5374TIP3    H137757   5.880   1.999  10.178
 5374TIP3    H237758   6.020   2.058  10.195
 5375TIP3   OH237759   6.125   2.008  10.316
 5375TIP3    H137760   6.199   1.967  10.270
 5375TIP3    H237761   6.070   1.930  10.341
 5376TIP3   OH237762   5.972   3.682   8.560
 5376TIP3    H137763   5.941   3.709   8.647
 5376TIP3    H237764   6.048   3.627   8.577
 5377TIP3   OH237765   6.952   1.937  10.313
 5377TIP3    H137766   6.961   1.888  10.395
 5377TIP3    H237767   7.041   1.933  10.273
 5378TIP3   OH237768   7.261   3.534  10.186
 5378TIP3    H137769   7.188   3.522  10.123
 5378TIP3    H237770   7.252   3.632  10.199
 5379TIP3   OH237771   1.173   4.813   9.175
 5379TIP3    H137772   1.171   4.911   9.172
 5379TIP3    H237773   1.100   4.790   9.116
 5380TIP3   OH237774   1.058   4.737   9.525
 5380TIP3    H137775   1.057   4.673   9.598
 5380TIP3    H237776   1.022   4.687   9.451
 5381TIP3   OH237777   0.297   4.705   9.678
 5381TIP3    H137778   0.302   4.636   9.748
 5381TIP3    H237779   0.370   4.763   9.703
 5382TIP3   OH237780   1.426   5.033   9.354
 5382TIP3    H137781   1.384   4.962   9.403
 5382TIP3    H237782   1.429   5.104   9.421
 5383TIP3   OH237783   0.381   5.151   9.531
 5383TIP3    H137784   0.351   5.064   9.500
 5383TIP3    H237785   0.477   5.133   9.536
 5384TIP3   OH237786   0.071   4.509   9.053
 5384TIP3    H137787   0.020   4.588   9.083
 5384TIP3    H237788  -0.002   4.451   9.038
 5385TIP3   OH237789   0.118   4.724   9.291
 5385TIP3    H137790   0.146   4.647   9.342
 5385TIP3    H237791   0.192   4.738   9.230
 5386TIP3   OH237792   1.138   5.549   9.378
 5386TIP3    H137793   1.203   5.480   9.350
 5386TIP3    H237794   1.116   5.516   9.465
 5387TIP3   OH237795   0.895   4.978   9.574
 5387TIP3    H137796   0.929   4.915   9.507
 5387TIP3    H237797   0.977   4.994   9.625
 5388TIP3   OH237798   1.756   4.145   9.644
 5388TIP3    H137799   1.772   4.203   9.721
 5388TIP3    H237800   1.813   4.188   9.579
 5389TIP3   OH237801   1.211   4.425   9.605
 5389TIP3    H137802   1.229   4.330   9.606
 5389TIP3    H237803   1.202   4.439   9.508
 5390TIP3   OH237804   0.525   4.233   9.326
 5390TIP3    H137805   0.535   4.317   9.277
 5390TIP3    H237806   0.484   4.176   9.257
 5391TIP3   OH237807   1.297   4.242   9.163
 5391TIP3    H137808   1.362   4.210   9.230
 5391TIP3    H237809   1.354   4.299   9.109
 5392TIP3   OH237810   0.188   4.472   9.391
 5392TIP3    H137811   0.255   4.423   9.443
 5392TIP3    H237812   0.204   4.439   9.302
 5393TIP3   OH237813   0.701   4.630   9.332
 5393TIP3    H137814   0.769   4.573   9.370
 5393TIP3    H237815   0.650   4.565   9.280
 5394TIP3   OH237816   1.813   4.292   9.870
 5394TIP3    H137817   1.736   4.353   9.861
 5394TIP3    H237818   1.801   4.274   9.965
 5395TIP3   OH237819   0.415   4.124   9.729
 5395TIP3    H137820   0.387   4.181   9.654
 5395TIP3    H237821   0.346   4.147   9.796
 5396TIP3   OH237822   1.142   5.071   9.085
 5396TIP3    H137823   1.115   5.044   8.995
 5396TIP3    H237824   1.112   5.165   9.089
 5397TIP3   OH237825   0.667   4.888   9.754
 5397TIP3    H137826   0.595   4.951   9.776
 5397TIP3    H237827   0.737   4.949   9.724
 5398TIP3   OH237828   1.478   4.177   9.364
 5398TIP3    H137829   1.457   4.100   9.418
 5398TIP3    H237830   1.546   4.220   9.418
 5399TIP3   OH237831   0.370   4.306   9.533
 5399TIP3    H137832   0.429   4.377   9.566
 5399TIP3    H237833   0.425   4.269   9.460
 5400TIP3   OH237834   0.509   5.088   9.833
 5400TIP3    H137835   0.504   5.180   9.801
 5400TIP3    H237836   0.421   5.081   9.878
 5401TIP3   OH237837   0.119   5.056   8.912
 5401TIP3    H137838   0.097   5.086   8.822
 5401TIP3    H237839   0.125   5.136   8.967
 5402TIP3   OH237840   1.479   5.217   9.591
 5402TIP3    H137841   1.382   5.228   9.603
 5402TIP3    H237842   1.506   5.308   9.570
 5403TIP3   OH237843   1.509   4.044   9.723
 5403TIP3    H137844   1.439   4.111   9.721
 5403TIP3    H237845   1.583   4.089   9.680
 5404TIP3   OH237846   0.808   3.858   9.476
 5404TIP3    H137847   0.794   3.761   9.469
 5404TIP3    H237848   0.720   3.888   9.507
 5405TIP3   OH237849   1.305   5.395   9.250
 5405TIP3    H137850   1.348   5.323   9.199
 5405TIP3    H237851   1.350   5.474   9.212
 5406TIP3   OH237852   1.427   5.188   9.101
 5406TIP3    H137853   1.397   5.119   9.039
 5406TIP3    H237854   1.430   5.138   9.185
 5407TIP3   OH237855   1.590   5.048   9.952
 5407TIP3    H137856   1.603   4.982   9.880
 5407TIP3    H237857   1.609   5.132   9.905
 5408TIP3   OH237858   1.037   4.737   8.926
 5408TIP3    H137859   0.968   4.795   8.886
 5408TIP3    H237860   1.109   4.746   8.860
 5409TIP3   OH237861   1.042   4.590   8.635
 5409TIP3    H137862   1.115   4.590   8.699
 5409TIP3    H237863   1.075   4.526   8.572
 5410TIP3   OH237864   1.778   4.679   9.756
 5410TIP3    H137865   1.711   4.750   9.760
 5410TIP3    H237866   1.826   4.702   9.674
 5411TIP3   OH237867   1.383   4.758   9.021
 5411TIP3    H137868   1.308   4.782   9.081
 5411TIP3    H237869   1.430   4.690   9.073
 5412TIP3   OH237870   1.374   4.575   9.932
 5412TIP3    H137871   1.377   4.657   9.984
 5412TIP3    H237872   1.312   4.605   9.862
 5413TIP3   OH237873   0.546   4.824   9.211
 5413TIP3    H137874   0.510   4.784   9.129
 5413TIP3    H237875   0.606   4.754   9.245
 5414TIP3   OH237876   0.676   5.161   9.479
 5414TIP3    H137877   0.675   5.109   9.398
 5414TIP3    H237878   0.754   5.126   9.525
 5415TIP3   OH237879   0.578   4.698   9.578
 5415TIP3    H137880   0.632   4.708   9.497
 5415TIP3    H237881   0.616   4.766   9.638
 5416TIP3   OH237882   1.219   5.255   9.648
 5416TIP3    H137883   1.190   5.319   9.714
 5416TIP3    H237884   1.193   5.170   9.690
 5417TIP3   OH237885   0.673   5.139  10.048
 5417TIP3    H137886   0.632   5.214  10.096
 5417TIP3    H237887   0.605   5.120   9.978
 5418TIP3   OH237888   1.271   4.677   8.786
 5418TIP3    H137889   1.325   4.696   8.867
 5418TIP3    H237890   1.312   4.731   8.717
 5419TIP3   OH237891   0.370   4.760   9.971
 5419TIP3    H137892   0.369   4.825  10.044
 5419TIP3    H237893   0.278   4.766   9.939
 5420TIP3   OH237894   1.041   5.349   9.135
 5420TIP3    H137895   1.085   5.381   9.214
 5420TIP3    H237896   0.986   5.424   9.108
 5421TIP3   OH237897   0.496   5.343  10.120
 5421TIP3    H137898   0.487   5.334  10.024
 5421TIP3    H237899   0.403   5.332  10.150
 5422TIP3   OH237900   1.645   3.851   8.784
 5422TIP3    H137901   1.547   3.860   8.794
 5422TIP3    H237902   1.660   3.931   8.731
 5423TIP3   OH237903   0.443   4.725   8.970
 5423TIP3    H137904   0.414   4.804   8.920
 5423TIP3    H237905   0.375   4.660   8.949
 5424TIP3   OH237906   1.753   5.282   8.612
 5424TIP3    H137907   1.763   5.379   8.625
 5424TIP3    H237908   1.847   5.259   8.608
 5425TIP3   OH237909   0.093   4.960   9.842
 5425TIP3    H137910   0.020   4.965   9.778
 5425TIP3    H237911   0.067   4.875   9.881
 5426TIP3   OH237912   0.043   5.258   9.521
 5426TIP3    H137913   0.131   5.225   9.542
 5426TIP3    H237914   0.024   5.316   9.596
 5427TIP3   OH237915   1.849   5.312  10.110
 5427TIP3    H137916   1.839   5.216  10.107
 5427TIP3    H237917   1.762   5.338  10.149
 5428TIP3   OH237918   0.946   5.264   9.997
 5428TIP3    H137919   0.951   5.349  10.047
 5428TIP3    H237920   0.856   5.232  10.018
 5429TIP3   OH237921   0.989   5.640   8.974
 5429TIP3    H137922   0.981   5.635   8.877
 5429TIP3    H237923   0.993   5.736   8.991
 5430TIP3   OH237924   0.354   5.529   9.156
 5430TIP3    H137925   0.368   5.486   9.243
 5430TIP3    H237926   0.271   5.486   9.130
 5431TIP3   OH237927   1.292   5.561   8.671
 5431TIP3    H137928   1.340   5.485   8.630
 5431TIP3    H237929   1.300   5.538   8.765
 5432TIP3   OH237930   1.264   5.556   8.951
 5432TIP3    H137931   1.168   5.562   8.970
 5432TIP3    H237932   1.289   5.481   9.008
 5433TIP3   OH237933   1.561   4.464  10.154
 5433TIP3    H137934   1.517   4.505  10.079
 5433TIP3    H237935   1.567   4.372  10.122
 5434TIP3   OH237936   0.279   5.106   9.959
 5434TIP3    H137937   0.296   5.064  10.045
 5434TIP3    H237938   0.195   5.063   9.930
 5435TIP3   OH237939   0.548   3.949   9.550
 5435TIP3    H137940   0.458   3.936   9.514
 5435TIP3    H237941   0.533   4.031   9.600
 5436TIP3   OH237942   1.010   3.915   9.890
 5436TIP3    H137943   1.050   3.873   9.968
 5436TIP3    H237944   0.913   3.903   9.903
 5437TIP3   OH237945   1.310   4.299   9.967
 5437TIP3    H137946   1.282   4.282  10.059
 5437TIP3    H237947   1.327   4.394   9.960
 5438TIP3   OH237948   1.423   4.786   8.571
 5438TIP3    H137949   1.421   4.767   8.475
 5438TIP3    H237950   1.507   4.830   8.583
 5439TIP3   OH237951   0.971   4.174   8.622
 5439TIP3    H137952   0.944   4.166   8.715
 5439TIP3    H237953   0.951   4.084   8.593
 5440TIP3   OH237954   0.557   4.445   9.678
 5440TIP3    H137955   0.483   4.444   9.741
 5440TIP3    H237956   0.550   4.536   9.640
 5441TIP3   OH237957   0.554   4.456   9.164
 5441TIP3    H137958   0.460   4.432   9.150
 5441TIP3    H237959   0.592   4.428   9.078
 5442TIP3   OH237960   1.106   4.506   9.038
 5442TIP3    H137961   1.065   4.590   9.005
 5442TIP3    H237962   1.174   4.491   8.970
 5443TIP3   OH237963   1.012   4.533  10.186
 5443TIP3    H137964   0.958   4.453  10.211
 5443TIP3    H237965   1.097   4.511  10.225
 5444TIP3   OH237966   1.209   4.456   9.325
 5444TIP3    H137967   1.180   4.512   9.252
 5444TIP3    H237968   1.218   4.371   9.278
 5445TIP3   OH237969   0.321   4.469   9.845
 5445TIP3    H137970   0.325   4.510   9.933
 5445TIP3    H237971   0.274   4.386   9.865
 5446TIP3   OH237972   0.674   4.231   8.560
 5446TIP3    H137973   0.620   4.170   8.615
 5446TIP3    H237974   0.611   4.269   8.500
 5447TIP3   OH237975   0.014   4.204   9.230
 5447TIP3    H137976   0.054   4.174   9.314
 5447TIP3    H237977   0.037   4.136   9.167
 5448TIP3   OH237978   0.115   4.264   8.777
 5448TIP3    H137979   0.168   4.319   8.716
 5448TIP3    H237980   0.043   4.323   8.802
 5449TIP3   OH237981   1.124   4.615   9.779
 5449TIP3    H137982   1.167   4.546   9.723
 5449TIP3    H237983   1.083   4.560   9.848
 5450TIP3   OH237984   0.809   4.213   9.264
 5450TIP3    H137985   0.715   4.212   9.293
 5450TIP3    H237986   0.857   4.195   9.346
 5451TIP3   OH237987   0.297   4.367   9.147
 5451TIP3    H137988   0.207   4.383   9.112
 5451TIP3    H237989   0.318   4.280   9.107
 5452TIP3   OH237990   0.652   4.374   8.913
 5452TIP3    H137991   0.748   4.383   8.930
 5452TIP3    H237992   0.630   4.439   8.845
 5453TIP3   OH237993   1.249   4.136   9.587
 5453TIP3    H137994   1.182   4.141   9.659
 5453TIP3    H237995   1.197   4.110   9.510
 5454TIP3   OH237996   0.526   4.489   8.673
 5454TIP3    H137997   0.470   4.455   8.601
 5454TIP3    H237998   0.607   4.511   8.625
 5455TIP3   OH237999   1.573   5.695  10.220
 5455TIP3    H138000   1.597   5.738  10.136
 5455TIP3    H238001   1.637   5.734  10.280
 5456TIP3   OH238002   0.338   4.948  10.176
 5456TIP3    H138003   0.409   4.971  10.238
 5456TIP3    H238004   0.262   4.958  10.237
 5457TIP3   OH238005   0.936   4.487   9.453
 5457TIP3    H138006   0.996   4.435   9.400
 5457TIP3    H238007   0.922   4.433   9.532
 5458TIP3   OH238008   0.437   4.103   9.097
 5458TIP3    H138009   0.405   4.010   9.095
 5458TIP3    H238010   0.516   4.095   9.042
 5459TIP3   OH238011   0.798   4.320   9.694
 5459TIP3    H138012   0.717   4.373   9.703
 5459TIP3    H238013   0.855   4.355   9.765
 5460TIP3   OH238014   0.860   4.940   8.867
 5460TIP3    H138015   0.779   4.896   8.833
 5460TIP3    H238016   0.836   4.954   8.961
 5461TIP3   OH238017   1.578   4.863   9.744
 5461TIP3    H138018   1.634   4.912   9.680
 5461TIP3    H238019   1.492   4.867   9.698
 5462TIP3   OH238020   1.242   4.223   8.690
 5462TIP3    H138021   1.151   4.238   8.664
 5462TIP3    H238022   1.277   4.310   8.713
 5463TIP3   OH238023   1.008   4.969   9.987
 5463TIP3    H138024   0.970   4.927  10.065
 5463TIP3    H238025   0.983   5.062   9.998
 5464TIP3   OH238026   1.316   4.420   8.852
 5464TIP3    H138027   1.406   4.401   8.884
 5464TIP3    H238028   1.326   4.499   8.796
 5465TIP3   OH238029   0.372   4.884   9.443
 5465TIP3    H138030   0.439   4.873   9.373
 5465TIP3    H238031   0.377   4.799   9.490
 5466TIP3   OH238032   1.069   5.089   8.772
 5466TIP3    H138033   1.032   5.174   8.804
 5466TIP3    H238034   0.995   5.026   8.789
 5467TIP3   OH238035   0.094   4.700   9.944
 5467TIP3    H138036   0.103   4.678  10.039
 5467TIP3    H238037   0.008   4.659   9.924
 5468TIP3   OH238038   0.775   4.681  10.185
 5468TIP3    H138039   0.738   4.647  10.102
 5468TIP3    H238040   0.865   4.645  10.183
 5469TIP3   OH238041   1.240   5.209   9.988
 5469TIP3    H138042   1.149   5.230   9.961
 5469TIP3    H238043   1.236   5.243  10.079
 5470TIP3   OH238044   1.805   4.428   8.823
 5470TIP3    H138045   1.748   4.397   8.751
 5470TIP3    H238046   1.812   4.522   8.797
 5471TIP3   OH238047   1.804   5.015  10.106
 5471TIP3    H138048   1.716   5.037  10.066
 5471TIP3    H238049   1.860   5.009  10.026
 5472TIP3   OH238050   1.635   5.313   8.862
 5472TIP3    H138051   1.598   5.230   8.894
 5472TIP3    H238052   1.664   5.293   8.771
 5473TIP3   OH238053   1.355   4.794   9.573
 5473TIP3    H138054   1.261   4.774   9.562
 5473TIP3    H238055   1.399   4.719   9.529
 5474TIP3   OH238056   0.606   5.228   9.184
 5474TIP3    H138057   0.657   5.308   9.163
 5474TIP3    H238058   0.519   5.251   9.150
 5475TIP3   OH238059   0.170   4.708   8.643
 5475TIP3    H138060   0.239   4.772   8.674
 5475TIP3    H238061   0.089   4.746   8.675
 5476TIP3   OH238062   0.749   4.994   9.135
 5476TIP3    H138063   0.717   5.086   9.143
 5476TIP3    H238064   0.677   4.945   9.179
 5477TIP3   OH238065   0.795   5.413   9.776
 5477TIP3    H138066   0.840   5.494   9.748
 5477TIP3    H238067   0.856   5.379   9.843
 5478TIP3   OH238068   0.617   5.493   9.087
 5478TIP3    H138069   0.521   5.507   9.102
 5478TIP3    H238070   0.653   5.577   9.122
 5479TIP3   OH238071   1.146   5.012   9.736
 5479TIP3    H138072   1.114   4.994   9.827
 5479TIP3    H238073   1.210   4.941   9.721
 5480TIP3   OH238074   1.375   5.115   8.650
 5480TIP3    H138075   1.406   5.071   8.732
 5480TIP3    H238076   1.280   5.100   8.657
 5481TIP3   OH238077   1.428   5.470   9.985
 5481TIP3    H138078   1.358   5.422   9.937
 5481TIP3    H238079   1.445   5.544   9.922
 5482TIP3   OH238080   1.828   5.558   8.672
 5482TIP3    H138081   1.897   5.622   8.646
 5482TIP3    H238082   1.756   5.617   8.702
 5483TIP3   OH238083   0.233   4.196   9.922
 5483TIP3    H138084   0.143   4.232   9.924
 5483TIP3    H238085   0.222   4.111   9.969
 5484TIP3   OH238086   1.458   4.982   8.871
 5484TIP3    H138087   1.434   4.901   8.922
 5484TIP3    H238088   1.552   4.989   8.894
 5485TIP3   OH238089   0.201   5.377   9.764
 5485TIP3    H138090   0.222   5.283   9.768
 5485TIP3    H238091   0.219   5.402   9.855
 5486TIP3   OH238092   0.671   5.183   8.739
 5486TIP3    H138093   0.697   5.127   8.813
 5486TIP3    H238094   0.679   5.274   8.774
 5487TIP3   OH238095   0.317   4.905   8.783
 5487TIP3    H138096   0.255   4.946   8.847
 5487TIP3    H238097   0.375   4.980   8.762
 5488TIP3   OH238098   1.104   4.174   9.820
 5488TIP3    H138099   1.179   4.183   9.881
 5488TIP3    H238100   1.070   4.085   9.842
 5489TIP3   OH238101   1.177   4.135   8.934
 5489TIP3    H138102   1.206   4.174   8.849
 5489TIP3    H238103   1.242   4.174   8.993
 5490TIP3   OH238104   0.950   5.348   8.814
 5490TIP3    H138105   0.868   5.400   8.819
 5490TIP3    H238106   1.005   5.397   8.750
 5491TIP3   OH238107   0.904   4.305   9.012
 5491TIP3    H138108   0.982   4.363   9.014
 5491TIP3    H238109   0.877   4.292   9.105
 5492TIP3   OH238110   0.960   4.409   9.930
 5492TIP3    H138111   0.968   4.466  10.008
 5492TIP3    H238112   1.027   4.340   9.939
 5493TIP3   OH238113   0.989   4.011   9.099
 5493TIP3    H138114   0.957   4.076   9.163
 5493TIP3    H238115   1.059   4.066   9.055
 5494TIP3   OH238116   0.689   5.451   8.816
 5494TIP3    H138117   0.704   5.533   8.764
 5494TIP3    H238118   0.661   5.486   8.904
 5495TIP3   OH238119   0.557   4.121   8.777
 5495TIP3    H138120   0.550   4.212   8.810
 5495TIP3    H238121   0.649   4.098   8.803
 5496TIP3   OH238122   1.570   4.278   9.968
 5496TIP3    H138123   1.488   4.236  10.002
 5496TIP3    H238124   1.607   4.198   9.929
 5497TIP3   OH238125   1.440   4.574   9.418
 5497TIP3    H138126   1.358   4.529   9.390
 5497TIP3    H238127   1.488   4.504   9.469
 5498TIP3   OH238128   0.378   5.167   8.676
 5498TIP3    H138129   0.445   5.229   8.708
 5498TIP3    H238130   0.431   5.118   8.609
 5499TIP3   OH238131   0.226   4.433   8.590
 5499TIP3    H138132   0.220   4.528   8.610
 5499TIP3    H238133   0.135   4.412   8.566
 5500TIP3   OH238134   1.545   5.501   9.584
 5500TIP3    H138135   1.537   5.568   9.514
 5500TIP3    H238136   1.642   5.505   9.602
 5501TIP3   OH238137   0.293   3.912   9.463
 5501TIP3    H138138   0.276   3.912   9.366
 5501TIP3    H238139   0.253   3.826   9.490
 5502TIP3   OH238140   0.194   5.305   9.080
 5502TIP3    H138141   0.107   5.344   9.074
 5502TIP3    H238142   0.239   5.352   9.008
 5503TIP3   OH238143   0.131   5.566  10.206
 5503TIP3    H138144   0.176   5.542  10.286
 5503TIP3    H238145   0.073   5.488  10.191
 5504TIP3   OH238146   0.577   5.459  10.367
 5504TIP3    H138147   0.654   5.412  10.402
 5504TIP3    H238148   0.575   5.431  10.274
 5505TIP3   OH238149   1.030   5.416   8.568
 5505TIP3    H138150   0.946   5.369   8.557
 5505TIP3    H238151   1.080   5.373   8.498
 5506TIP3   OH238152   1.233   5.297  10.241
 5506TIP3    H138153   1.199   5.210  10.271
 5506TIP3    H238154   1.309   5.314  10.301
 5507TIP3   OH238155   1.451   5.389   8.528
 5507TIP3    H138156   1.475   5.308   8.576
 5507TIP3    H238157   1.529   5.409   8.474
 5508TIP3   OH238158   0.116   4.943  10.303
 5508TIP3    H138159   0.123   4.850  10.278
 5508TIP3    H238160   0.033   4.972  10.261
 5509TIP3   OH238161   0.545   4.988   8.523
 5509TIP3    H138162   0.551   4.904   8.571
 5509TIP3    H238163   0.600   4.964   8.446
 5510TIP3   OH238164   0.782   4.945  10.244
 5510TIP3    H138165   0.739   4.978  10.162
 5510TIP3    H238166   0.777   4.847  10.234
 5511TIP3   OH238167   1.343   4.932   9.989
 5511TIP3    H138168   1.422   4.989   9.976
 5511TIP3    H238169   1.274   5.000   9.988
 5512TIP3   OH238170   0.182   4.663  10.245
 5512TIP3    H138171   0.239   4.585  10.237
 5512TIP3    H238172   0.176   4.669  10.341
 5513TIP3   OH238173   0.659   4.785   8.751
 5513TIP3    H138174   0.608   4.731   8.814
 5513TIP3    H238175   0.689   4.716   8.688
 5514TIP3   OH238176   0.584   4.563   9.981
 5514TIP3    H138177   0.523   4.634  10.007
 5514TIP3    H238178   0.623   4.600   9.900
 5515TIP3   OH238179   0.764   4.608   8.571
 5515TIP3    H138180   0.755   4.586   8.478
 5515TIP3    H238181   0.862   4.614   8.582
 5516TIP3   OH238182   1.699   4.849  17.015
 5516TIP3    H138183   1.654   4.805  16.940
 5516TIP3    H238184   1.689   4.944  16.998
 5517TIP3   OH238185   0.627   4.302  10.088
 5517TIP3    H138186   0.635   4.232  10.022
 5517TIP3    H238187   0.619   4.383  10.033
 5518TIP3   OH238188   0.664   4.139   9.842
 5518TIP3    H138189   0.716   4.185   9.771
 5518TIP3    H238190   0.575   4.132   9.801
 5519TIP3   OH238191   0.819   4.689   9.867
 5519TIP3    H138192   0.894   4.670   9.810
 5519TIP3    H238193   0.781   4.771   9.830
 5520TIP3   OH238194   1.388   4.751  10.181
 5520TIP3    H138195   1.369   4.816  10.110
 5520TIP3    H238196   1.484   4.738  10.164
 5521TIP3   OH238197   0.469   4.423  10.275
 5521TIP3    H138198   0.392   4.367  10.258
 5521TIP3    H238199   0.535   4.389  10.212
 5522TIP3   OH238200   0.743   3.882   9.883
 5522TIP3    H138201   0.726   3.978   9.871
 5522TIP3    H238202   0.669   3.845   9.830
 5523TIP3   OH238203   0.874   4.316  10.244
 5523TIP3    H138204   0.840   4.293  10.333
 5523TIP3    H238205   0.794   4.296  10.191
 5524TIP3   OH238206   1.140   4.233  10.158
 5524TIP3    H138207   1.043   4.233  10.165
 5524TIP3    H238208   1.167   4.163  10.218
 5525TIP3   OH238209   0.285   4.219  10.254
 5525TIP3    H138210   0.302   4.145  10.194
 5525TIP3    H238211   0.272   4.174  10.340
 5526TIP3   OH238212   0.762   3.818  10.151
 5526TIP3    H138213   0.834   3.752  10.147
 5526TIP3    H238214   0.752   3.836  10.055
 5527TIP3   OH238215   0.802   3.982  10.361
 5527TIP3    H138216   0.786   3.934  10.277
 5527TIP3    H238217   0.746   4.061  10.351
 5528TIP3   OH238218   0.749   5.673   8.672
 5528TIP3    H138219   0.846   5.685   8.685
 5528TIP3    H238220   0.728   5.741   8.608
 5529TIP3   OH238221   0.107   5.131   8.629
 5529TIP3    H138222   0.203   5.144   8.648
 5529TIP3    H238223   0.109   5.075   8.551
 5530TIP3   OH238224   7.349   5.681   9.112
 5530TIP3    H138225   7.263   5.655   9.076
 5530TIP3    H238226   7.364   5.614   9.184
 5531TIP3   OH238227   0.058   5.489   9.305
 5531TIP3    H138228   0.030   5.398   9.329
 5531TIP3    H238229   0.088   5.518   9.393
 5532TIP3   OH238230   1.817   5.564   9.603
 5532TIP3    H138231   1.820   5.579   9.699
 5532TIP3    H238232   1.888   5.622   9.573
 5533TIP3   OH238233   1.777   5.522   9.896
 5533TIP3    H138234   1.728   5.446   9.860
 5533TIP3    H238235   1.824   5.480   9.970
 5534TIP3   OH238236   1.755   4.925   8.904
 5534TIP3    H138237   1.837   4.970   8.931
 5534TIP3    H238238   1.748   4.859   8.976
 5535TIP3   OH238239   1.786   4.738   9.098
 5535TIP3    H138240   1.712   4.686   9.135
 5535TIP3    H238241   1.846   4.749   9.174
 5536TIP3   OH238242   1.763   5.006   9.594
 5536TIP3    H138243   1.844   4.968   9.557
 5536TIP3    H238244   1.778   5.102   9.579
 5537TIP3   OH238245   1.618   5.296   9.823
 5537TIP3    H138246   1.549   5.331   9.882
 5537TIP3    H238247   1.564   5.256   9.752
 5538TIP3   OH238248   1.820   4.722   8.731
 5538TIP3    H138249   1.751   4.751   8.670
 5538TIP3    H238250   1.808   4.786   8.804
 5539TIP3   OH238251   1.619   4.453   8.600
 5539TIP3    H138252   1.662   4.501   8.529
 5539TIP3    H238253   1.629   4.362   8.559
 5540TIP3   OH238254   1.569   4.583   9.155
 5540TIP3    H138255   1.554   4.488   9.149
 5540TIP3    H238256   1.537   4.604   9.245
 5541TIP3   OH238257   0.067   4.790   9.558
 5541TIP3    H138258   0.086   4.786   9.462
 5541TIP3    H238259   0.156   4.777   9.596
 5542TIP3   OH238260   1.651   4.780  10.120
 5542TIP3    H138261   1.711   4.705  10.139
 5542TIP3    H238262   1.713   4.855  10.125
 5543TIP3   OH238263   1.805   4.570  10.182
 5543TIP3    H138264   1.716   4.530  10.176
 5543TIP3    H238265   1.859   4.489  10.182
 5544TIP3   OH238266   1.589   4.213   8.507
 5544TIP3    H138267   1.639   4.147   8.559
 5544TIP3    H238268   1.505   4.159   8.508
 5545TIP3   OH238269   1.535   4.341   9.001
 5545TIP3    H138270   1.565   4.247   9.011
 5545TIP3    H238271   1.613   4.381   8.961
 5546TIP3   OH238272   1.600   4.394   9.544
 5546TIP3    H138273   1.695   4.419   9.543
 5546TIP3    H238274   1.582   4.409   9.639
 5547TIP3   OH238275   1.604   4.476   9.802
 5547TIP3    H138276   1.523   4.494   9.856
 5547TIP3    H238277   1.652   4.561   9.801
 5548TIP3   OH238278   0.051   4.313  10.175
 5548TIP3    H138279   0.142   4.290  10.202
 5548TIP3    H238280  -0.005   4.239  10.205
 5549TIP3   OH238281   1.844   3.872  10.356
 5549TIP3    H138282   1.865   3.803  10.291
 5549TIP3    H238283   1.844   3.953  10.301
 5550TIP3   OH238284   1.602   4.071   9.006
 5550TIP3    H138285   1.624   4.025   9.089
 5550TIP3    H238286   1.543   4.007   8.959
 5551TIP3   OH238287   0.146   4.145   9.464
 5551TIP3    H138288   0.200   4.067   9.486
 5551TIP3    H238289   0.202   4.217   9.500
 5552TIP3   OH238290   0.052   4.502   9.606
 5552TIP3    H138291   0.060   4.468   9.515
 5552TIP3    H238292   0.030   4.593   9.581
 5553TIP3   OH238293   1.815   4.087  10.204
 5553TIP3    H138294   1.719   4.113  10.207
 5553TIP3    H238295   1.805   4.036  10.123
 5554TIP3   OH238296   1.788   4.077   8.664
 5554TIP3    H138297   1.824   4.006   8.609
 5554TIP3    H238298   1.858   4.143   8.661
 5555TIP3   OH238299   7.399   4.078   8.947
 5555TIP3    H138300   7.304   4.094   8.949
 5555TIP3    H238301   7.428   4.142   8.878
 5556TIP3   OH238302   1.490   5.572   9.167
 5556TIP3    H138303   1.558   5.542   9.104
 5556TIP3    H238304   1.541   5.622   9.231
 5557TIP3   OH238305   7.371   3.939   9.813
 5557TIP3    H138306   7.296   3.917   9.870
 5557TIP3    H238307   7.319   3.996   9.752
 5558TIP3   OH238308   0.237   5.271  10.218
 5558TIP3    H138309   0.151   5.284  10.175
 5558TIP3    H238310   0.214   5.250  10.309
 5559TIP3   OH238311   0.526   5.365   9.846
 5559TIP3    H138312   0.489   5.450   9.818
 5559TIP3    H238313   0.618   5.374   9.814
 5560TIP3   OH238314   0.957   5.501  10.132
 5560TIP3    H138315   0.971   5.471  10.225
 5560TIP3    H238316   1.046   5.537  10.110
 5561TIP3   OH238317   1.187   5.631  10.067
 5561TIP3    H138318   1.261   5.573  10.042
 5561TIP3    H238319   1.225   5.676  10.144
 5562TIP3   OH238320   1.713   3.864   9.951
 5562TIP3    H138321   1.626   3.909   9.942
 5562TIP3    H238322   1.700   3.784   9.898
 5563TIP3   OH238323   0.269   5.688   9.847
 5563TIP3    H138324   0.194   5.734   9.806
 5563TIP3    H238325   0.233   5.667   9.934
 5564TIP3   OH238326   0.516   5.645   9.752
 5564TIP3    H138327   0.427   5.661   9.792
 5564TIP3    H238328   0.510   5.704   9.675
 5565TIP3   OH238329   0.986   5.637   9.668
 5565TIP3    H138330   0.939   5.692   9.604
 5565TIP3    H238331   0.998   5.699   9.743
 5566TIP3   OH238332   1.213   5.516   9.774
 5566TIP3    H138333   1.128   5.544   9.735
 5566TIP3    H238334   1.262   5.598   9.762
 5567TIP3   OH238335   1.468   5.675   9.795
 5567TIP3    H138336   1.467   5.771   9.771
 5567TIP3    H238337   1.492   5.638   9.708
 5568TIP3   OH238338   0.212   5.552   9.536
 5568TIP3    H138339   0.207   5.509   9.624
 5568TIP3    H238340   0.293   5.512   9.499
 5569TIP3   OH238341   0.422   5.421   9.402
 5569TIP3    H138342   0.403   5.329   9.428
 5569TIP3    H238343   0.506   5.438   9.449
 5570TIP3   OH238344   0.682   5.472   9.492
 5570TIP3    H138345   0.697   5.379   9.465
 5570TIP3    H238346   0.686   5.466   9.588
 5571TIP3   OH238347   1.027   4.036   9.405
 5571TIP3    H138348   0.959   3.972   9.434
 5571TIP3    H238349   1.082   3.983   9.347
 5572TIP3   OH238350   1.540   3.840   9.412
 5572TIP3    H138351   1.602   3.900   9.363
 5572TIP3    H238352   1.452   3.877   9.388
 5573TIP3   OH238353   1.707   3.966   9.240
 5573TIP3    H138354   1.776   3.908   9.198
 5573TIP3    H238355   1.758   4.049   9.250
 5574TIP3   OH238356   0.262   3.896   9.192
 5574TIP3    H138357   0.186   3.878   9.133
 5574TIP3    H238358   0.312   3.814   9.181
 5575TIP3   OH238359   0.187   3.888   8.780
 5575TIP3    H138360   0.198   3.945   8.702
 5575TIP3    H238361   0.101   3.916   8.816
 5576TIP3   OH238362   0.710   3.891   9.169
 5576TIP3    H138363   0.800   3.927   9.161
 5576TIP3    H238364   0.707   3.870   9.263
 5577TIP3   OH238365   1.283   3.893   9.331
 5577TIP3    H138366   1.277   3.905   9.235
 5577TIP3    H238367   1.244   3.803   9.344
 5578TIP3   OH238368   1.408   3.895   8.906
 5578TIP3    H138369   1.336   3.954   8.878
 5578TIP3    H238370   1.363   3.809   8.920
 5579TIP3   OH238371   0.150   5.476   8.856
 5579TIP3    H138372   0.070   5.468   8.799
 5579TIP3    H238373   0.137   5.570   8.878
 5580TIP3   OH238374   0.322   4.070   8.611
 5580TIP3    H138375   0.375   4.006   8.561
 5580TIP3    H238376   0.385   4.100   8.677
 5581TIP3   OH238377   0.825   4.092   8.854
 5581TIP3    H138378   0.853   4.036   8.928
 5581TIP3    H238379   0.833   4.179   8.900
 5582TIP3   OH238380   1.016   5.630   8.699
 5582TIP3    H138381   1.112   5.627   8.685
 5582TIP3    H238382   0.999   5.555   8.637
 5583TIP3   OH238383   1.689   5.550   8.970
 5583TIP3    H138384   1.669   5.472   8.913
 5583TIP3    H238385   1.680   5.624   8.906
 5584TIP3   OH238386   0.251   3.956  10.141
 5584TIP3    H138387   0.210   3.872  10.173
 5584TIP3    H238388   0.343   3.947  10.167
 5585TIP3   OH238389   0.320   5.570   8.560
 5585TIP3    H138390   0.286   5.595   8.647
 5585TIP3    H238391   0.391   5.511   8.580
 5586TIP3   OH238392   1.612   5.421  10.179
 5586TIP3    H138393   1.533   5.413  10.122
 5586TIP3    H238394   1.606   5.517  10.201
 5587TIP3   OH238395   3.058   4.813   9.176
 5587TIP3    H138396   3.056   4.911   9.172
 5587TIP3    H238397   2.985   4.790   9.116
 5588TIP3   OH238398   2.943   4.738   9.526
 5588TIP3    H138399   2.942   4.673   9.598
 5588TIP3    H238400   2.908   4.687   9.451
 5589TIP3   OH238401   2.179   4.706   9.681
 5589TIP3    H138402   2.187   4.637   9.750
 5589TIP3    H238403   2.254   4.763   9.703
 5590TIP3   OH238404   3.311   5.033   9.354
 5590TIP3    H138405   3.271   4.961   9.404
 5590TIP3    H238406   3.315   5.104   9.421
 5591TIP3   OH238407   2.271   5.151   9.530
 5591TIP3    H138408   2.240   5.064   9.499
 5591TIP3    H238409   2.367   5.133   9.535
 5592TIP3   OH238410   1.935   4.506   9.080
 5592TIP3    H138411   1.892   4.593   9.074
 5592TIP3    H238412   1.879   4.452   9.022
 5593TIP3   OH238413   2.007   4.729   9.296
 5593TIP3    H138414   2.034   4.646   9.340
 5593TIP3    H238415   2.076   4.740   9.229
 5594TIP3   OH238416   3.024   5.549   9.378
 5594TIP3    H138417   3.089   5.480   9.349
 5594TIP3    H238418   3.002   5.515   9.465
 5595TIP3   OH238419   2.781   4.977   9.574
 5595TIP3    H138420   2.815   4.915   9.507
 5595TIP3    H238421   2.862   4.994   9.625
 5596TIP3   OH238422   3.640   4.145   9.645
 5596TIP3    H138423   3.658   4.203   9.722
 5596TIP3    H238424   3.697   4.186   9.579
 5597TIP3   OH238425   3.098   4.425   9.605
 5597TIP3    H138426   3.115   4.329   9.605
 5597TIP3    H238427   3.087   4.439   9.509
 5598TIP3   OH238428   2.409   4.234   9.326
 5598TIP3    H138429   2.420   4.317   9.276
 5598TIP3    H238430   2.369   4.177   9.257
 5599TIP3   OH238431   3.183   4.242   9.163
 5599TIP3    H138432   3.248   4.210   9.230
 5599TIP3    H238433   3.240   4.299   9.109
 5600TIP3   OH238434   2.071   4.475   9.400
 5600TIP3    H138435   2.138   4.421   9.445
 5600TIP3    H238436   2.082   4.443   9.308
 5601TIP3   OH238437   2.587   4.631   9.332
 5601TIP3    H138438   2.655   4.572   9.371
 5601TIP3    H238439   2.536   4.565   9.280
 5602TIP3   OH238440   3.684   4.284   9.875
 5602TIP3    H138441   3.624   4.361   9.860
 5602TIP3    H238442   3.688   4.278   9.971
 5603TIP3   OH238443   2.300   4.124   9.731
 5603TIP3    H138444   2.272   4.181   9.657
 5603TIP3    H238445   2.232   4.147   9.799
 5604TIP3   OH238446   3.028   5.071   9.085
 5604TIP3    H138447   3.001   5.044   8.995
 5604TIP3    H238448   2.998   5.165   9.089
 5605TIP3   OH238449   2.551   4.888   9.753
 5605TIP3    H138450   2.481   4.953   9.776
 5605TIP3    H238451   2.622   4.948   9.724
 5606TIP3   OH238452   3.364   4.176   9.362
 5606TIP3    H138453   3.342   4.100   9.416
 5606TIP3    H238454   3.432   4.220   9.416
 5607TIP3   OH238455   2.257   4.309   9.534
 5607TIP3    H138456   2.319   4.378   9.565
 5607TIP3    H238457   2.308   4.268   9.460
 5608TIP3   OH238458   2.396   5.089   9.836
 5608TIP3    H138459   2.391   5.180   9.802
 5608TIP3    H238460   2.308   5.080   9.880
 5609TIP3   OH238461   2.002   5.050   8.914
 5609TIP3    H138462   1.982   5.086   8.825
 5609TIP3    H238463   2.011   5.131   8.968
 5610TIP3   OH238464   3.365   5.217   9.591
 5610TIP3    H138465   3.268   5.228   9.603
 5610TIP3    H238466   3.392   5.308   9.570
 5611TIP3   OH238467   3.397   4.045   9.730
 5611TIP3    H138468   3.325   4.108   9.720
 5611TIP3    H238469   3.469   4.087   9.678
 5612TIP3   OH238470   2.693   3.857   9.477
 5612TIP3    H138471   2.679   3.761   9.469
 5612TIP3    H238472   2.606   3.888   9.507
 5613TIP3   OH238473   3.191   5.395   9.249
 5613TIP3    H138474   3.234   5.323   9.199
 5613TIP3    H238475   3.236   5.474   9.212
 5614TIP3   OH238476   3.314   5.188   9.099
 5614TIP3    H138477   3.283   5.118   9.039
 5614TIP3    H238478   3.316   5.139   9.184
 5615TIP3   OH238479   3.473   5.048   9.951
 5615TIP3    H138480   3.488   4.982   9.880
 5615TIP3    H238481   3.494   5.132   9.906
 5616TIP3   OH238482   2.924   4.737   8.926
 5616TIP3    H138483   2.855   4.795   8.887
 5616TIP3    H238484   2.995   4.746   8.860
 5617TIP3   OH238485   2.927   4.590   8.636
 5617TIP3    H138486   3.001   4.591   8.699
 5617TIP3    H238487   2.960   4.527   8.572
 5618TIP3   OH238488   3.663   4.679   9.755
 5618TIP3    H138489   3.597   4.751   9.759
 5618TIP3    H238490   3.711   4.701   9.674
 5619TIP3   OH238491   3.268   4.758   9.021
 5619TIP3    H138492   3.193   4.782   9.082
 5619TIP3    H238493   3.315   4.690   9.073
 5620TIP3   OH238494   3.261   4.574   9.932
 5620TIP3    H138495   3.262   4.656   9.984
 5620TIP3    H238496   3.199   4.603   9.863
 5621TIP3   OH238497   2.429   4.823   9.212
 5621TIP3    H138498   2.398   4.784   9.127
 5621TIP3    H238499   2.491   4.754   9.245
 5622TIP3   OH238500   2.561   5.161   9.479
 5622TIP3    H138501   2.561   5.109   9.398
 5622TIP3    H238502   2.640   5.126   9.525
 5623TIP3   OH238503   2.462   4.698   9.578
 5623TIP3    H138504   2.517   4.707   9.497
 5623TIP3    H238505   2.502   4.765   9.638
 5624TIP3   OH238506   3.105   5.255   9.648
 5624TIP3    H138507   3.075   5.319   9.714
 5624TIP3    H238508   3.079   5.170   9.690
 5625TIP3   OH238509   2.558   5.142  10.047
 5625TIP3    H138510   2.516   5.216  10.096
 5625TIP3    H238511   2.491   5.121   9.978
 5626TIP3   OH238512   3.157   4.676   8.786
 5626TIP3    H138513   3.210   4.696   8.867
 5626TIP3    H238514   3.198   4.731   8.717
 5627TIP3   OH238515   2.252   4.757   9.964
 5627TIP3    H138516   2.256   4.823  10.035
 5627TIP3    H238517   2.158   4.765   9.939
 5628TIP3   OH238518   2.926   5.349   9.135
 5628TIP3    H138519   2.970   5.381   9.214
 5628TIP3    H238520   2.872   5.424   9.108
 5629TIP3   OH238521   2.380   5.342  10.119
 5629TIP3    H138522   2.375   5.333  10.023
 5629TIP3    H238523   2.287   5.331  10.148
 5630TIP3   OH238524   3.528   3.850   8.776
 5630TIP3    H138525   3.432   3.861   8.800
 5630TIP3    H238526   3.549   3.936   8.736
 5631TIP3   OH238527   2.326   4.726   8.970
 5631TIP3    H138528   2.297   4.804   8.919
 5631TIP3    H238529   2.261   4.659   8.949
 5632TIP3   OH238530   3.638   5.287   8.604
 5632TIP3    H138531   3.643   5.382   8.630
 5632TIP3    H238532   3.725   5.258   8.631
 5633TIP3   OH238533   1.939   4.969   9.860
 5633TIP3    H138534   1.890   4.960   9.776
 5633TIP3    H238535   1.943   4.874   9.885
 5634TIP3   OH238536   1.912   5.242   9.540
 5634TIP3    H138537   2.008   5.230   9.538
 5634TIP3    H238538   1.903   5.324   9.590
 5635TIP3   OH238539   3.734   5.312  10.107
 5635TIP3    H138540   3.725   5.216  10.105
 5635TIP3    H238541   3.648   5.336  10.149
 5636TIP3   OH238542   2.831   5.267   9.994
 5636TIP3    H138543   2.837   5.351  10.046
 5636TIP3    H238544   2.744   5.230  10.021
 5637TIP3   OH238545   2.874   5.641   8.974
 5637TIP3    H138546   2.867   5.635   8.877
 5637TIP3    H238547   2.878   5.736   8.991
 5638TIP3   OH238548   2.239   5.529   9.157
 5638TIP3    H138549   2.254   5.487   9.246
 5638TIP3    H238550   2.154   5.488   9.134
 5639TIP3   OH238551   3.177   5.561   8.671
 5639TIP3    H138552   3.226   5.486   8.630
 5639TIP3    H238553   3.185   5.538   8.765
 5640TIP3   OH238554   3.149   5.556   8.951
 5640TIP3    H138555   3.053   5.562   8.970
 5640TIP3    H238556   3.174   5.481   9.008
 5641TIP3   OH238557   3.449   4.457  10.156
 5641TIP3    H138558   3.403   4.505  10.085
 5641TIP3    H238559   3.449   4.366  10.122
 5642TIP3   OH238560   2.164   5.099   9.959
 5642TIP3    H138561   2.184   5.062  10.047
 5642TIP3    H238562   2.077   5.060   9.935
 5643TIP3   OH238563   2.432   3.946   9.553
 5643TIP3    H138564   2.342   3.935   9.515
 5643TIP3    H238565   2.419   4.030   9.600
 5644TIP3   OH238566   2.897   3.915   9.890
 5644TIP3    H138567   2.936   3.871   9.968
 5644TIP3    H238568   2.800   3.903   9.903
 5645TIP3   OH238569   3.226   4.300   9.977
 5645TIP3    H138570   3.169   4.278  10.055
 5645TIP3    H238571   3.206   4.393   9.954
 5646TIP3   OH238572   3.308   4.786   8.572
 5646TIP3    H138573   3.309   4.769   8.476
 5646TIP3    H238574   3.395   4.829   8.582
 5647TIP3   OH238575   2.861   4.172   8.623
 5647TIP3    H138576   2.829   4.167   8.714
 5647TIP3    H238577   2.833   4.084   8.593
 5648TIP3   OH238578   2.442   4.445   9.678
 5648TIP3    H138579   2.367   4.444   9.740
 5648TIP3    H238580   2.438   4.536   9.640
 5649TIP3   OH238581   2.438   4.455   9.164
 5649TIP3    H138582   2.344   4.431   9.150
 5649TIP3    H238583   2.476   4.428   9.078
 5650TIP3   OH238584   2.991   4.506   9.037
 5650TIP3    H138585   2.951   4.590   9.005
 5650TIP3    H238586   3.060   4.491   8.970
 5651TIP3   OH238587   2.898   4.528  10.184
 5651TIP3    H138588   2.844   4.451  10.215
 5651TIP3    H238589   2.981   4.516  10.234
 5652TIP3   OH238590   3.094   4.456   9.325
 5652TIP3    H138591   3.065   4.512   9.252
 5652TIP3    H238592   3.103   4.371   9.278
 5653TIP3   OH238593   2.203   4.470   9.843
 5653TIP3    H138594   2.213   4.513   9.930
 5653TIP3    H238595   2.160   4.386   9.866
 5654TIP3   OH238596   2.560   4.232   8.563
 5654TIP3    H138597   2.504   4.170   8.615
 5654TIP3    H238598   2.500   4.271   8.500
 5655TIP3   OH238599   1.871   4.180   9.245
 5655TIP3    H138600   1.939   4.177   9.314
 5655TIP3    H238601   1.915   4.143   9.166
 5656TIP3   OH238602   2.000   4.253   8.781
 5656TIP3    H138603   2.049   4.312   8.719
 5656TIP3    H238604   1.931   4.315   8.812
 5657TIP3   OH238605   3.013   4.614   9.780
 5657TIP3    H138606   3.052   4.545   9.722
 5657TIP3    H238607   2.967   4.562   9.847
 5658TIP3   OH238608   2.694   4.213   9.264
 5658TIP3    H138609   2.601   4.212   9.293
 5658TIP3    H238610   2.742   4.195   9.346
 5659TIP3   OH238611   2.174   4.367   9.151
 5659TIP3    H138612   2.086   4.383   9.111
 5659TIP3    H238613   2.203   4.284   9.110
 5660TIP3   OH238614   2.538   4.374   8.914
 5660TIP3    H138615   2.634   4.383   8.930
 5660TIP3    H238616   2.516   4.439   8.845
 5661TIP3   OH238617   3.135   4.136   9.588
 5661TIP3    H138618   3.066   4.140   9.658
 5661TIP3    H238619   3.083   4.110   9.510
 5662TIP3   OH238620   2.409   4.489   8.674
 5662TIP3    H138621   2.353   4.455   8.601
 5662TIP3    H238622   2.491   4.511   8.627
 5663TIP3   OH238623   3.454   5.702  10.223
 5663TIP3    H138624   3.484   5.736  10.137
 5663TIP3    H238625   3.528   5.730  10.279
 5664TIP3   OH238626   2.226   4.944  10.178
 5664TIP3    H138627   2.292   4.972  10.244
 5664TIP3    H238628   2.145   4.956  10.234
 5665TIP3   OH238629   2.822   4.488   9.453
 5665TIP3    H138630   2.882   4.434   9.400
 5665TIP3    H238631   2.807   4.433   9.531
 5666TIP3   OH238632   2.323   4.102   9.099
 5666TIP3    H138633   2.292   4.010   9.096
 5666TIP3    H238634   2.401   4.095   9.042
 5667TIP3   OH238635   2.686   4.320   9.695
 5667TIP3    H138636   2.603   4.372   9.703
 5667TIP3    H238637   2.741   4.356   9.766
 5668TIP3   OH238638   2.745   4.940   8.867
 5668TIP3    H138639   2.665   4.896   8.833
 5668TIP3    H238640   2.722   4.954   8.961
 5669TIP3   OH238641   3.464   4.863   9.745
 5669TIP3    H138642   3.520   4.911   9.680
 5669TIP3    H238643   3.378   4.867   9.699
 5670TIP3   OH238644   3.132   4.222   8.683
 5670TIP3    H138645   3.037   4.237   8.665
 5670TIP3    H238646   3.162   4.309   8.714
 5671TIP3   OH238647   2.894   4.970   9.989
 5671TIP3    H138648   2.860   4.926  10.067
 5671TIP3    H238649   2.868   5.062  10.000
 5672TIP3   OH238650   3.202   4.417   8.850
 5672TIP3    H138651   3.291   4.403   8.886
 5672TIP3    H238652   3.211   4.498   8.797
 5673TIP3   OH238653   2.256   4.883   9.445
 5673TIP3    H138654   2.324   4.874   9.375
 5673TIP3    H238655   2.262   4.797   9.490
 5674TIP3   OH238656   2.954   5.089   8.772
 5674TIP3    H138657   2.918   5.174   8.805
 5674TIP3    H238658   2.881   5.026   8.789
 5675TIP3   OH238659   1.954   4.725   9.970
 5675TIP3    H138660   1.971   4.679  10.054
 5675TIP3    H238661   1.892   4.662   9.927
 5676TIP3   OH238662   2.655   4.677  10.187
 5676TIP3    H138663   2.624   4.647  10.100
 5676TIP3    H238664   2.748   4.647  10.185
 5677TIP3   OH238665   3.125   5.213   9.984
 5677TIP3    H138666   3.032   5.230   9.960
 5677TIP3    H238667   3.121   5.241  10.077
 5678TIP3   OH238668   3.691   4.431   8.826
 5678TIP3    H138669   3.636   4.398   8.752
 5678TIP3    H238670   3.699   4.523   8.795
 5679TIP3   OH238671   3.690   5.016  10.104
 5679TIP3    H138672   3.601   5.038  10.067
 5679TIP3    H238673   3.745   5.012  10.022
 5680TIP3   OH238674   3.529   5.307   8.863
 5680TIP3    H138675   3.478   5.231   8.894
 5680TIP3    H238676   3.544   5.292   8.769
 5681TIP3   OH238677   3.241   4.794   9.573
 5681TIP3    H138678   3.147   4.774   9.561
 5681TIP3    H238679   3.284   4.719   9.529
 5682TIP3   OH238680   2.493   5.227   9.183
 5682TIP3    H138681   2.543   5.308   9.162
 5682TIP3    H238682   2.405   5.251   9.150
 5683TIP3   OH238683   2.062   4.728   8.622
 5683TIP3    H138684   2.129   4.771   8.678
 5683TIP3    H238685   1.981   4.736   8.677
 5684TIP3   OH238686   2.635   4.994   9.135
 5684TIP3    H138687   2.603   5.086   9.143
 5684TIP3    H238688   2.563   4.945   9.179
 5685TIP3   OH238689   2.680   5.413   9.776
 5685TIP3    H138690   2.726   5.493   9.747
 5685TIP3    H238691   2.741   5.378   9.843
 5686TIP3   OH238692   2.503   5.494   9.086
 5686TIP3    H138693   2.406   5.507   9.102
 5686TIP3    H238694   2.539   5.577   9.122
 5687TIP3   OH238695   3.030   5.012   9.736
 5687TIP3    H138696   3.000   4.993   9.828
 5687TIP3    H238697   3.096   4.941   9.720
 5688TIP3   OH238698   3.261   5.116   8.651
 5688TIP3    H138699   3.289   5.070   8.732
 5688TIP3    H238700   3.165   5.100   8.656
 5689TIP3   OH238701   3.315   5.470   9.986
 5689TIP3    H138702   3.244   5.421   9.940
 5689TIP3    H238703   3.332   5.540   9.921
 5690TIP3   OH238704   3.713   5.557   8.670
 5690TIP3    H138705   3.781   5.623   8.648
 5690TIP3    H238706   3.641   5.617   8.701
 5691TIP3   OH238707   2.120   4.198   9.930
 5691TIP3    H138708   2.028   4.229   9.921
 5691TIP3    H238709   2.108   4.110   9.970
 5692TIP3   OH238710   3.344   4.982   8.872
 5692TIP3    H138711   3.318   4.901   8.922
 5692TIP3    H238712   3.438   4.989   8.892
 5693TIP3   OH238713   2.081   5.374   9.769
 5693TIP3    H138714   2.111   5.282   9.769
 5693TIP3    H238715   2.107   5.404   9.857
 5694TIP3   OH238716   2.555   5.183   8.740
 5694TIP3    H138717   2.583   5.127   8.813
 5694TIP3    H238718   2.565   5.274   8.774
 5695TIP3   OH238719   2.201   4.906   8.780
 5695TIP3    H138720   2.140   4.946   8.846
 5695TIP3    H238721   2.263   4.980   8.764
 5696TIP3   OH238722   2.993   4.173   9.823
 5696TIP3    H138723   3.065   4.179   9.886
 5696TIP3    H238724   2.954   4.085   9.842
 5697TIP3   OH238725   3.066   4.131   8.932
 5697TIP3    H138726   3.091   4.177   8.849
 5697TIP3    H238727   3.125   4.174   8.995
 5698TIP3   OH238728   2.836   5.348   8.814
 5698TIP3    H138729   2.754   5.400   8.819
 5698TIP3    H238730   2.890   5.397   8.750
 5699TIP3   OH238731   2.790   4.305   9.012
 5699TIP3    H138732   2.868   4.363   9.015
 5699TIP3    H238733   2.763   4.292   9.105
 5700TIP3   OH238734   2.845   4.408   9.931
 5700TIP3    H138735   2.854   4.465  10.009
 5700TIP3    H238736   2.912   4.339   9.939
 5701TIP3   OH238737   2.875   4.011   9.099
 5701TIP3    H138738   2.843   4.076   9.163
 5701TIP3    H238739   2.945   4.065   9.055
 5702TIP3   OH238740   2.574   5.451   8.816
 5702TIP3    H138741   2.591   5.533   8.765
 5702TIP3    H238742   2.548   5.486   8.904
 5703TIP3   OH238743   2.441   4.120   8.777
 5703TIP3    H138744   2.435   4.212   8.809
 5703TIP3    H238745   2.533   4.098   8.802
 5704TIP3   OH238746   3.463   4.194  10.021
 5704TIP3    H138747   3.371   4.225  10.005
 5704TIP3    H238748   3.494   4.192   9.928
 5705TIP3   OH238749   3.326   4.573   9.416
 5705TIP3    H138750   3.243   4.529   9.389
 5705TIP3    H238751   3.373   4.505   9.468
 5706TIP3   OH238752   2.263   5.166   8.674
 5706TIP3    H138753   2.329   5.228   8.708
 5706TIP3    H238754   2.319   5.119   8.608
 5707TIP3   OH238755   2.105   4.435   8.595
 5707TIP3    H138756   2.101   4.530   8.608
 5707TIP3    H238757   2.017   4.413   8.560
 5708TIP3   OH238758   3.431   5.500   9.584
 5708TIP3    H138759   3.422   5.568   9.514
 5708TIP3    H238760   3.528   5.505   9.601
 5709TIP3   OH238761   2.180   3.911   9.465
 5709TIP3    H138762   2.162   3.913   9.368
 5709TIP3    H238763   2.139   3.826   9.490
 5710TIP3   OH238764   2.076   5.304   9.079
 5710TIP3    H138765   1.990   5.348   9.074
 5710TIP3    H238766   2.123   5.350   9.008
 5711TIP3   OH238767   2.003   5.569  10.206
 5711TIP3    H138768   2.058   5.545  10.281
 5711TIP3    H238769   1.956   5.486  10.191
 5712TIP3   OH238770   2.461   5.452  10.367
 5712TIP3    H138771   2.542   5.411  10.399
 5712TIP3    H238772   2.461   5.434  10.272
 5713TIP3   OH238773   2.916   5.417   8.567
 5713TIP3    H138774   2.831   5.369   8.557
 5713TIP3    H238775   2.966   5.373   8.498
 5714TIP3   OH238776   3.114   5.299  10.241
 5714TIP3    H138777   3.083   5.210  10.269
 5714TIP3    H238778   3.191   5.312  10.300
 5715TIP3   OH238779   3.337   5.390   8.528
 5715TIP3    H138780   3.358   5.308   8.576
 5715TIP3    H238781   3.414   5.409   8.474
 5716TIP3   OH238782   1.992   4.943  10.302
 5716TIP3    H138783   2.004   4.853  10.271
 5716TIP3    H238784   1.914   4.973  10.254
 5717TIP3   OH238785   2.423   4.984   8.519
 5717TIP3    H138786   2.439   4.905   8.571
 5717TIP3    H238787   2.486   4.966   8.447
 5718TIP3   OH238788   2.660   4.945  10.245
 5718TIP3    H138789   2.626   4.977  10.159
 5718TIP3    H238790   2.666   4.847  10.234
 5719TIP3   OH238791   3.228   4.930   9.984
 5719TIP3    H138792   3.307   4.988   9.979
 5719TIP3    H238793   3.159   4.998   9.988
 5720TIP3   OH238794   2.090   4.673  10.250
 5720TIP3    H138795   2.116   4.583  10.234
 5720TIP3    H238796   2.049   4.671  10.336
 5721TIP3   OH238797   2.544   4.785   8.751
 5721TIP3    H138798   2.493   4.731   8.814
 5721TIP3    H238799   2.575   4.716   8.688
 5722TIP3   OH238800   2.467   4.563   9.981
 5722TIP3    H138801   2.410   4.638  10.006
 5722TIP3    H238802   2.509   4.599   9.901
 5723TIP3   OH238803   2.650   4.608   8.571
 5723TIP3    H138804   2.641   4.586   8.477
 5723TIP3    H238805   2.748   4.613   8.583
 5724TIP3   OH238806   2.976   4.823  10.320
 5724TIP3    H138807   3.071   4.816  10.305
 5724TIP3    H238808   2.959   4.744  10.372
 5725TIP3   OH238809   3.571   4.850  17.022
 5725TIP3    H138810   3.558   4.799  16.940
 5725TIP3    H238811   3.588   4.940  16.993
 5726TIP3   OH238812   2.507   4.302  10.088
 5726TIP3    H138813   2.522   4.231  10.021
 5726TIP3    H238814   2.506   4.382  10.032
 5727TIP3   OH238815   2.550   4.140   9.842
 5727TIP3    H138816   2.601   4.186   9.772
 5727TIP3    H238817   2.461   4.131   9.801
 5728TIP3   OH238818   2.704   4.688   9.867
 5728TIP3    H138819   2.779   4.672   9.809
 5728TIP3    H238820   2.667   4.771   9.832
 5729TIP3   OH238821   3.142   4.462  10.361
 5729TIP3    H138822   3.165   4.368  10.361
 5729TIP3    H238823   3.228   4.508  10.365
 5730TIP3   OH238824   3.278   4.743  10.176
 5730TIP3    H138825   3.253   4.816  10.115
 5730TIP3    H238826   3.374   4.740  10.159
 5731TIP3   OH238827   2.355   4.417  10.287
 5731TIP3    H138828   2.279   4.371  10.252
 5731TIP3    H238829   2.421   4.391  10.218
 5732TIP3   OH238830   2.628   3.883   9.881
 5732TIP3    H138831   2.610   3.979   9.872
 5732TIP3    H238832   2.554   3.846   9.831
 5733TIP3   OH238833   2.753   4.316  10.241
 5733TIP3    H138834   2.726   4.289  10.330
 5733TIP3    H238835   2.673   4.293  10.190
 5734TIP3   OH238836   3.030   4.230  10.156
 5734TIP3    H138837   2.932   4.235  10.162
 5734TIP3    H238838   3.049   4.163  10.223
 5735TIP3   OH238839   2.650   3.818  10.148
 5735TIP3    H138840   2.721   3.751  10.149
 5735TIP3    H238841   2.639   3.836  10.053
 5736TIP3   OH238842   2.694   3.991  10.352
 5736TIP3    H138843   2.669   3.931  10.279
 5736TIP3    H238844   2.625   4.057  10.355
 5737TIP3   OH238845   2.633   5.674   8.673
 5737TIP3    H138846   2.730   5.684   8.686
 5737TIP3    H238847   2.617   5.742   8.607
 5738TIP3   OH238848   1.991   5.128   8.627
 5738TIP3    H138849   2.086   5.147   8.650
 5738TIP3    H238850   2.004   5.081   8.547
 5739TIP3   OH238851   1.866   5.671   9.123
 5739TIP3    H138852   1.795   5.622   9.077
 5739TIP3    H238853   1.895   5.605   9.189
 5740TIP3   OH238854   1.949   5.484   9.311
 5740TIP3    H138855   1.914   5.397   9.331
 5740TIP3    H238856   1.972   5.518   9.399
 5741TIP3   OH238857   3.703   5.564   9.603
 5741TIP3    H138858   3.706   5.580   9.699
 5741TIP3    H238859   3.774   5.622   9.573
 5742TIP3   OH238860   3.662   5.522   9.898
 5742TIP3    H138861   3.614   5.446   9.860
 5742TIP3    H238862   3.712   5.476   9.968
 5743TIP3   OH238863   3.506   5.095  10.365
 5743TIP3    H138864   3.417   5.089  10.403
 5743TIP3    H238865   3.542   5.175  10.407
 5744TIP3   OH238866   3.640   4.928   8.905
 5744TIP3    H138867   3.721   4.975   8.925
 5744TIP3    H238868   3.630   4.857   8.973
 5745TIP3   OH238869   3.676   4.742   9.099
 5745TIP3    H138870   3.597   4.688   9.129
 5745TIP3    H238871   3.728   4.740   9.181
 5746TIP3   OH238872   3.648   5.006   9.593
 5746TIP3    H138873   3.732   4.969   9.560
 5746TIP3    H238874   3.663   5.102   9.580
 5747TIP3   OH238875   3.504   5.296   9.822
 5747TIP3    H138876   3.435   5.331   9.881
 5747TIP3    H238877   3.449   5.256   9.751
 5748TIP3   OH238878   3.704   4.720   8.733
 5748TIP3    H138879   3.643   4.751   8.663
 5748TIP3    H238880   3.690   4.788   8.800
 5749TIP3   OH238881   3.500   4.444   8.598
 5749TIP3    H138882   3.546   4.503   8.535
 5749TIP3    H238883   3.519   4.360   8.553
 5750TIP3   OH238884   3.458   4.586   9.154
 5750TIP3    H138885   3.441   4.490   9.148
 5750TIP3    H238886   3.421   4.604   9.243
 5751TIP3   OH238887   1.955   4.792   9.560
 5751TIP3    H138888   1.972   4.783   9.464
 5751TIP3    H238889   2.045   4.774   9.595
 5752TIP3   OH238890   3.541   4.781  10.123
 5752TIP3    H138891   3.602   4.705  10.134
 5752TIP3    H238892   3.601   4.858  10.123
 5753TIP3   OH238893   3.690   4.569  10.183
 5753TIP3    H138894   3.601   4.529  10.169
 5753TIP3    H238895   3.747   4.490  10.181
 5754TIP3   OH238896   3.465   4.182   8.497
 5754TIP3    H138897   3.523   4.141   8.565
 5754TIP3    H238898   3.376   4.151   8.518
 5755TIP3   OH238899   3.421   4.342   9.002
 5755TIP3    H138900   3.451   4.248   9.013
 5755TIP3    H238901   3.499   4.381   8.961
 5756TIP3   OH238902   3.485   4.396   9.544
 5756TIP3    H138903   3.581   4.419   9.542
 5756TIP3    H238904   3.467   4.410   9.638
 5757TIP3   OH238905   3.492   4.468   9.822
 5757TIP3    H138906   3.404   4.496   9.854
 5757TIP3    H238907   3.535   4.554   9.800
 5758TIP3   OH238908   1.922   4.325  10.181
 5758TIP3    H138909   2.012   4.297  10.190
 5758TIP3    H238910   1.872   4.243  10.205
 5759TIP3   OH238911   3.489   4.069   9.004
 5759TIP3    H138912   3.510   4.026   9.090
 5759TIP3    H238913   3.428   4.006   8.960
 5760TIP3   OH238914   2.037   4.151   9.460
 5760TIP3    H138915   2.083   4.068   9.486
 5760TIP3    H238916   2.093   4.220   9.499
 5761TIP3   OH238917   1.865   4.451   9.563
 5761TIP3    H138918   1.922   4.426   9.488
 5761TIP3    H238919   1.911   4.531   9.592
 5762TIP3   OH238920   3.669   4.086  10.195
 5762TIP3    H138921   3.576   4.110  10.179
 5762TIP3    H238922   3.681   4.030  10.117
 5763TIP3   OH238923   3.670   4.077   8.660
 5763TIP3    H138924   3.713   4.005   8.611
 5763TIP3    H238925   3.742   4.141   8.662
 5764TIP3   OH238926   1.900   4.077   8.970
 5764TIP3    H138927   1.806   4.095   8.955
 5764TIP3    H238928   1.943   4.127   8.897
 5765TIP3   OH238929   3.376   5.572   9.166
 5765TIP3    H138930   3.444   5.542   9.104
 5765TIP3    H238931   3.427   5.622   9.232
 5766TIP3   OH238932   1.903   3.943   9.799
 5766TIP3    H138933   1.833   3.921   9.866
 5766TIP3    H238934   1.853   4.010   9.747
 5767TIP3   OH238935   2.119   5.270  10.220
 5767TIP3    H138936   2.034   5.280  10.174
 5767TIP3    H238937   2.093   5.253  10.311
 5768TIP3   OH238938   2.409   5.362   9.842
 5768TIP3    H138939   2.378   5.450   9.818
 5768TIP3    H238940   2.503   5.372   9.815
 5769TIP3   OH238941   2.842   5.505  10.137
 5769TIP3    H138942   2.857   5.474  10.229
 5769TIP3    H238943   2.931   5.535  10.111
 5770TIP3   OH238944   3.071   5.633  10.068
 5770TIP3    H138945   3.143   5.575  10.041
 5770TIP3    H238946   3.108   5.674  10.148
 5771TIP3   OH238947   3.571   3.894   9.978
 5771TIP3    H138948   3.490   3.923   9.934
 5771TIP3    H238949   3.590   3.812   9.926
 5772TIP3   OH238950   2.153   5.688   9.842
 5772TIP3    H138951   2.078   5.737   9.805
 5772TIP3    H238952   2.123   5.668   9.933
 5773TIP3   OH238953   2.400   5.645   9.752
 5773TIP3    H138954   2.310   5.660   9.790
 5773TIP3    H238955   2.394   5.703   9.674
 5774TIP3   OH238956   2.870   5.635   9.669
 5774TIP3    H138957   2.824   5.691   9.604
 5774TIP3    H238958   2.883   5.698   9.743
 5775TIP3   OH238959   3.099   5.516   9.772
 5775TIP3    H138960   3.014   5.544   9.734
 5775TIP3    H238961   3.148   5.599   9.763
 5776TIP3   OH238962   3.356   5.673   9.793
 5776TIP3    H138963   3.352   5.769   9.771
 5776TIP3    H238964   3.378   5.636   9.705
 5777TIP3   OH238965   2.100   5.551   9.539
 5777TIP3    H138966   2.092   5.504   9.624
 5777TIP3    H238967   2.181   5.513   9.499
 5778TIP3   OH238968   2.307   5.423   9.404
 5778TIP3    H138969   2.290   5.329   9.427
 5778TIP3    H238970   2.393   5.438   9.448
 5779TIP3   OH238971   2.568   5.472   9.492
 5779TIP3    H138972   2.582   5.379   9.465
 5779TIP3    H238973   2.571   5.466   9.588
 5780TIP3   OH238974   2.912   4.036   9.405
 5780TIP3    H138975   2.845   3.972   9.434
 5780TIP3    H238976   2.967   3.983   9.347
 5781TIP3   OH238977   3.426   3.841   9.411
 5781TIP3    H138978   3.487   3.900   9.361
 5781TIP3    H238979   3.337   3.877   9.389
 5782TIP3   OH238980   3.592   3.966   9.239
 5782TIP3    H138981   3.661   3.908   9.198
 5782TIP3    H238982   3.644   4.049   9.250
 5783TIP3   OH238983   2.149   3.898   9.192
 5783TIP3    H138984   2.070   3.880   9.137
 5783TIP3    H238985   2.195   3.812   9.184
 5784TIP3   OH238986   2.022   3.874   8.761
 5784TIP3    H138987   2.075   3.938   8.708
 5784TIP3    H238988   1.968   3.932   8.817
 5785TIP3   OH238989   2.596   3.891   9.169
 5785TIP3    H138990   2.686   3.927   9.161
 5785TIP3    H238991   2.593   3.869   9.262
 5786TIP3   OH238992   3.168   3.893   9.331
 5786TIP3    H138993   3.163   3.905   9.235
 5786TIP3    H238994   3.130   3.802   9.343
 5787TIP3   OH238995   3.294   3.895   8.896
 5787TIP3    H138996   3.220   3.955   8.882
 5787TIP3    H238997   3.250   3.810   8.920
 5788TIP3   OH238998   2.018   5.471   8.864
 5788TIP3    H138999   1.950   5.470   8.794
 5788TIP3    H239000   2.021   5.566   8.879
 5789TIP3   OH239001   2.208   4.059   8.617
 5789TIP3    H139002   2.263   4.005   8.561
 5789TIP3    H239003   2.274   4.102   8.674
 5790TIP3   OH239004   2.712   4.093   8.854
 5790TIP3    H139005   2.738   4.035   8.928
 5790TIP3    H239006   2.719   4.180   8.900
 5791TIP3   OH239007   2.901   5.630   8.700
 5791TIP3    H139008   2.998   5.627   8.685
 5791TIP3    H239009   2.884   5.555   8.637
 5792TIP3   OH239010   3.574   5.550   8.971
 5792TIP3    H139011   3.554   5.472   8.914
 5792TIP3    H239012   3.566   5.623   8.906
 5793TIP3   OH239013   2.136   3.953  10.133
 5793TIP3    H139014   2.099   3.875  10.178
 5793TIP3    H239015   2.227   3.951  10.170
 5794TIP3   OH239016   2.334   3.887  10.290
 5794TIP3    H139017   2.425   3.855  10.274
 5794TIP3    H239018   2.301   3.812  10.343
 5795TIP3   OH239019   2.201   5.568   8.560
 5795TIP3    H139020   2.170   5.595   8.647
 5795TIP3    H239021   2.277   5.512   8.578
 5796TIP3   OH239022   3.179   3.809  10.303
 5796TIP3    H139023   3.182   3.787  10.398
 5796TIP3    H239024   3.273   3.818  10.281
 5797TIP3   OH239025   3.497   5.423  10.184
 5797TIP3    H139026   3.419   5.411  10.124
 5797TIP3    H239027   3.488   5.519  10.198
 5798TIP3   OH239028   4.946   4.814   9.173
 5798TIP3    H139029   4.941   4.912   9.174
 5798TIP3    H239030   4.869   4.791   9.119
 5799TIP3   OH239031   4.828   4.738   9.526
 5799TIP3    H139032   4.828   4.673   9.598
 5799TIP3    H239033   4.794   4.687   9.451
 5800TIP3   OH239034   4.064   4.706   9.681
 5800TIP3    H139035   4.073   4.637   9.750
 5800TIP3    H239036   4.139   4.764   9.703
 5801TIP3   OH239037   5.197   5.033   9.354
 5801TIP3    H139038   5.156   4.961   9.404
 5801TIP3    H239039   5.200   5.103   9.421
 5802TIP3   OH239040   4.157   5.153   9.521
 5802TIP3    H139041   4.128   5.062   9.504
 5802TIP3    H239042   4.251   5.135   9.540
 5803TIP3   OH239043   3.821   4.507   9.079
 5803TIP3    H139044   3.773   4.591   9.075
 5803TIP3    H239045   3.766   4.451   9.021
 5804TIP3   OH239046   3.894   4.731   9.286
 5804TIP3    H139047   3.915   4.650   9.340
 5804TIP3    H239048   3.972   4.733   9.231
 5805TIP3   OH239049   4.910   5.549   9.378
 5805TIP3    H139050   4.974   5.480   9.349
 5805TIP3    H239051   4.888   5.515   9.465
 5806TIP3   OH239052   4.667   4.978   9.570
 5806TIP3    H139053   4.702   4.914   9.507
 5806TIP3    H239054   4.744   4.996   9.626
 5807TIP3   OH239055   5.526   4.145   9.645
 5807TIP3    H139056   5.544   4.203   9.722
 5807TIP3    H239057   5.583   4.186   9.579
 5808TIP3   OH239058   4.983   4.425   9.605
 5808TIP3    H139059   5.000   4.329   9.605
 5808TIP3    H239060   4.973   4.439   9.508
 5809TIP3   OH239061   4.293   4.233   9.326
 5809TIP3    H139062   4.305   4.317   9.276
 5809TIP3    H239063   4.255   4.176   9.256
 5810TIP3   OH239064   5.069   4.243   9.162
 5810TIP3    H139065   5.131   4.209   9.231
 5810TIP3    H239066   5.128   4.297   9.109
 5811TIP3   OH239067   3.957   4.479   9.398
 5811TIP3    H139068   4.022   4.424   9.445
 5811TIP3    H239069   3.968   4.442   9.309
 5812TIP3   OH239070   4.474   4.630   9.332
 5812TIP3    H139071   4.540   4.572   9.371
 5812TIP3    H239072   4.421   4.566   9.279
 5813TIP3   OH239073   5.569   4.284   9.872
 5813TIP3    H139074   5.510   4.362   9.863
 5813TIP3    H239075   5.574   4.277   9.968
 5814TIP3   OH239076   4.186   4.124   9.729
 5814TIP3    H139077   4.158   4.181   9.655
 5814TIP3    H239078   4.119   4.147   9.798
 5815TIP3   OH239079   4.916   5.071   9.084
 5815TIP3    H139080   4.885   5.045   8.996
 5815TIP3    H239081   4.884   5.164   9.090
 5816TIP3   OH239082   4.432   4.880   9.749
 5816TIP3    H139083   4.366   4.948   9.775
 5816TIP3    H239084   4.502   4.947   9.731
 5817TIP3   OH239085   5.250   4.176   9.362
 5817TIP3    H139086   5.228   4.100   9.416
 5817TIP3    H239087   5.316   4.220   9.418
 5818TIP3   OH239088   4.142   4.310   9.534
 5818TIP3    H139089   4.205   4.379   9.565
 5818TIP3    H239090   4.194   4.269   9.460
 5819TIP3   OH239091   4.219   5.060   9.805
 5819TIP3    H139092   4.272   5.143   9.796
 5819TIP3    H239093   4.175   5.078   9.890
 5820TIP3   OH239094   3.880   5.057   8.916
 5820TIP3    H139095   3.871   5.087   8.823
 5820TIP3    H239096   3.899   5.142   8.963
 5821TIP3   OH239097   5.251   5.218   9.592
 5821TIP3    H139098   5.154   5.229   9.604
 5821TIP3    H239099   5.277   5.308   9.569
 5822TIP3   OH239100   5.283   4.045   9.729
 5822TIP3    H139101   5.210   4.108   9.720
 5822TIP3    H239102   5.354   4.087   9.678
 5823TIP3   OH239103   4.579   3.857   9.476
 5823TIP3    H139104   4.564   3.761   9.469
 5823TIP3    H239105   4.491   3.888   9.507
 5824TIP3   OH239106   5.077   5.395   9.250
 5824TIP3    H139107   5.119   5.323   9.199
 5824TIP3    H239108   5.121   5.474   9.212
 5825TIP3   OH239109   5.198   5.189   9.101
 5825TIP3    H139110   5.167   5.121   9.039
 5825TIP3    H239111   5.201   5.138   9.185
 5826TIP3   OH239112   5.358   5.048   9.951
 5826TIP3    H139113   5.374   4.981   9.880
 5826TIP3    H239114   5.381   5.132   9.906
 5827TIP3   OH239115   4.809   4.733   8.925
 5827TIP3    H139116   4.737   4.792   8.892
 5827TIP3    H239117   4.876   4.749   8.857
 5828TIP3   OH239118   4.812   4.589   8.635
 5828TIP3    H139119   4.885   4.592   8.697
 5828TIP3    H239120   4.843   4.525   8.571
 5829TIP3   OH239121   5.548   4.679   9.755
 5829TIP3    H139122   5.482   4.751   9.758
 5829TIP3    H239123   5.598   4.702   9.675
 5830TIP3   OH239124   5.151   4.755   9.023
 5830TIP3    H139125   5.078   4.787   9.083
 5830TIP3    H239126   5.204   4.703   9.087
 5831TIP3   OH239127   5.147   4.574   9.931
 5831TIP3    H139128   5.147   4.655   9.986
 5831TIP3    H239129   5.084   4.604   9.862
 5832TIP3   OH239130   4.312   4.823   9.215
 5832TIP3    H139131   4.287   4.790   9.125
 5832TIP3    H239132   4.379   4.756   9.243
 5833TIP3   OH239133   4.448   5.164   9.476
 5833TIP3    H139134   4.446   5.108   9.398
 5833TIP3    H239135   4.522   5.127   9.529
 5834TIP3   OH239136   4.348   4.695   9.577
 5834TIP3    H139137   4.403   4.709   9.498
 5834TIP3    H239138   4.385   4.765   9.638
 5835TIP3   OH239139   4.992   5.256   9.650
 5835TIP3    H139140   4.957   5.319   9.713
 5835TIP3    H239141   4.963   5.171   9.690
 5836TIP3   OH239142   4.417   5.125  10.086
 5836TIP3    H139143   4.403   5.221  10.101
 5836TIP3    H239144   4.396   5.120   9.990
 5837TIP3   OH239145   5.040   4.686   8.780
 5837TIP3    H139146   5.077   4.731   8.859
 5837TIP3    H239147   5.078   4.739   8.706
 5838TIP3   OH239148   4.136   4.752   9.967
 5838TIP3    H139149   4.144   4.823  10.034
 5838TIP3    H239150   4.044   4.768   9.939
 5839TIP3   OH239151   4.812   5.349   9.135
 5839TIP3    H139152   4.856   5.381   9.214
 5839TIP3    H239153   4.758   5.424   9.108
 5840TIP3   OH239154   4.266   5.348  10.123
 5840TIP3    H139155   4.263   5.335  10.026
 5840TIP3    H239156   4.173   5.330  10.146
 5841TIP3   OH239157   5.414   3.853   8.779
 5841TIP3    H139158   5.318   3.862   8.801
 5841TIP3    H239159   5.434   3.938   8.736
 5842TIP3   OH239160   4.203   4.723   8.980
 5842TIP3    H139161   4.196   4.804   8.923
 5842TIP3    H239162   4.146   4.657   8.941
 5843TIP3   OH239163   5.523   5.283   8.613
 5843TIP3    H139164   5.537   5.379   8.626
 5843TIP3    H239165   5.616   5.255   8.606
 5844TIP3   OH239166   3.820   4.968   9.863
 5844TIP3    H139167   3.776   4.960   9.777
 5844TIP3    H239168   3.829   4.873   9.884
 5845TIP3   OH239169   3.799   5.241   9.537
 5845TIP3    H139170   3.895   5.231   9.539
 5845TIP3    H239171   3.788   5.321   9.589
 5846TIP3   OH239172   5.619   5.313  10.105
 5846TIP3    H139173   5.610   5.217  10.106
 5846TIP3    H239174   5.535   5.337  10.149
 5847TIP3   OH239175   4.726   5.264  10.006
 5847TIP3    H139176   4.719   5.353  10.046
 5847TIP3    H239177   4.633   5.231  10.011
 5848TIP3   OH239178   4.760   5.640   8.976
 5848TIP3    H139179   4.751   5.635   8.879
 5848TIP3    H239180   4.764   5.736   8.991
 5849TIP3   OH239181   4.123   5.531   9.159
 5849TIP3    H139182   4.140   5.486   9.245
 5849TIP3    H239183   4.041   5.487   9.133
 5850TIP3   OH239184   5.061   5.561   8.670
 5850TIP3    H139185   5.111   5.486   8.630
 5850TIP3    H239186   5.071   5.539   8.764
 5851TIP3   OH239187   5.035   5.556   8.951
 5851TIP3    H139188   4.939   5.563   8.969
 5851TIP3    H239189   5.059   5.481   9.008
 5852TIP3   OH239190   5.339   4.460  10.150
 5852TIP3    H139191   5.286   4.504  10.082
 5852TIP3    H239192   5.334   4.366  10.125
 5853TIP3   OH239193   4.035   5.113   9.976
 5853TIP3    H139194   4.072   5.059  10.050
 5853TIP3    H239195   3.964   5.058   9.937
 5854TIP3   OH239196   4.318   3.948   9.551
 5854TIP3    H139197   4.228   3.935   9.515
 5854TIP3    H239198   4.305   4.030   9.601
 5855TIP3   OH239199   4.782   3.914   9.888
 5855TIP3    H139200   4.821   3.873   9.967
 5855TIP3    H239201   4.685   3.903   9.902
 5856TIP3   OH239202   5.108   4.298   9.974
 5856TIP3    H139203   5.055   4.278  10.055
 5856TIP3    H239204   5.094   4.393   9.957
 5857TIP3   OH239205   5.198   4.780   8.574
 5857TIP3    H139206   5.193   4.770   8.477
 5857TIP3    H239207   5.281   4.830   8.580
 5858TIP3   OH239208   4.747   4.172   8.623
 5858TIP3    H139209   4.714   4.166   8.714
 5858TIP3    H239210   4.719   4.084   8.593
 5859TIP3   OH239211   4.328   4.445   9.679
 5859TIP3    H139212   4.254   4.444   9.741
 5859TIP3    H239213   4.323   4.535   9.640
 5860TIP3   OH239214   4.325   4.455   9.163
 5860TIP3    H139215   4.231   4.431   9.150
 5860TIP3    H239216   4.362   4.428   9.077
 5861TIP3   OH239217   4.882   4.510   9.042
 5861TIP3    H139218   4.833   4.588   9.008
 5861TIP3    H239219   4.939   4.486   8.968
 5862TIP3   OH239220   4.781   4.529  10.185
 5862TIP3    H139221   4.730   4.451  10.216
 5862TIP3    H239222   4.865   4.519  10.235
 5863TIP3   OH239223   4.982   4.457   9.324
 5863TIP3    H139224   4.949   4.512   9.251
 5863TIP3    H239225   4.988   4.370   9.280
 5864TIP3   OH239226   4.090   4.470   9.844
 5864TIP3    H139227   4.099   4.514   9.930
 5864TIP3    H239228   4.046   4.386   9.867
 5865TIP3   OH239229   4.446   4.232   8.563
 5865TIP3    H139230   4.390   4.170   8.615
 5865TIP3    H239231   4.385   4.271   8.500
 5866TIP3   OH239232   3.756   4.181   9.245
 5866TIP3    H139233   3.825   4.176   9.314
 5866TIP3    H239234   3.801   4.143   9.166
 5867TIP3   OH239235   3.885   4.253   8.780
 5867TIP3    H139236   3.935   4.312   8.720
 5867TIP3    H239237   3.817   4.316   8.811
 5868TIP3   OH239238   4.899   4.614   9.780
 5868TIP3    H139239   4.937   4.545   9.722
 5868TIP3    H239240   4.852   4.561   9.847
 5869TIP3   OH239241   4.580   4.213   9.264
 5869TIP3    H139242   4.487   4.212   9.293
 5869TIP3    H239243   4.628   4.195   9.346
 5870TIP3   OH239244   4.060   4.369   9.150
 5870TIP3    H139245   3.971   4.381   9.111
 5870TIP3    H239246   4.089   4.285   9.110
 5871TIP3   OH239247   4.423   4.374   8.913
 5871TIP3    H139248   4.519   4.383   8.930
 5871TIP3    H239249   4.401   4.440   8.845
 5872TIP3   OH239250   5.020   4.136   9.588
 5872TIP3    H139251   4.952   4.140   9.658
 5872TIP3    H239252   4.969   4.110   9.510
 5873TIP3   OH239253   4.295   4.485   8.673
 5873TIP3    H139254   4.239   4.454   8.600
 5873TIP3    H239255   4.376   4.512   8.627
 5874TIP3   OH239256   5.339   5.700  10.217
 5874TIP3    H139257   5.371   5.741  10.135
 5874TIP3    H239258   5.408   5.732  10.280
 5875TIP3   OH239259   4.107   4.946  10.177
 5875TIP3    H139260   4.179   4.972  10.237
 5875TIP3    H239261   4.030   4.955  10.237
 5876TIP3   OH239262   4.708   4.488   9.453
 5876TIP3    H139263   4.768   4.434   9.400
 5876TIP3    H239264   4.693   4.433   9.531
 5877TIP3   OH239265   4.209   4.101   9.098
 5877TIP3    H139266   4.178   4.009   9.095
 5877TIP3    H239267   4.287   4.095   9.042
 5878TIP3   OH239268   4.571   4.320   9.695
 5878TIP3    H139269   4.489   4.372   9.703
 5878TIP3    H239270   4.627   4.356   9.766
 5879TIP3   OH239271   4.633   4.934   8.869
 5879TIP3    H139272   4.548   4.900   8.834
 5879TIP3    H239273   4.604   4.957   8.960
 5880TIP3   OH239274   5.350   4.862   9.745
 5880TIP3    H139275   5.406   4.911   9.681
 5880TIP3    H239276   5.264   4.867   9.699
 5881TIP3   OH239277   5.015   4.218   8.678
 5881TIP3    H139278   4.920   4.233   8.663
 5881TIP3    H239279   5.045   4.303   8.711
 5882TIP3   OH239280   4.785   4.969   9.991
 5882TIP3    H139281   4.744   4.926  10.067
 5882TIP3    H239282   4.749   5.059   9.995
 5883TIP3   OH239283   5.082   4.400   8.850
 5883TIP3    H139284   5.173   4.375   8.879
 5883TIP3    H239285   5.089   4.466   8.779
 5884TIP3   OH239286   4.135   4.877   9.440
 5884TIP3    H139287   4.211   4.875   9.377
 5884TIP3    H239288   4.151   4.798   9.495
 5885TIP3   OH239289   4.840   5.090   8.773
 5885TIP3    H139290   4.802   5.175   8.805
 5885TIP3    H239291   4.766   5.027   8.789
 5886TIP3   OH239292   3.841   4.723   9.970
 5886TIP3    H139293   3.858   4.679  10.055
 5886TIP3    H239294   3.778   4.661   9.928
 5887TIP3   OH239295   4.541   4.680  10.187
 5887TIP3    H139296   4.510   4.649  10.100
 5887TIP3    H239297   4.633   4.648  10.189
 5888TIP3   OH239298   5.011   5.216   9.986
 5888TIP3    H139299   4.918   5.226   9.957
 5888TIP3    H239300   5.000   5.234  10.078
 5889TIP3   OH239301   5.570   4.430   8.827
 5889TIP3    H139302   5.523   4.397   8.749
 5889TIP3    H239303   5.586   4.522   8.796
 5890TIP3   OH239304   5.576   5.014  10.103
 5890TIP3    H139305   5.488   5.036  10.065
 5890TIP3    H239306   5.631   5.011  10.022
 5891TIP3   OH239307   5.407   5.313   8.861
 5891TIP3    H139308   5.370   5.230   8.895
 5891TIP3    H239309   5.437   5.292   8.770
 5892TIP3   OH239310   5.126   4.795   9.574
 5892TIP3    H139311   5.032   4.773   9.562
 5892TIP3    H239312   5.170   4.720   9.529
 5893TIP3   OH239313   4.377   5.231   9.191
 5893TIP3    H139314   4.429   5.306   9.160
 5893TIP3    H239315   4.293   5.247   9.146
 5894TIP3   OH239316   3.950   4.711   8.632
 5894TIP3    H139317   4.013   4.772   8.676
 5894TIP3    H239318   3.864   4.739   8.668
 5895TIP3   OH239319   4.526   4.995   9.146
 5895TIP3    H139320   4.487   5.084   9.138
 5895TIP3    H239321   4.448   4.945   9.175
 5896TIP3   OH239322   4.564   5.439   9.775
 5896TIP3    H139323   4.624   5.506   9.746
 5896TIP3    H239324   4.619   5.379   9.830
 5897TIP3   OH239325   4.389   5.495   9.086
 5897TIP3    H139326   4.292   5.506   9.101
 5897TIP3    H239327   4.424   5.579   9.123
 5898TIP3   OH239328   4.919   5.014   9.739
 5898TIP3    H139329   4.881   4.993   9.827
 5898TIP3    H239330   4.979   4.941   9.721
 5899TIP3   OH239331   5.146   5.113   8.650
 5899TIP3    H139332   5.177   5.071   8.732
 5899TIP3    H239333   5.050   5.102   8.657
 5900TIP3   OH239334   5.198   5.472   9.989
 5900TIP3    H139335   5.131   5.419   9.940
 5900TIP3    H239336   5.214   5.539   9.920
 5901TIP3   OH239337   5.599   5.558   8.672
 5901TIP3    H139338   5.668   5.622   8.646
 5901TIP3    H239339   5.527   5.618   8.702
 5902TIP3   OH239340   4.006   4.197   9.925
 5902TIP3    H139341   3.915   4.231   9.922
 5902TIP3    H239342   3.995   4.111   9.970
 5903TIP3   OH239343   5.232   4.978   8.869
 5903TIP3    H139344   5.206   4.904   8.926
 5903TIP3    H239345   5.325   4.991   8.892
 5904TIP3   OH239346   3.968   5.373   9.769
 5904TIP3    H139347   4.001   5.282   9.769
 5904TIP3    H239348   3.996   5.402   9.856
 5905TIP3   OH239349   4.462   5.189   8.730
 5905TIP3    H139350   4.452   5.125   8.804
 5905TIP3    H239351   4.446   5.274   8.775
 5906TIP3   OH239352   4.066   4.905   8.769
 5906TIP3    H139353   4.027   4.947   8.846
 5906TIP3    H239354   4.149   4.960   8.768
 5907TIP3   OH239355   4.879   4.173   9.822
 5907TIP3    H139356   4.951   4.179   9.886
 5907TIP3    H239357   4.840   4.086   9.843
 5908TIP3   OH239358   4.951   4.133   8.933
 5908TIP3    H139359   4.977   4.175   8.848
 5908TIP3    H239360   5.011   4.176   8.995
 5909TIP3   OH239361   4.725   5.351   8.816
 5909TIP3    H139362   4.639   5.396   8.818
 5909TIP3    H239363   4.776   5.399   8.748
 5910TIP3   OH239364   4.676   4.305   9.011
 5910TIP3    H139365   4.753   4.364   9.016
 5910TIP3    H239366   4.649   4.292   9.104
 5911TIP3   OH239367   4.732   4.408   9.929
 5911TIP3    H139368   4.739   4.464  10.009
 5911TIP3    H239369   4.798   4.339   9.940
 5912TIP3   OH239370   4.761   4.011   9.099
 5912TIP3    H139371   4.729   4.075   9.164
 5912TIP3    H239372   4.831   4.066   9.055
 5913TIP3   OH239373   4.460   5.454   8.815
 5913TIP3    H139374   4.477   5.536   8.765
 5913TIP3    H239375   4.433   5.484   8.905
 5914TIP3   OH239376   4.327   4.120   8.777
 5914TIP3    H139377   4.321   4.212   8.809
 5914TIP3    H239378   4.419   4.098   8.802
 5915TIP3   OH239379   5.349   4.195  10.017
 5915TIP3    H139380   5.256   4.226  10.003
 5915TIP3    H239381   5.379   4.194   9.925
 5916TIP3   OH239382   5.211   4.572   9.412
 5916TIP3    H139383   5.127   4.528   9.390
 5916TIP3    H239384   5.258   4.506   9.468
 5917TIP3   OH239385   4.146   5.182   8.658
 5917TIP3    H139386   4.216   5.222   8.712
 5917TIP3    H239387   4.202   5.116   8.614
 5918TIP3   OH239388   3.990   4.435   8.596
 5918TIP3    H139389   3.986   4.532   8.607
 5918TIP3    H239390   3.903   4.415   8.559
 5919TIP3   OH239391   5.317   5.510   9.592
 5919TIP3    H139392   5.307   5.565   9.511
 5919TIP3    H239393   5.415   5.501   9.597
 5920TIP3   OH239394   4.066   3.912   9.465
 5920TIP3    H139395   4.047   3.913   9.369
 5920TIP3    H239396   4.025   3.826   9.490
 5921TIP3   OH239397   3.958   5.300   9.077
 5921TIP3    H139398   3.876   5.352   9.074
 5921TIP3    H239399   4.011   5.348   9.012
 5922TIP3   OH239400   3.880   5.568  10.209
 5922TIP3    H139401   3.943   5.548  10.281
 5922TIP3    H239402   3.842   5.480  10.188
 5923TIP3   OH239403   4.347   5.456  10.369
 5923TIP3    H139404   4.428   5.414  10.401
 5923TIP3    H239405   4.349   5.433  10.274
 5924TIP3   OH239406   4.802   5.416   8.567
 5924TIP3    H139407   4.717   5.368   8.557
 5924TIP3    H239408   4.852   5.372   8.498
 5925TIP3   OH239409   5.222   5.390   8.528
 5925TIP3    H139410   5.246   5.308   8.576
 5925TIP3    H239411   5.300   5.408   8.475
 5926TIP3   OH239412   3.871   4.944  10.309
 5926TIP3    H139413   3.890   4.855  10.275
 5926TIP3    H239414   3.800   4.972  10.249
 5927TIP3   OH239415   4.309   4.988   8.516
 5927TIP3    H139416   4.321   4.910   8.572
 5927TIP3    H239417   4.373   4.965   8.446
 5928TIP3   OH239418   4.547   4.944  10.248
 5928TIP3    H139419   4.509   4.979  10.164
 5928TIP3    H239420   4.553   4.847  10.233
 5929TIP3   OH239421   5.114   4.931   9.986
 5929TIP3    H139422   5.193   4.989   9.978
 5929TIP3    H239423   5.043   4.996   9.986
 5930TIP3   OH239424   3.967   4.671  10.248
 5930TIP3    H139425   4.006   4.584  10.235
 5930TIP3    H239426   3.939   4.668  10.340
 5931TIP3   OH239427   4.435   4.781   8.747
 5931TIP3    H139428   4.383   4.734   8.813
 5931TIP3    H239429   4.462   4.710   8.685
 5932TIP3   OH239430   4.355   4.565   9.980
 5932TIP3    H139431   4.297   4.638  10.004
 5932TIP3    H239432   4.395   4.602   9.899
 5933TIP3   OH239433   4.537   4.603   8.569
 5933TIP3    H139434   4.529   4.586   8.474
 5933TIP3    H239435   4.635   4.613   8.582
 5934TIP3   OH239436   4.865   4.824  10.316
 5934TIP3    H139437   4.960   4.818  10.299
 5934TIP3    H239438   4.848   4.747  10.373
 5935TIP3   OH239439   5.453   4.849  17.022
 5935TIP3    H139440   5.445   4.801  16.938
 5935TIP3    H239441   5.476   4.939  16.996
 5936TIP3   OH239442   4.395   4.302  10.089
 5936TIP3    H139443   4.406   4.231  10.023
 5936TIP3    H239444   4.391   4.382  10.032
 5937TIP3   OH239445   4.436   4.139   9.841
 5937TIP3    H139446   4.487   4.186   9.771
 5937TIP3    H239447   4.347   4.131   9.801
 5938TIP3   OH239448   4.590   4.687   9.866
 5938TIP3    H139449   4.665   4.673   9.808
 5938TIP3    H239450   4.553   4.771   9.833
 5939TIP3   OH239451   5.028   4.462  10.363
 5939TIP3    H139452   5.056   4.370  10.355
 5939TIP3    H239453   5.112   4.510  10.363
 5940TIP3   OH239454   5.164   4.743  10.177
 5940TIP3    H139455   5.139   4.815  10.115
 5940TIP3    H239456   5.260   4.740  10.158
 5941TIP3   OH239457   4.240   4.423  10.282
 5941TIP3    H139458   4.163   4.367  10.260
 5941TIP3    H239459   4.305   4.390  10.217
 5942TIP3   OH239460   4.514   3.882   9.882
 5942TIP3    H139461   4.497   3.979   9.871
 5942TIP3    H239462   4.440   3.846   9.830
 5943TIP3   OH239463   4.644   4.313  10.245
 5943TIP3    H139464   4.607   4.295  10.334
 5943TIP3    H239465   4.566   4.297  10.188
 5944TIP3   OH239466   4.914   4.229  10.152
 5944TIP3    H139467   4.817   4.234  10.164
 5944TIP3    H239468   4.942   4.164  10.220
 5945TIP3   OH239469   5.062   4.094  10.342
 5945TIP3    H139470   5.070   3.996  10.345
 5945TIP3    H239471   5.051   4.117  10.437
 5946TIP3   OH239472   4.051   4.221  10.255
 5946TIP3    H139473   4.075   4.149  10.193
 5946TIP3    H239474   4.041   4.172  10.338
 5947TIP3   OH239475   4.534   3.820  10.148
 5947TIP3    H139476   4.604   3.752  10.147
 5947TIP3    H239477   4.525   3.838  10.053
 5948TIP3   OH239478   4.573   3.983  10.359
 5948TIP3    H139479   4.556   3.933  10.276
 5948TIP3    H239480   4.513   4.060  10.351
 5949TIP3   OH239481   4.519   5.674   8.671
 5949TIP3    H139482   4.615   5.684   8.687
 5949TIP3    H239483   4.503   5.744   8.609
 5950TIP3   OH239484   3.883   5.116   8.639
 5950TIP3    H139485   3.980   5.133   8.657
 5950TIP3    H239486   3.890   5.056   8.564
 5951TIP3   OH239487   3.753   5.671   9.122
 5951TIP3    H139488   3.680   5.622   9.077
 5951TIP3    H239489   3.781   5.606   9.189
 5952TIP3   OH239490   3.835   5.485   9.311
 5952TIP3    H139491   3.798   5.398   9.332
 5952TIP3    H239492   3.858   5.518   9.400
 5953TIP3   OH239493   5.580   5.579   9.608
 5953TIP3    H139494   5.602   5.573   9.702
 5953TIP3    H239495   5.661   5.617   9.572
 5954TIP3   OH239496   5.543   5.526   9.894
 5954TIP3    H139497   5.498   5.444   9.861
 5954TIP3    H239498   5.596   5.482   9.964
 5955TIP3   OH239499   5.392   5.104  10.362
 5955TIP3    H139500   5.308   5.087  10.406
 5955TIP3    H239501   5.429   5.175  10.416
 5956TIP3   OH239502   5.523   4.927   8.907
 5956TIP3    H139503   5.608   4.970   8.929
 5956TIP3    H239504   5.522   4.857   8.977
 5957TIP3   OH239505   5.556   4.736   9.097
 5957TIP3    H139506   5.483   4.685   9.138
 5957TIP3    H239507   5.618   4.750   9.172
 5958TIP3   OH239508   5.535   5.005   9.596
 5958TIP3    H139509   5.615   4.966   9.557
 5958TIP3    H239510   5.549   5.101   9.578
 5959TIP3   OH239511   5.389   5.296   9.821
 5959TIP3    H139512   5.319   5.326   9.881
 5959TIP3    H239513   5.336   5.254   9.749
 5960TIP3   OH239514   5.580   4.714   8.736
 5960TIP3    H139515   5.533   4.757   8.662
 5960TIP3    H239516   5.582   4.789   8.800
 5961TIP3   OH239517   5.384   4.445   8.598
 5961TIP3    H139518   5.433   4.502   8.535
 5961TIP3    H239519   5.405   4.360   8.553
 5962TIP3   OH239520   5.330   4.584   9.150
 5962TIP3    H139521   5.329   4.487   9.154
 5962TIP3    H239522   5.311   4.605   9.244
 5963TIP3   OH239523   3.841   4.792   9.558
 5963TIP3    H139524   3.862   4.784   9.464
 5963TIP3    H239525   3.929   4.774   9.597
 5964TIP3   OH239526   5.426   4.781  10.126
 5964TIP3    H139527   5.486   4.704  10.138
 5964TIP3    H239528   5.488   4.856  10.120
 5965TIP3   OH239529   5.577   4.569  10.182
 5965TIP3    H139530   5.488   4.528  10.175
 5965TIP3    H239531   5.632   4.490  10.180
 5966TIP3   OH239532   5.350   4.184   8.501
 5966TIP3    H139533   5.409   4.140   8.565
 5966TIP3    H239534   5.261   4.148   8.518
 5967TIP3   OH239535   5.305   4.347   8.995
 5967TIP3    H139536   5.333   4.253   9.013
 5967TIP3    H239537   5.390   4.379   8.961
 5968TIP3   OH239538   5.371   4.396   9.544
 5968TIP3    H139539   5.467   4.419   9.543
 5968TIP3    H239540   5.352   4.410   9.638
 5969TIP3   OH239541   5.377   4.468   9.819
 5969TIP3    H139542   5.290   4.497   9.855
 5969TIP3    H239543   5.421   4.554   9.800
 5970TIP3   OH239544   3.802   4.323  10.176
 5970TIP3    H139545   3.896   4.302  10.194
 5970TIP3    H239546   3.758   4.239  10.202
 5971TIP3   OH239547   5.612   3.873  10.357
 5971TIP3    H139548   5.640   3.805  10.294
 5971TIP3    H239549   5.613   3.955  10.303
 5972TIP3   OH239550   5.371   4.073   9.005
 5972TIP3    H139551   5.396   4.028   9.089
 5972TIP3    H239552   5.315   4.005   8.960
 5973TIP3   OH239553   3.923   4.152   9.460
 5973TIP3    H139554   3.968   4.069   9.486
 5973TIP3    H239555   3.978   4.220   9.499
 5974TIP3   OH239556   3.751   4.451   9.564
 5974TIP3    H139557   3.807   4.426   9.488
 5974TIP3    H239558   3.798   4.532   9.590
 5975TIP3   OH239559   5.560   4.082  10.193
 5975TIP3    H139560   5.466   4.111  10.190
 5975TIP3    H239561   5.561   4.029  10.112
 5976TIP3   OH239562   5.555   4.076   8.660
 5976TIP3    H139563   5.598   4.005   8.611
 5976TIP3    H239564   5.628   4.141   8.662
 5977TIP3   OH239565   3.787   4.077   8.970
 5977TIP3    H139566   3.693   4.096   8.958
 5977TIP3    H239567   3.828   4.127   8.897
 5978TIP3   OH239568   5.260   5.571   9.167
 5978TIP3    H139569   5.329   5.542   9.103
 5978TIP3    H239570   5.311   5.624   9.228
 5979TIP3   OH239571   3.782   3.942   9.800
 5979TIP3    H139572   3.716   3.923   9.869
 5979TIP3    H239573   3.736   4.010   9.748
 5980TIP3   OH239574   4.006   5.269  10.219
 5980TIP3    H139575   3.923   5.283  10.172
 5980TIP3    H239576   3.977   5.255  10.308
 5981TIP3   OH239577   4.285   5.378   9.854
 5981TIP3    H139578   4.263   5.462   9.812
 5981TIP3    H239579   4.376   5.363   9.819
 5982TIP3   OH239580   4.731   5.504  10.136
 5982TIP3    H139581   4.742   5.471  10.228
 5982TIP3    H239582   4.818   5.538  10.109
 5983TIP3   OH239583   4.957   5.629  10.069
 5983TIP3    H139584   5.032   5.576  10.039
 5983TIP3    H239585   4.994   5.678  10.145
 5984TIP3   OH239586   5.459   3.893   9.977
 5984TIP3    H139587   5.376   3.923   9.936
 5984TIP3    H239588   5.475   3.811   9.926
 5985TIP3   OH239589   4.038   5.686   9.844
 5985TIP3    H139590   3.965   5.736   9.804
 5985TIP3    H239591   4.008   5.667   9.933
 5986TIP3   OH239592   4.286   5.648   9.752
 5986TIP3    H139593   4.196   5.658   9.791
 5986TIP3    H239594   4.279   5.704   9.673
 5987TIP3   OH239595   4.760   5.638   9.666
 5987TIP3    H139596   4.710   5.692   9.603
 5987TIP3    H239597   4.770   5.700   9.742
 5988TIP3   OH239598   4.983   5.515   9.771
 5988TIP3    H139599   4.897   5.542   9.733
 5988TIP3    H239600   5.031   5.599   9.760
 5989TIP3   OH239601   5.228   5.672   9.790
 5989TIP3    H139602   5.212   5.767   9.767
 5989TIP3    H239603   5.246   5.629   9.703
 5990TIP3   OH239604   3.985   5.551   9.539
 5990TIP3    H139605   3.977   5.505   9.624
 5990TIP3    H239606   4.067   5.513   9.500
 5991TIP3   OH239607   4.192   5.422   9.402
 5991TIP3    H139608   4.177   5.329   9.427
 5991TIP3    H239609   4.277   5.437   9.449
 5992TIP3   OH239610   4.454   5.473   9.491
 5992TIP3    H139611   4.468   5.380   9.465
 5992TIP3    H239612   4.456   5.463   9.588
 5993TIP3   OH239613   4.798   4.037   9.405
 5993TIP3    H139614   4.730   3.973   9.434
 5993TIP3    H239615   4.853   3.983   9.347
 5994TIP3   OH239616   5.312   3.840   9.412
 5994TIP3    H139617   5.373   3.900   9.361
 5994TIP3    H239618   5.223   3.877   9.389
 5995TIP3   OH239619   5.478   3.966   9.239
 5995TIP3    H139620   5.547   3.908   9.198
 5995TIP3    H239621   5.529   4.049   9.250
 5996TIP3   OH239622   4.035   3.898   9.191
 5996TIP3    H139623   3.956   3.880   9.137
 5996TIP3    H239624   4.081   3.812   9.184
 5997TIP3   OH239625   3.908   3.875   8.761
 5997TIP3    H139626   3.960   3.938   8.708
 5997TIP3    H239627   3.855   3.933   8.818
 5998TIP3   OH239628   4.481   3.891   9.169
 5998TIP3    H139629   4.571   3.927   9.161
 5998TIP3    H239630   4.479   3.869   9.262
 5999TIP3   OH239631   5.054   3.893   9.331
 5999TIP3    H139632   5.048   3.905   9.235
 5999TIP3    H239633   5.016   3.803   9.343
 6000TIP3   OH239634   5.180   3.897   8.896
 6000TIP3    H139635   5.105   3.956   8.881
 6000TIP3    H239636   5.136   3.812   8.919
 6001TIP3   OH239637   3.901   5.471   8.865
 6001TIP3    H139638   3.832   5.473   8.796
 6001TIP3    H239639   3.907   5.566   8.881
 6002TIP3   OH239640   4.093   4.059   8.617
 6002TIP3    H139641   4.149   4.005   8.560
 6002TIP3    H239642   4.159   4.103   8.674
 6003TIP3   OH239643   4.597   4.093   8.854
 6003TIP3    H139644   4.626   4.037   8.928
 6003TIP3    H239645   4.605   4.180   8.900
 6004TIP3   OH239646   4.786   5.628   8.700
 6004TIP3    H139647   4.883   5.629   8.686
 6004TIP3    H239648   4.770   5.554   8.636
 6005TIP3   OH239649   5.459   5.551   8.970
 6005TIP3    H139650   5.440   5.472   8.913
 6005TIP3    H239651   5.450   5.624   8.906
 6006TIP3   OH239652   4.021   3.952  10.137
 6006TIP3    H139653   3.981   3.872  10.176
 6006TIP3    H239654   4.113   3.946  10.171
 6007TIP3   OH239655   4.223   3.892  10.302
 6007TIP3    H139656   4.310   3.859  10.273
 6007TIP3    H239657   4.186   3.810  10.338
 6008TIP3   OH239658   4.080   5.558   8.561
 6008TIP3    H139659   4.058   5.597   8.646
 6008TIP3    H239660   4.165   5.514   8.576
 6009TIP3   OH239661   5.065   3.821  10.311
 6009TIP3    H139662   5.071   3.777  10.398
 6009TIP3    H239663   5.158   3.818  10.280
 6010TIP3   OH239664   5.383   5.426  10.183
 6010TIP3    H139665   5.306   5.412  10.125
 6010TIP3    H239666   5.376   5.521  10.201
 6011TIP3   OH239667   6.829   4.811   9.175
 6011TIP3    H139668   6.828   4.909   9.172
 6011TIP3    H239669   6.756   4.789   9.115
 6012TIP3   OH239670   6.715   4.738   9.525
 6012TIP3    H139671   6.713   4.674   9.598
 6012TIP3    H239672   6.680   4.686   9.450
 6013TIP3   OH239673   5.950   4.706   9.681
 6013TIP3    H139674   5.958   4.637   9.750
 6013TIP3    H239675   6.025   4.763   9.703
 6014TIP3   OH239676   7.084   5.030   9.356
 6014TIP3    H139677   7.042   4.960   9.406
 6014TIP3    H239678   7.091   5.100   9.424
 6015TIP3   OH239679   6.042   5.151   9.531
 6015TIP3    H139680   6.011   5.064   9.499
 6015TIP3    H239681   6.138   5.133   9.535
 6016TIP3   OH239682   5.706   4.505   9.081
 6016TIP3    H139683   5.666   4.594   9.074
 6016TIP3    H239684   5.651   4.452   9.022
 6017TIP3   OH239685   5.778   4.729   9.295
 6017TIP3    H139686   5.805   4.646   9.340
 6017TIP3    H239687   5.847   4.740   9.228
 6018TIP3   OH239688   6.798   5.550   9.378
 6018TIP3    H139689   6.861   5.479   9.349
 6018TIP3    H239690   6.774   5.515   9.464
 6019TIP3   OH239691   6.552   4.977   9.574
 6019TIP3    H139692   6.586   4.915   9.507
 6019TIP3    H239693   6.634   4.994   9.625
 6020TIP3   OH239694   6.867   4.425   9.604
 6020TIP3    H139695   6.886   4.330   9.605
 6020TIP3    H239696   6.858   4.438   9.508
 6021TIP3   OH239697   6.180   4.234   9.326
 6021TIP3    H139698   6.191   4.317   9.276
 6021TIP3    H239699   6.141   4.176   9.257
 6022TIP3   OH239700   6.954   4.244   9.164
 6022TIP3    H139701   7.020   4.210   9.230
 6022TIP3    H239702   7.011   4.299   9.108
 6023TIP3   OH239703   5.843   4.475   9.399
 6023TIP3    H139704   5.909   4.421   9.445
 6023TIP3    H239705   5.853   4.443   9.308
 6024TIP3   OH239706   6.358   4.631   9.332
 6024TIP3    H139707   6.426   4.572   9.371
 6024TIP3    H239708   6.307   4.566   9.280
 6025TIP3   OH239709   6.072   4.124   9.730
 6025TIP3    H139710   6.043   4.181   9.655
 6025TIP3    H239711   6.004   4.147   9.798
 6026TIP3   OH239712   6.797   5.070   9.085
 6026TIP3    H139713   6.774   5.045   8.994
 6026TIP3    H239714   6.769   5.164   9.089
 6027TIP3   OH239715   6.322   4.888   9.753
 6027TIP3    H139716   6.252   4.952   9.776
 6027TIP3    H239717   6.393   4.948   9.724
 6028TIP3   OH239718   7.116   4.174   9.368
 6028TIP3    H139719   7.109   4.095   9.421
 6028TIP3    H239720   7.189   4.222   9.413
 6029TIP3   OH239721   6.029   4.309   9.534
 6029TIP3    H139722   6.091   4.378   9.565
 6029TIP3    H239723   6.080   4.269   9.460
 6030TIP3   OH239724   6.167   5.088   9.835
 6030TIP3    H139725   6.163   5.180   9.802
 6030TIP3    H239726   6.080   5.081   9.881
 6031TIP3   OH239727   5.773   5.049   8.914
 6031TIP3    H139728   5.753   5.084   8.825
 6031TIP3    H239729   5.782   5.132   8.967
 6032TIP3   OH239730   7.128   5.212   9.598
 6032TIP3    H139731   7.031   5.226   9.604
 6032TIP3    H239732   7.160   5.300   9.572
 6033TIP3   OH239733   7.160   4.056   9.716
 6033TIP3    H139734   7.085   4.118   9.719
 6033TIP3    H239735   7.229   4.105   9.670
 6034TIP3   OH239736   6.465   3.857   9.476
 6034TIP3    H139737   6.451   3.761   9.469
 6034TIP3    H239738   6.377   3.888   9.507
 6035TIP3   OH239739   6.958   5.391   9.250
 6035TIP3    H139740   7.004   5.321   9.200
 6035TIP3    H239741   7.005   5.470   9.215
 6036TIP3   OH239742   7.081   5.185   9.099
 6036TIP3    H139743   7.054   5.115   9.038
 6036TIP3    H239744   7.087   5.136   9.183
 6037TIP3   OH239745   7.223   5.057   9.959
 6037TIP3    H139746   7.254   4.989   9.897
 6037TIP3    H239747   7.264   5.136   9.917
 6038TIP3   OH239748   6.693   4.737   8.925
 6038TIP3    H139749   6.625   4.796   8.886
 6038TIP3    H239750   6.765   4.746   8.860
 6039TIP3   OH239751   6.700   4.590   8.635
 6039TIP3    H139752   6.773   4.591   8.699
 6039TIP3    H239753   6.732   4.526   8.572
 6040TIP3   OH239754   7.039   4.759   9.018
 6040TIP3    H139755   6.966   4.784   9.080
 6040TIP3    H239756   7.086   4.693   9.074
 6041TIP3   OH239757   7.026   4.571   9.930
 6041TIP3    H139758   7.032   4.652   9.983
 6041TIP3    H239759   6.968   4.605   9.859
 6042TIP3   OH239760   6.199   4.823   9.211
 6042TIP3    H139761   6.168   4.784   9.126
 6042TIP3    H239762   6.262   4.754   9.244
 6043TIP3   OH239763   6.331   5.161   9.480
 6043TIP3    H139764   6.332   5.110   9.398
 6043TIP3    H239765   6.410   5.126   9.525
 6044TIP3   OH239766   6.233   4.698   9.578
 6044TIP3    H139767   6.288   4.707   9.497
 6044TIP3    H239768   6.273   4.764   9.638
 6045TIP3   OH239769   6.871   5.256   9.647
 6045TIP3    H139770   6.849   5.319   9.716
 6045TIP3    H239771   6.850   5.170   9.691
 6046TIP3   OH239772   6.330   5.143  10.045
 6046TIP3    H139773   6.285   5.214  10.096
 6046TIP3    H239774   6.261   5.120   9.978
 6047TIP3   OH239775   6.930   4.674   8.784
 6047TIP3    H139776   6.981   4.697   8.866
 6047TIP3    H239777   6.968   4.732   8.715
 6048TIP3   OH239778   6.023   4.757   9.964
 6048TIP3    H139779   6.029   4.824  10.034
 6048TIP3    H239780   5.930   4.766   9.940
 6049TIP3   OH239781   6.697   5.349   9.134
 6049TIP3    H139782   6.741   5.381   9.214
 6049TIP3    H239783   6.642   5.424   9.108
 6050TIP3   OH239784   6.155   5.342  10.122
 6050TIP3    H139785   6.148   5.334  10.025
 6050TIP3    H239786   6.062   5.329  10.149
 6051TIP3   OH239787   7.275   3.842   8.770
 6051TIP3    H139788   7.185   3.865   8.800
 6051TIP3    H239789   7.307   3.923   8.731
 6052TIP3   OH239790   6.096   4.726   8.972
 6052TIP3    H139791   6.069   4.803   8.920
 6052TIP3    H239792   6.032   4.659   8.949
 6053TIP3   OH239793   5.706   4.968   9.864
 6053TIP3    H139794   5.662   4.960   9.777
 6053TIP3    H239795   5.715   4.873   9.884
 6054TIP3   OH239796   5.684   5.241   9.539
 6054TIP3    H139797   5.779   5.229   9.538
 6054TIP3    H239798   5.677   5.322   9.590
 6055TIP3   OH239799   6.602   5.267   9.995
 6055TIP3    H139800   6.608   5.351  10.045
 6055TIP3    H239801   6.515   5.229  10.019
 6056TIP3   OH239802   6.646   5.640   8.974
 6056TIP3    H139803   6.638   5.635   8.877
 6056TIP3    H239804   6.651   5.737   8.991
 6057TIP3   OH239805   6.011   5.529   9.157
 6057TIP3    H139806   6.025   5.487   9.245
 6057TIP3    H239807   5.925   5.488   9.133
 6058TIP3   OH239808   6.954   5.561   8.671
 6058TIP3    H139809   6.997   5.483   8.630
 6058TIP3    H239810   6.955   5.537   8.765
 6059TIP3   OH239811   6.920   5.556   8.951
 6059TIP3    H139812   6.824   5.562   8.970
 6059TIP3    H239813   6.946   5.482   9.008
 6060TIP3   OH239814   7.188   4.468  10.160
 6060TIP3    H139815   7.171   4.507  10.075
 6060TIP3    H239816   7.228   4.382  10.133
 6061TIP3   OH239817   5.935   5.100   9.956
 6061TIP3    H139818   5.957   5.064  10.045
 6061TIP3    H239819   5.848   5.060   9.935
 6062TIP3   OH239820   6.204   3.948   9.551
 6062TIP3    H139821   6.113   3.935   9.515
 6062TIP3    H239822   6.190   4.031   9.600
 6063TIP3   OH239823   6.667   3.914   9.887
 6063TIP3    H139824   6.707   3.872   9.966
 6063TIP3    H239825   6.570   3.903   9.902
 6064TIP3   OH239826   6.993   4.298   9.976
 6064TIP3    H139827   6.938   4.279  10.056
 6064TIP3    H239828   6.977   4.392   9.956
 6065TIP3   OH239829   7.083   4.780   8.571
 6065TIP3    H139830   7.079   4.770   8.474
 6065TIP3    H239831   7.163   4.833   8.579
 6066TIP3   OH239832   6.632   4.172   8.623
 6066TIP3    H139833   6.599   4.168   8.715
 6066TIP3    H239834   6.608   4.083   8.594
 6067TIP3   OH239835   6.214   4.445   9.678
 6067TIP3    H139836   6.140   4.444   9.741
 6067TIP3    H239837   6.209   4.536   9.640
 6068TIP3   OH239838   6.210   4.455   9.164
 6068TIP3    H139839   6.116   4.431   9.150
 6068TIP3    H239840   6.247   4.428   9.078
 6069TIP3   OH239841   6.763   4.506   9.038
 6069TIP3    H139842   6.722   4.589   9.005
 6069TIP3    H239843   6.832   4.490   8.971
 6070TIP3   OH239844   6.667   4.527  10.184
 6070TIP3    H139845   6.616   4.449  10.215
 6070TIP3    H239846   6.752   4.518  10.232
 6071TIP3   OH239847   6.865   4.458   9.326
 6071TIP3    H139848   6.837   4.513   9.251
 6071TIP3    H239849   6.874   4.373   9.280
 6072TIP3   OH239850   5.976   4.469   9.845
 6072TIP3    H139851   5.985   4.510   9.933
 6072TIP3    H239852   5.931   4.386   9.866
 6073TIP3   OH239853   6.330   4.235   8.564
 6073TIP3    H139854   6.275   4.170   8.612
 6073TIP3    H239855   6.271   4.269   8.496
 6074TIP3   OH239856   5.642   4.180   9.244
 6074TIP3    H139857   5.710   4.176   9.314
 6074TIP3    H239858   5.686   4.143   9.166
 6075TIP3   OH239859   5.769   4.254   8.782
 6075TIP3    H139860   5.820   4.311   8.720
 6075TIP3    H239861   5.702   4.317   8.812
 6076TIP3   OH239862   6.785   4.614   9.779
 6076TIP3    H139863   6.824   4.544   9.721
 6076TIP3    H239864   6.738   4.561   9.847
 6077TIP3   OH239865   6.465   4.213   9.264
 6077TIP3    H139866   6.371   4.212   9.293
 6077TIP3    H239867   6.513   4.195   9.346
 6078TIP3   OH239868   5.946   4.367   9.151
 6078TIP3    H139869   5.857   4.383   9.111
 6078TIP3    H239870   5.974   4.284   9.110
 6079TIP3   OH239871   6.309   4.375   8.915
 6079TIP3    H139872   6.405   4.383   8.930
 6079TIP3    H239873   6.287   4.439   8.845
 6080TIP3   OH239874   6.902   4.133   9.587
 6080TIP3    H139875   6.835   4.140   9.658
 6080TIP3    H239876   6.851   4.112   9.508
 6081TIP3   OH239877   6.181   4.488   8.674
 6081TIP3    H139878   6.125   4.454   8.602
 6081TIP3    H239879   6.262   4.511   8.625
 6082TIP3   OH239880   7.223   5.701  10.225
 6082TIP3    H139881   7.253   5.736  10.140
 6082TIP3    H239882   7.294   5.732  10.283
 6083TIP3   OH239883   5.996   4.949  10.180
 6083TIP3    H139884   6.066   4.973  10.243
 6083TIP3    H239885   5.918   4.957  10.238
 6084TIP3   OH239886   6.593   4.487   9.453
 6084TIP3    H139887   6.655   4.434   9.401
 6084TIP3    H239888   6.578   4.433   9.531
 6085TIP3   OH239889   6.094   4.102   9.098
 6085TIP3    H139890   6.063   4.010   9.096
 6085TIP3    H239891   6.173   4.095   9.042
 6086TIP3   OH239892   6.457   4.320   9.695
 6086TIP3    H139893   6.375   4.372   9.703
 6086TIP3    H239894   6.513   4.356   9.766
 6087TIP3   OH239895   6.516   4.940   8.867
 6087TIP3    H139896   6.436   4.895   8.833
 6087TIP3    H239897   6.493   4.954   8.961
 6088TIP3   OH239898   7.220   4.869   9.745
 6088TIP3    H139899   7.284   4.887   9.673
 6088TIP3    H239900   7.138   4.866   9.693
 6089TIP3   OH239901   6.901   4.221   8.683
 6089TIP3    H139902   6.807   4.236   8.665
 6089TIP3    H239903   6.928   4.310   8.714
 6090TIP3   OH239904   6.665   4.967   9.986
 6090TIP3    H139905   6.631   4.927  10.067
 6090TIP3    H239906   6.643   5.060   9.999
 6091TIP3   OH239907   6.973   4.417   8.842
 6091TIP3    H139908   7.059   4.405   8.887
 6091TIP3    H239909   6.979   4.503   8.798
 6092TIP3   OH239910   6.027   4.883   9.444
 6092TIP3    H139911   6.095   4.874   9.375
 6092TIP3    H239912   6.033   4.797   9.490
 6093TIP3   OH239913   6.725   5.090   8.772
 6093TIP3    H139914   6.687   5.175   8.804
 6093TIP3    H239915   6.652   5.026   8.789
 6094TIP3   OH239916   5.727   4.721   9.971
 6094TIP3    H139917   5.743   4.677  10.056
 6094TIP3    H239918   5.663   4.661   9.928
 6095TIP3   OH239919   6.426   4.677  10.188
 6095TIP3    H139920   6.396   4.648  10.100
 6095TIP3    H239921   6.519   4.648  10.187
 6096TIP3   OH239922   6.894   5.209   9.983
 6096TIP3    H139923   6.803   5.229   9.959
 6096TIP3    H239924   6.894   5.241  10.075
 6097TIP3   OH239925   7.280   5.312   8.862
 6097TIP3    H139926   7.250   5.228   8.897
 6097TIP3    H239927   7.320   5.294   8.777
 6098TIP3   OH239928   7.006   4.792   9.575
 6098TIP3    H139929   6.912   4.771   9.559
 6098TIP3    H239930   7.053   4.719   9.530
 6099TIP3   OH239931   6.264   5.228   9.183
 6099TIP3    H139932   6.314   5.308   9.162
 6099TIP3    H239933   6.176   5.251   9.150
 6100TIP3   OH239934   5.837   4.713   8.635
 6100TIP3    H139935   5.899   4.775   8.678
 6100TIP3    H239936   5.751   4.741   8.669
 6101TIP3   OH239937   6.405   4.994   9.135
 6101TIP3    H139938   6.374   5.086   9.143
 6101TIP3    H239939   6.334   4.945   9.180
 6102TIP3   OH239940   6.450   5.413   9.776
 6102TIP3    H139941   6.496   5.493   9.747
 6102TIP3    H239942   6.512   5.378   9.841
 6103TIP3   OH239943   6.275   5.494   9.087
 6103TIP3    H139944   6.178   5.507   9.102
 6103TIP3    H239945   6.310   5.577   9.122
 6104TIP3   OH239946   6.804   5.011   9.737
 6104TIP3    H139947   6.770   4.993   9.828
 6104TIP3    H239948   6.867   4.940   9.721
 6105TIP3   OH239949   7.033   5.116   8.650
 6105TIP3    H139950   7.061   5.071   8.732
 6105TIP3    H239951   6.937   5.102   8.656
 6106TIP3   OH239952   7.081   5.474   9.987
 6106TIP3    H139953   7.016   5.421   9.937
 6106TIP3    H239954   7.105   5.540   9.919
 6107TIP3   OH239955   5.891   4.196   9.925
 6107TIP3    H139956   5.800   4.231   9.923
 6107TIP3    H239957   5.880   4.111   9.972
 6108TIP3   OH239958   7.115   4.980   8.872
 6108TIP3    H139959   7.089   4.900   8.924
 6108TIP3    H239960   7.209   4.988   8.895
 6109TIP3   OH239961   5.851   5.375   9.768
 6109TIP3    H139962   5.883   5.283   9.768
 6109TIP3    H239963   5.880   5.403   9.856
 6110TIP3   OH239964   6.327   5.184   8.739
 6110TIP3    H139965   6.354   5.127   8.813
 6110TIP3    H239966   6.336   5.274   8.775
 6111TIP3   OH239967   5.975   4.906   8.784
 6111TIP3    H139968   5.910   4.946   8.845
 6111TIP3    H239969   6.033   4.981   8.763
 6112TIP3   OH239970   6.762   4.172   9.823
 6112TIP3    H139971   6.837   4.179   9.884
 6112TIP3    H239972   6.726   4.084   9.844
 6113TIP3   OH239973   6.839   4.130   8.931
 6113TIP3    H139974   6.863   4.176   8.849
 6113TIP3    H239975   6.896   4.173   8.995
 6114TIP3   OH239976   6.607   5.348   8.814
 6114TIP3    H139977   6.525   5.400   8.819
 6114TIP3    H239978   6.661   5.397   8.750
 6115TIP3   OH239979   6.561   4.304   9.012
 6115TIP3    H139980   6.639   4.363   9.014
 6115TIP3    H239981   6.535   4.293   9.105
 6116TIP3   OH239982   6.620   4.408   9.930
 6116TIP3    H139983   6.628   4.464  10.010
 6116TIP3    H239984   6.684   4.337   9.941
 6117TIP3   OH239985   6.643   4.011   9.098
 6117TIP3    H139986   6.615   4.075   9.165
 6117TIP3    H239987   6.714   4.065   9.055
 6118TIP3   OH239988   6.345   5.451   8.816
 6118TIP3    H139989   6.361   5.533   8.765
 6118TIP3    H239990   6.319   5.486   8.905
 6119TIP3   OH239991   6.213   4.121   8.776
 6119TIP3    H139992   6.207   4.213   8.810
 6119TIP3    H239993   6.304   4.098   8.802
 6120TIP3   OH239994   7.231   4.187  10.005
 6120TIP3    H139995   7.142   4.228  10.003
 6120TIP3    H239996   7.263   4.200   9.915
 6121TIP3   OH239997   7.098   4.574   9.422
 6121TIP3    H139998   7.015   4.532   9.390
 6121TIP3    H239999   7.137   4.500   9.470
 6122TIP3   OH240000   6.036   5.167   8.676
 6122TIP3    H140001   6.103   5.228   8.709
 6122TIP3    H240002   6.088   5.119   8.608
 6123TIP3   OH240003   5.874   4.435   8.601
 6123TIP3    H140004   5.874   4.532   8.605
 6123TIP3    H240005   5.791   4.415   8.557
 6124TIP3   OH240006   7.207   5.500   9.584
 6124TIP3    H140007   7.190   5.569   9.517
 6124TIP3    H240008   7.301   5.509   9.602
 6125TIP3   OH240009   5.952   3.912   9.465
 6125TIP3    H140010   5.933   3.913   9.369
 6125TIP3    H240011   5.910   3.826   9.490
 6126TIP3   OH240012   5.847   5.304   9.079
 6126TIP3    H140013   5.761   5.348   9.073
 6126TIP3    H240014   5.894   5.350   9.008
 6127TIP3   OH240015   5.771   5.564  10.201
 6127TIP3    H140016   5.827   5.549  10.280
 6127TIP3    H240017   5.727   5.478  10.191
 6128TIP3   OH240018   6.241   5.463  10.368
 6128TIP3    H140019   6.303   5.398  10.398
 6128TIP3    H240020   6.225   5.432  10.276
 6129TIP3   OH240021   6.687   5.417   8.567
 6129TIP3    H140022   6.603   5.369   8.557
 6129TIP3    H240023   6.737   5.372   8.498
 6130TIP3   OH240024   6.886   5.301  10.244
 6130TIP3    H140025   6.855   5.212  10.269
 6130TIP3    H240026   6.964   5.312  10.301
 6131TIP3   OH240027   7.101   5.385   8.526
 6131TIP3    H140028   7.130   5.307   8.576
 6131TIP3    H240029   7.180   5.415   8.479
 6132TIP3   OH240030   5.759   4.943  10.308
 6132TIP3    H140031   5.776   4.854  10.271
 6132TIP3    H240032   5.684   4.974  10.253
 6133TIP3   OH240033   6.202   4.988   8.523
 6133TIP3    H140034   6.208   4.904   8.569
 6133TIP3    H240035   6.257   4.965   8.445
 6134TIP3   OH240036   6.434   4.945  10.246
 6134TIP3    H140037   6.398   4.976  10.161
 6134TIP3    H240038   6.436   4.847  10.236
 6135TIP3   OH240039   6.997   4.928   9.981
 6135TIP3    H140040   7.075   4.987   9.976
 6135TIP3    H240041   6.929   4.997   9.989
 6136TIP3   OH240042   5.845   4.668  10.244
 6136TIP3    H140043   5.893   4.585  10.233
 6136TIP3    H240044   5.826   4.667  10.339
 6137TIP3   OH240045   6.316   4.785   8.752
 6137TIP3    H140046   6.264   4.731   8.814
 6137TIP3    H240047   6.346   4.716   8.688
 6138TIP3   OH240048   6.241   4.562   9.982
 6138TIP3    H140049   6.182   4.634  10.008
 6138TIP3    H240050   6.280   4.599   9.901
 6139TIP3   OH240051   6.424   4.605   8.572
 6139TIP3    H140052   6.411   4.586   8.477
 6139TIP3    H240053   6.521   4.613   8.581
 6140TIP3   OH240054   6.744   4.821  10.321
 6140TIP3    H140055   6.838   4.817  10.299
 6140TIP3    H240056   6.729   4.741  10.372
 6141TIP3   OH240057   6.282   4.301  10.087
 6141TIP3    H140058   6.293   4.231  10.020
 6141TIP3    H240059   6.276   4.382  10.032
 6142TIP3   OH240060   6.322   4.140   9.842
 6142TIP3    H140061   6.372   4.185   9.771
 6142TIP3    H240062   6.232   4.132   9.803
 6143TIP3   OH240063   6.475   4.688   9.866
 6143TIP3    H140064   6.551   4.671   9.809
 6143TIP3    H240065   6.439   4.772   9.832
 6144TIP3   OH240066   6.913   4.465  10.367
 6144TIP3    H140067   6.937   4.373  10.348
 6144TIP3    H240068   7.000   4.506  10.361
 6145TIP3   OH240069   7.044   4.744  10.177
 6145TIP3    H140070   7.024   4.817  10.115
 6145TIP3    H240071   7.141   4.738  10.160
 6146TIP3   OH240072   6.126   4.425  10.279
 6146TIP3    H140073   6.050   4.368  10.259
 6146TIP3    H240074   6.192   4.389  10.218
 6147TIP3   OH240075   6.400   3.883   9.880
 6147TIP3    H140076   6.382   3.979   9.869
 6147TIP3    H240077   6.325   3.846   9.830
 6148TIP3   OH240078   6.530   4.310  10.240
 6148TIP3    H140079   6.501   4.298  10.332
 6148TIP3    H240080   6.447   4.297  10.190
 6149TIP3   OH240081   6.799   4.230  10.154
 6149TIP3    H140082   6.701   4.234  10.165
 6149TIP3    H240083   6.829   4.165  10.219
 6150TIP3   OH240084   6.953   4.095  10.343
 6150TIP3    H140085   6.954   3.997  10.344
 6150TIP3    H240086   6.933   4.117  10.434
 6151TIP3   OH240087   5.937   4.219  10.251
 6151TIP3    H140088   5.961   4.145  10.191
 6151TIP3    H240089   5.925   4.174  10.334
 6152TIP3   OH240090   6.422   3.822  10.152
 6152TIP3    H140091   6.490   3.752  10.146
 6152TIP3    H240092   6.408   3.838  10.056
 6153TIP3   OH240093   6.454   3.990  10.366
 6153TIP3    H140094   6.443   3.934  10.284
 6153TIP3    H240095   6.393   4.061  10.345
 6154TIP3   OH240096   6.405   5.674   8.673
 6154TIP3    H140097   6.502   5.684   8.686
 6154TIP3    H240098   6.388   5.742   8.607
 6155TIP3   OH240099   5.762   5.133   8.627
 6155TIP3    H140100   5.858   5.143   8.647
 6155TIP3    H240101   5.766   5.076   8.549
 6156TIP3   OH240102   5.638   5.670   9.123
 6156TIP3    H140103   5.566   5.622   9.077
 6156TIP3    H240104   5.666   5.605   9.189
 6157TIP3   OH240105   5.720   5.483   9.310
 6157TIP3    H140106   5.685   5.396   9.331
 6157TIP3    H240107   5.747   5.516   9.397
 6158TIP3   OH240108   7.255   5.119  10.313
 6158TIP3    H140109   7.184   5.088  10.371
 6158TIP3    H240110   7.304   5.165  10.380
 6159TIP3   OH240111   7.274   5.289   9.828
 6159TIP3    H140112   7.207   5.333   9.883
 6159TIP3    H240113   7.220   5.254   9.754
 6160TIP3   OH240114   7.300   4.444   8.591
 6160TIP3    H140115   7.322   4.508   8.521
 6160TIP3    H240116   7.284   4.359   8.545
 6161TIP3   OH240117   7.189   4.589   9.157
 6161TIP3    H140118   7.204   4.494   9.160
 6161TIP3    H240119   7.188   4.611   9.252
 6162TIP3   OH240120   5.725   4.791   9.559
 6162TIP3    H140121   5.745   4.784   9.463
 6162TIP3    H240122   5.815   4.774   9.595
 6163TIP3   OH240123  -0.042   4.784  10.149
 6163TIP3    H140124   0.017   4.706  10.151
 6163TIP3    H240125   0.016   4.855  10.119
 6164TIP3   OH240126   7.225   4.195   8.509
 6164TIP3    H140127   7.290   4.144   8.560
 6164TIP3    H240128   7.145   4.143   8.520
 6165TIP3   OH240129   7.191   4.338   8.988
 6165TIP3    H140130   7.219   4.252   9.024
 6165TIP3    H240131   7.271   4.374   8.950
 6166TIP3   OH240132   7.216   4.344   9.539
 6166TIP3    H140133   7.310   4.357   9.521
 6166TIP3    H240134   7.217   4.395   9.622
 6167TIP3   OH240135   7.261   4.469   9.835
 6167TIP3    H140136   7.171   4.499   9.856
 6167TIP3    H240137   7.302   4.546   9.793
 6168TIP3   OH240138   5.688   4.322  10.176
 6168TIP3    H140139   5.782   4.300  10.192
 6168TIP3    H240140   5.641   4.239  10.202
 6169TIP3   OH240141   7.180   4.052   9.058
 6169TIP3    H140142   7.267   4.024   9.091
 6169TIP3    H240143   7.175   3.997   8.977
 6170TIP3   OH240144   5.808   4.151   9.460
 6170TIP3    H140145   5.854   4.068   9.486
 6170TIP3    H240146   5.864   4.220   9.499
 6171TIP3   OH240147   5.636   4.452   9.564
 6171TIP3    H140148   5.693   4.426   9.488
 6171TIP3    H240149   5.684   4.532   9.591
 6172TIP3   OH240150   5.672   4.077   8.970
 6172TIP3    H140151   5.578   4.096   8.957
 6172TIP3    H240152   5.714   4.126   8.898
 6173TIP3   OH240153   7.134   5.560   9.172
 6173TIP3    H140154   7.199   5.525   9.111
 6173TIP3    H240155   7.189   5.616   9.230
 6174TIP3   OH240156   5.668   3.942   9.800
 6174TIP3    H140157   5.601   3.923   9.869
 6174TIP3    H240158   5.622   4.010   9.746
 6175TIP3   OH240159   5.890   5.262  10.221
 6175TIP3    H140160   5.807   5.285  10.176
 6175TIP3    H240161   5.861   5.257  10.313
 6176TIP3   OH240162   6.180   5.363   9.843
 6176TIP3    H140163   6.149   5.451   9.818
 6176TIP3    H240164   6.274   5.371   9.816
 6177TIP3   OH240165   6.615   5.505  10.142
 6177TIP3    H140166   6.640   5.466  10.226
 6177TIP3    H240167   6.703   5.537  10.109
 6178TIP3   OH240168   6.842   5.631  10.068
 6178TIP3    H140169   6.918   5.575  10.042
 6178TIP3    H240170   6.881   5.677  10.145
 6179TIP3   OH240171   5.923   5.685   9.843
 6179TIP3    H140172   5.852   5.738   9.804
 6179TIP3    H240173   5.895   5.667   9.934
 6180TIP3   OH240174   6.171   5.644   9.752
 6180TIP3    H140175   6.081   5.660   9.790
 6180TIP3    H240176   6.167   5.703   9.674
 6181TIP3   OH240177   6.642   5.636   9.669
 6181TIP3    H140178   6.596   5.691   9.604
 6181TIP3    H240179   6.654   5.699   9.743
 6182TIP3   OH240180   6.872   5.516   9.771
 6182TIP3    H140181   6.786   5.543   9.735
 6182TIP3    H240182   6.917   5.601   9.764
 6183TIP3   OH240183   7.125   5.678   9.795
 6183TIP3    H140184   7.118   5.773   9.771
 6183TIP3    H240185   7.152   5.638   9.710
 6184TIP3   OH240186   5.868   5.551   9.539
 6184TIP3    H140187   5.866   5.503   9.625
 6184TIP3    H240188   5.950   5.515   9.499
 6185TIP3   OH240189   6.077   5.423   9.404
 6185TIP3    H140190   6.062   5.329   9.427
 6185TIP3    H240191   6.163   5.438   9.449
 6186TIP3   OH240192   6.335   5.471   9.491
 6186TIP3    H140193   6.353   5.379   9.465
 6186TIP3    H240194   6.342   5.466   9.588
 6187TIP3   OH240195   6.683   4.036   9.404
 6187TIP3    H140196   6.616   3.972   9.433
 6187TIP3    H240197   6.739   3.983   9.347
 6188TIP3   OH240198   7.199   3.840   9.415
 6188TIP3    H140199   7.253   3.905   9.369
 6188TIP3    H240200   7.109   3.874   9.392
 6189TIP3   OH240201   5.920   3.898   9.193
 6189TIP3    H140202   5.841   3.880   9.138
 6189TIP3    H240203   5.966   3.812   9.184
 6190TIP3   OH240204   5.792   3.875   8.761
 6190TIP3    H140205   5.846   3.938   8.709
 6190TIP3    H240206   5.740   3.933   8.819
 6191TIP3   OH240207   6.365   3.894   9.170
 6191TIP3    H140208   6.457   3.925   9.160
 6191TIP3    H240209   6.364   3.869   9.262
 6192TIP3   OH240210   6.944   3.890   9.328
 6192TIP3    H140211   6.935   3.905   9.233
 6192TIP3    H240212   6.900   3.802   9.343
 6193TIP3   OH240213   7.059   3.892   8.893
 6193TIP3    H140214   6.986   3.954   8.881
 6193TIP3    H240215   7.014   3.807   8.917
 6194TIP3   OH240216   5.789   5.470   8.864
 6194TIP3    H140217   5.721   5.470   8.794
 6194TIP3    H240218   5.792   5.565   8.880
 6195TIP3   OH240219   5.979   4.057   8.619
 6195TIP3    H140220   6.034   4.007   8.558
 6195TIP3    H240221   6.045   4.103   8.673
 6196TIP3   OH240222   6.483   4.093   8.854
 6196TIP3    H140223   6.509   4.035   8.928
 6196TIP3    H240224   6.490   4.179   8.900
 6197TIP3   OH240225   6.674   5.631   8.698
 6197TIP3    H140226   6.771   5.628   8.685
 6197TIP3    H240227   6.655   5.556   8.637
 6198TIP3   OH240228   5.907   3.954  10.138
 6198TIP3    H140229   5.869   3.873  10.177
 6198TIP3    H240230   5.999   3.946  10.171
 6199TIP3   OH240231   6.109   3.890  10.297
 6199TIP3    H140232   6.198   3.857  10.275
 6199TIP3    H240233   6.075   3.811  10.342
 6200TIP3   OH240234   5.973   5.569   8.559
 6200TIP3    H140235   5.941   5.594   8.647
 6200TIP3    H240236   6.047   5.512   8.576
 6201TIP3   OH240237   6.954   3.822  10.313
 6201TIP3    H140238   6.962   3.777  10.400
 6201TIP3    H240239   7.045   3.816  10.277
 6202TIP3   OH240240   7.261   5.422  10.191
 6202TIP3    H140241   7.191   5.408  10.124
 6202TIP3    H240242   7.253   5.520  10.199
 6203TIP3   OH240243   1.171   6.697   9.176
 6203TIP3    H140244   1.171   6.795   9.173
 6203TIP3    H240245   1.099   6.675   9.115
 6204TIP3   OH240246   1.059   6.623   9.527
 6204TIP3    H140247   1.056   6.556   9.596
 6204TIP3    H240248   1.023   6.574   9.450
 6205TIP3   OH240249   0.297   6.591   9.678
 6205TIP3    H140250   0.302   6.522   9.748
 6205TIP3    H240251   0.370   6.649   9.703
 6206TIP3   OH240252   1.426   6.917   9.355
 6206TIP3    H140253   1.383   6.847   9.404
 6206TIP3    H240254   1.430   6.989   9.421
 6207TIP3   OH240255   0.386   7.035   9.534
 6207TIP3    H140256   0.353   6.949   9.500
 6207TIP3    H240257   0.481   7.015   9.537
 6208TIP3   OH240258   0.071   6.395   9.053
 6208TIP3    H140259   0.020   6.474   9.083
 6208TIP3    H240260  -0.002   6.337   9.040
 6209TIP3   OH240261   0.119   6.609   9.291
 6209TIP3    H140262   0.146   6.532   9.342
 6209TIP3    H240263   0.192   6.623   9.230
 6210TIP3   OH240264   0.894   6.858   9.578
 6210TIP3    H140265   0.927   6.802   9.506
 6210TIP3    H240266   0.977   6.883   9.621
 6211TIP3   OH240267   1.755   6.029   9.644
 6211TIP3    H140268   1.770   6.088   9.721
 6211TIP3    H240269   1.812   6.072   9.579
 6212TIP3   OH240270   1.208   6.311   9.607
 6212TIP3    H140271   1.231   6.217   9.605
 6212TIP3    H240272   1.201   6.326   9.510
 6213TIP3   OH240273   0.525   6.119   9.326
 6213TIP3    H140274   0.535   6.203   9.277
 6213TIP3    H240275   0.484   6.062   9.257
 6214TIP3   OH240276   1.297   6.127   9.163
 6214TIP3    H140277   1.362   6.096   9.230
 6214TIP3    H240278   1.354   6.185   9.109
 6215TIP3   OH240279   0.188   6.358   9.391
 6215TIP3    H140280   0.255   6.309   9.443
 6215TIP3    H240281   0.204   6.324   9.301
 6216TIP3   OH240282   0.700   6.516   9.332
 6216TIP3    H140283   0.769   6.458   9.370
 6216TIP3    H240284   0.650   6.450   9.280
 6217TIP3   OH240285   1.797   6.169   9.873
 6217TIP3    H140286   1.736   6.245   9.861
 6217TIP3    H240287   1.805   6.161   9.968
 6218TIP3   OH240288   0.415   6.010   9.729
 6218TIP3    H140289   0.387   6.066   9.655
 6218TIP3    H240290   0.346   6.032   9.797
 6219TIP3   OH240291   1.144   6.956   9.084
 6219TIP3    H140292   1.117   6.931   8.995
 6219TIP3    H240293   1.116   7.049   9.089
 6220TIP3   OH240294   0.669   6.772   9.755
 6220TIP3    H140295   0.595   6.834   9.777
 6220TIP3    H240296   0.736   6.835   9.723
 6221TIP3   OH240297   1.476   6.063   9.364
 6221TIP3    H140298   1.458   5.985   9.417
 6221TIP3    H240299   1.546   6.106   9.416
 6222TIP3   OH240300   0.370   6.190   9.532
 6222TIP3    H140301   0.429   6.262   9.566
 6222TIP3    H240302   0.425   6.154   9.459
 6223TIP3   OH240303   0.510   6.972   9.835
 6223TIP3    H140304   0.504   7.064   9.802
 6223TIP3    H240305   0.421   6.966   9.877
 6224TIP3   OH240306   0.120   6.942   8.914
 6224TIP3    H140307   0.098   6.971   8.823
 6224TIP3    H240308   0.129   7.023   8.967
 6225TIP3   OH240309   1.481   7.106   9.595
 6225TIP3    H140310   1.384   7.113   9.601
 6225TIP3    H240311   1.508   7.196   9.569
 6226TIP3   OH240312   1.511   5.931   9.732
 6226TIP3    H140313   1.439   5.994   9.719
 6226TIP3    H240314   1.584   5.974   9.682
 6227TIP3   OH240315   0.809   5.745   9.477
 6227TIP3    H140316   0.795   5.648   9.470
 6227TIP3    H240317   0.720   5.773   9.507
 6228TIP3   OH240318   1.307   7.259   9.241
 6228TIP3    H140319   1.356   7.194   9.188
 6228TIP3    H240320   1.346   7.341   9.210
 6229TIP3   OH240321   1.428   7.070   9.101
 6229TIP3    H140322   1.397   7.003   9.039
 6229TIP3    H240323   1.429   7.022   9.186
 6230TIP3   OH240324   1.578   6.935   9.949
 6230TIP3    H140325   1.603   6.869   9.881
 6230TIP3    H240326   1.613   7.017   9.908
 6231TIP3   OH240327   1.037   6.623   8.926
 6231TIP3    H140328   0.968   6.681   8.886
 6231TIP3    H240329   1.108   6.631   8.860
 6232TIP3   OH240330   1.041   6.476   8.636
 6232TIP3    H140331   1.115   6.476   8.699
 6232TIP3    H240332   1.074   6.412   8.572
 6233TIP3   OH240333   1.779   6.565   9.756
 6233TIP3    H140334   1.711   6.635   9.759
 6233TIP3    H240335   1.827   6.588   9.674
 6234TIP3   OH240336   1.382   6.644   9.022
 6234TIP3    H140337   1.307   6.667   9.082
 6234TIP3    H240338   1.430   6.577   9.072
 6235TIP3   OH240339   1.378   6.462   9.929
 6235TIP3    H140340   1.381   6.541   9.985
 6235TIP3    H240341   1.314   6.487   9.860
 6236TIP3   OH240342   0.546   6.710   9.211
 6236TIP3    H140343   0.510   6.669   9.128
 6236TIP3    H240344   0.606   6.640   9.245
 6237TIP3   OH240345   0.679   7.045   9.477
 6237TIP3    H140346   0.677   6.992   9.398
 6237TIP3    H240347   0.755   7.011   9.526
 6238TIP3   OH240348   0.578   6.584   9.578
 6238TIP3    H140349   0.632   6.594   9.497
 6238TIP3    H240350   0.616   6.651   9.639
 6239TIP3   OH240351   1.219   7.140   9.649
 6239TIP3    H140352   1.185   7.207   9.708
 6239TIP3    H240353   1.191   7.056   9.690
 6240TIP3   OH240354   0.675   7.029  10.046
 6240TIP3    H140355   0.632   7.101  10.098
 6240TIP3    H240356   0.606   7.007   9.978
 6241TIP3   OH240357   1.271   6.560   8.787
 6241TIP3    H140358   1.325   6.581   8.867
 6241TIP3    H240359   1.311   6.616   8.717
 6242TIP3   OH240360   0.371   6.644   9.966
 6242TIP3    H140361   0.371   6.714  10.034
 6242TIP3    H240362   0.277   6.649   9.938
 6243TIP3   OH240363   1.038   7.232   9.138
 6243TIP3    H140364   1.090   7.267   9.211
 6243TIP3    H240365   0.989   7.308   9.106
 6244TIP3   OH240366   0.493   7.234  10.112
 6244TIP3    H140367   0.486   7.219  10.016
 6244TIP3    H240368   0.403   7.216  10.146
 6245TIP3   OH240369   1.642   5.736   8.776
 6245TIP3    H140370   1.547   5.747   8.800
 6245TIP3    H240371   1.664   5.822   8.736
 6246TIP3   OH240372   0.443   6.611   8.970
 6246TIP3    H140373   0.414   6.689   8.919
 6246TIP3    H240374   0.375   6.546   8.949
 6247TIP3   OH240375   1.757   7.166   8.616
 6247TIP3    H140376   1.762   7.262   8.626
 6247TIP3    H240377   1.849   7.140   8.604
 6248TIP3   OH240378   0.093   6.846   9.842
 6248TIP3    H140379   0.021   6.850   9.776
 6248TIP3    H240380   0.066   6.761   9.882
 6249TIP3   OH240381   0.044   7.147   9.522
 6249TIP3    H140382   0.131   7.113   9.544
 6249TIP3    H240383   0.027   7.206   9.596
 6250TIP3   OH240384   1.846   7.196  10.114
 6250TIP3    H140385   1.836   7.101  10.105
 6250TIP3    H240386   1.758   7.224  10.147
 6251TIP3   OH240387   0.944   7.155   9.991
 6251TIP3    H140388   0.954   7.232  10.049
 6251TIP3    H240389   0.860   7.117  10.023
 6252TIP3   OH240390   0.281   6.990   9.960
 6252TIP3    H140391   0.295   6.949  10.048
 6252TIP3    H240392   0.196   6.949   9.930
 6253TIP3   OH240393   0.548   5.834   9.551
 6253TIP3    H140394   0.458   5.822   9.514
 6253TIP3    H240395   0.534   5.916   9.601
 6254TIP3   OH240396   1.010   5.795   9.888
 6254TIP3    H140397   1.050   5.760   9.969
 6254TIP3    H240398   0.913   5.789   9.904
 6255TIP3   OH240399   1.423   6.670   8.572
 6255TIP3    H140400   1.423   6.654   8.476
 6255TIP3    H240401   1.509   6.714   8.582
 6256TIP3   OH240402   0.976   6.058   8.623
 6256TIP3    H140403   0.943   6.052   8.714
 6256TIP3    H240404   0.948   5.970   8.593
 6257TIP3   OH240405   0.557   6.331   9.676
 6257TIP3    H140406   0.485   6.329   9.742
 6257TIP3    H240407   0.548   6.422   9.640
 6258TIP3   OH240408   0.554   6.342   9.164
 6258TIP3    H140409   0.460   6.317   9.150
 6258TIP3    H240410   0.591   6.313   9.078
 6259TIP3   OH240411   1.106   6.391   9.037
 6259TIP3    H140412   1.065   6.475   9.005
 6259TIP3    H240413   1.174   6.376   8.970
 6260TIP3   OH240414   1.007   6.411  10.186
 6260TIP3    H140415   0.957   6.334  10.217
 6260TIP3    H240416   1.092   6.399  10.232
 6261TIP3   OH240417   1.208   6.340   9.327
 6261TIP3    H140418   1.180   6.398   9.254
 6261TIP3    H240419   1.218   6.257   9.277
 6262TIP3   OH240420   0.321   6.354   9.845
 6262TIP3    H140421   0.326   6.395   9.933
 6262TIP3    H240422   0.274   6.271   9.865
 6263TIP3   OH240423   0.674   6.117   8.562
 6263TIP3    H140424   0.620   6.055   8.615
 6263TIP3    H240425   0.613   6.155   8.499
 6264TIP3   OH240426   0.014   6.090   9.230
 6264TIP3    H140427   0.054   6.060   9.314
 6264TIP3    H240428   0.037   6.021   9.167
 6265TIP3   OH240429   0.115   6.149   8.777
 6265TIP3    H140430   0.168   6.205   8.716
 6265TIP3    H240431   0.043   6.208   8.801
 6266TIP3   OH240432   1.132   6.502   9.789
 6266TIP3    H140433   1.166   6.436   9.723
 6266TIP3    H240434   1.081   6.441   9.847
 6267TIP3   OH240435   0.808   6.098   9.263
 6267TIP3    H140436   0.715   6.098   9.293
 6267TIP3    H240437   0.856   6.081   9.345
 6268TIP3   OH240438   0.297   6.253   9.147
 6268TIP3    H140439   0.207   6.269   9.112
 6268TIP3    H240440   0.318   6.166   9.107
 6269TIP3   OH240441   0.652   6.260   8.914
 6269TIP3    H140442   0.748   6.269   8.930
 6269TIP3    H240443   0.630   6.324   8.845
 6270TIP3   OH240444   1.248   6.023   9.594
 6270TIP3    H140445   1.177   6.023   9.659
 6270TIP3    H240446   1.202   5.996   9.513
 6271TIP3   OH240447   0.526   6.374   8.673
 6271TIP3    H140448   0.470   6.341   8.601
 6271TIP3    H240449   0.607   6.397   8.626
 6272TIP3   OH240450   0.339   6.831  10.177
 6272TIP3    H140451   0.410   6.855  10.238
 6272TIP3    H240452   0.262   6.846  10.235
 6273TIP3   OH240453   0.936   6.373   9.454
 6273TIP3    H140454   0.996   6.320   9.400
 6273TIP3    H240455   0.922   6.318   9.532
 6274TIP3   OH240456   0.437   5.988   9.098
 6274TIP3    H140457   0.405   5.896   9.095
 6274TIP3    H240458   0.516   5.981   9.043
 6275TIP3   OH240459   0.800   6.206   9.694
 6275TIP3    H140460   0.717   6.257   9.703
 6275TIP3    H240461   0.853   6.241   9.767
 6276TIP3   OH240462   0.860   6.827   8.867
 6276TIP3    H140463   0.780   6.781   8.833
 6276TIP3    H240464   0.836   6.841   8.961
 6277TIP3   OH240465   1.578   6.749   9.745
 6277TIP3    H140466   1.635   6.797   9.683
 6277TIP3    H240467   1.494   6.751   9.695
 6278TIP3   OH240468   1.246   6.107   8.683
 6278TIP3    H140469   1.152   6.123   8.665
 6278TIP3    H240470   1.276   6.195   8.714
 6279TIP3   OH240471   0.982   6.865   9.988
 6279TIP3    H140472   0.958   6.828  10.074
 6279TIP3    H240473   0.975   6.961  10.005
 6280TIP3   OH240474   1.316   6.302   8.849
 6280TIP3    H140475   1.405   6.288   8.886
 6280TIP3    H240476   1.325   6.383   8.797
 6281TIP3   OH240477   0.372   6.769   9.444
 6281TIP3    H140478   0.439   6.760   9.374
 6281TIP3    H240479   0.377   6.683   9.490
 6282TIP3   OH240480   1.070   6.976   8.771
 6282TIP3    H140481   1.033   7.060   8.803
 6282TIP3    H240482   0.996   6.915   8.789
 6283TIP3   OH240483   0.094   6.586   9.944
 6283TIP3    H140484   0.103   6.564  10.038
 6283TIP3    H240485   0.009   6.546   9.924
 6284TIP3   OH240486   0.775   6.565  10.185
 6284TIP3    H140487   0.739   6.530  10.102
 6284TIP3    H240488   0.865   6.529  10.188
 6285TIP3   OH240489   1.234   7.093   9.981
 6285TIP3    H140490   1.143   7.118   9.961
 6285TIP3    H240491   1.235   7.125  10.075
 6286TIP3   OH240492   1.805   6.315   8.825
 6286TIP3    H140493   1.749   6.284   8.751
 6286TIP3    H240494   1.813   6.409   8.797
 6287TIP3   OH240495   1.806   6.898  10.103
 6287TIP3    H140496   1.716   6.922  10.071
 6287TIP3    H240497   1.859   6.897  10.021
 6288TIP3   OH240498   1.640   7.183   8.873
 6288TIP3    H140499   1.595   7.103   8.894
 6288TIP3    H240500   1.663   7.180   8.779
 6289TIP3   OH240501   1.355   6.679   9.576
 6289TIP3    H140502   1.261   6.658   9.559
 6289TIP3    H240503   1.399   6.606   9.529
 6290TIP3   OH240504   0.611   7.110   9.178
 6290TIP3    H140505   0.656   7.193   9.161
 6290TIP3    H240506   0.521   7.132   9.153
 6291TIP3   OH240507   0.171   6.593   8.643
 6291TIP3    H140508   0.239   6.657   8.674
 6291TIP3    H240509   0.089   6.632   8.675
 6292TIP3   OH240510   0.751   6.879   9.136
 6292TIP3    H140511   0.719   6.971   9.143
 6292TIP3    H240512   0.678   6.832   9.179
 6293TIP3   OH240513   0.812   7.273   9.753
 6293TIP3    H140514   0.835   7.367   9.744
 6293TIP3    H240515   0.855   7.253   9.838
 6294TIP3   OH240516   0.584   0.027   9.054
 6294TIP3    H140517   0.501   0.040   9.099
 6294TIP3    H240518   0.638   0.093   9.105
 6295TIP3   OH240519   1.149   6.897   9.737
 6295TIP3    H140520   1.109   6.884   9.824
 6295TIP3    H240521   1.211   6.825   9.717
 6296TIP3   OH240522   1.376   6.994   8.650
 6296TIP3    H140523   1.406   6.957   8.735
 6296TIP3    H240524   1.280   6.985   8.658
 6297TIP3   OH240525   1.425   7.347   9.986
 6297TIP3    H140526   1.353   7.302   9.939
 6297TIP3    H240527   1.441   7.425   9.929
 6298TIP3   OH240528   0.233   6.078   9.917
 6298TIP3    H140529   0.145   6.117   9.927
 6298TIP3    H240530   0.224   5.997   9.971
 6299TIP3   OH240531   1.458   6.866   8.872
 6299TIP3    H140532   1.434   6.786   8.924
 6299TIP3    H240533   1.553   6.874   8.892
 6300TIP3   OH240534   0.206   7.259   9.763
 6300TIP3    H140535   0.225   7.165   9.769
 6300TIP3    H240536   0.212   7.289   9.854
 6301TIP3   OH240537   0.672   7.068   8.738
 6301TIP3    H140538   0.697   7.013   8.813
 6301TIP3    H240539   0.681   7.159   8.773
 6302TIP3   OH240540   0.317   6.790   8.783
 6302TIP3    H140541   0.255   6.830   8.847
 6302TIP3    H240542   0.375   6.866   8.761
 6303TIP3   OH240543   1.180   6.017   8.932
 6303TIP3    H140544   1.206   6.062   8.849
 6303TIP3    H240545   1.240   6.060   8.994
 6304TIP3   OH240546   0.951   7.233   8.815
 6304TIP3    H140547   0.866   7.279   8.819
 6304TIP3    H240548   1.003   7.282   8.748
 6305TIP3   OH240549   0.904   6.190   9.012
 6305TIP3    H140550   0.982   6.249   9.014
 6305TIP3    H240551   0.878   6.179   9.105
 6306TIP3   OH240552   0.961   6.295   9.926
 6306TIP3    H140553   0.966   6.347  10.008
 6306TIP3    H240554   1.024   6.223   9.945
 6307TIP3   OH240555   0.989   5.896   9.099
 6307TIP3    H140556   0.957   5.961   9.165
 6307TIP3    H240557   1.059   5.951   9.055
 6308TIP3   OH240558   0.700   0.001   8.809
 6308TIP3    H140559   0.699   0.087   8.766
 6308TIP3    H240560   0.663   0.023   8.897
 6309TIP3   OH240561   0.557   6.006   8.777
 6309TIP3    H140562   0.550   6.098   8.810
 6309TIP3    H240563   0.649   5.984   8.803
 6310TIP3   OH240564   1.440   6.459   9.415
 6310TIP3    H140565   1.357   6.414   9.390
 6310TIP3    H240566   1.488   6.391   9.467
 6311TIP3   OH240567   0.381   7.047   8.679
 6311TIP3    H140568   0.443   7.116   8.705
 6311TIP3    H240569   0.431   7.007   8.606
 6312TIP3   OH240570   0.225   6.319   8.591
 6312TIP3    H140571   0.219   6.414   8.610
 6312TIP3    H240572   0.136   6.298   8.565
 6313TIP3   OH240573   0.293   5.798   9.463
 6313TIP3    H140574   0.276   5.798   9.366
 6313TIP3    H240575   0.253   5.712   9.489
 6314TIP3   OH240576   0.201   7.186   9.089
 6314TIP3    H140577   0.112   7.225   9.079
 6314TIP3    H240578   0.239   7.235   9.015
 6315TIP3   OH240579   0.571   7.273  10.363
 6315TIP3    H140580   0.656   7.301  10.405
 6315TIP3    H240581   0.588   7.304  10.273
 6316TIP3   OH240582   1.023   7.322   8.570
 6316TIP3    H140583   0.944   7.264   8.561
 6316TIP3    H240584   1.077   7.269   8.510
 6317TIP3   OH240585   1.239   7.165  10.231
 6317TIP3    H140586   1.192   7.091  10.276
 6317TIP3    H240587   1.305   7.191  10.296
 6318TIP3   OH240588   1.450   7.273   8.527
 6318TIP3    H140589   1.473   7.193   8.578
 6318TIP3    H240590   1.531   7.288   8.475
 6319TIP3   OH240591   0.117   6.831  10.302
 6319TIP3    H140592   0.118   6.737  10.277
 6319TIP3    H240593   0.031   6.862  10.265
 6320TIP3   OH240594   0.545   6.871   8.525
 6320TIP3    H140595   0.552   6.788   8.571
 6320TIP3    H240596   0.600   6.850   8.447
 6321TIP3   OH240597   0.788   6.830  10.239
 6321TIP3    H140598   0.736   6.862  10.163
 6321TIP3    H240599   0.776   6.733  10.238
 6322TIP3   OH240600   1.336   6.820   9.983
 6322TIP3    H140601   1.423   6.869   9.977
 6322TIP3    H240602   1.281   6.900   9.992
 6323TIP3   OH240603   0.185   6.550  10.242
 6323TIP3    H140604   0.239   6.469  10.234
 6323TIP3    H240605   0.177   6.556  10.337
 6324TIP3   OH240606   0.659   6.671   8.752
 6324TIP3    H140607   0.607   6.617   8.814
 6324TIP3    H240608   0.689   6.602   8.688
 6325TIP3   OH240609   0.582   6.450   9.980
 6325TIP3    H140610   0.522   6.522  10.009
 6325TIP3    H240611   0.620   6.487   9.900
 6326TIP3   OH240612   0.764   6.494   8.571
 6326TIP3    H140613   0.755   6.472   8.477
 6326TIP3    H240614   0.862   6.499   8.583
 6327TIP3   OH240615   1.091   6.699  10.307
 6327TIP3    H140616   1.187   6.707  10.306
 6327TIP3    H240617   1.073   6.629  10.372
 6328TIP3   OH240618   1.683   6.736  17.022
 6328TIP3    H140619   1.673   6.687  16.939
 6328TIP3    H240620   1.705   6.826  16.995
 6329TIP3   OH240621   0.620   6.187  10.086
 6329TIP3    H140622   0.638   6.116  10.022
 6329TIP3    H240623   0.617   6.268  10.033
 6330TIP3   OH240624   0.664   6.024   9.840
 6330TIP3    H140625   0.715   6.071   9.770
 6330TIP3    H240626   0.574   6.017   9.801
 6331TIP3   OH240627   0.825   6.578   9.870
 6331TIP3    H140628   0.891   6.555   9.804
 6331TIP3    H240629   0.779   6.655   9.832
 6332TIP3   OH240630   1.388   6.628  10.176
 6332TIP3    H140631   1.373   6.705  10.119
 6332TIP3    H240632   1.486   6.623  10.163
 6333TIP3   OH240633   0.466   6.314  10.275
 6333TIP3    H140634   0.391   6.252  10.261
 6333TIP3    H240635   0.534   6.275  10.216
 6334TIP3   OH240636   0.745   5.770   9.882
 6334TIP3    H140637   0.726   5.866   9.873
 6334TIP3    H240638   0.670   5.733   9.832
 6335TIP3   OH240639   0.286   6.104  10.255
 6335TIP3    H140640   0.304   6.031  10.194
 6335TIP3    H240641   0.273   6.059  10.341
 6336TIP3   OH240642   0.765   5.707  10.149
 6336TIP3    H140643   0.832   5.637  10.148
 6336TIP3    H240644   0.753   5.722  10.054
 6337TIP3   OH240645   0.802   5.870  10.358
 6337TIP3    H140646   0.783   5.819  10.275
 6337TIP3    H240647   0.742   5.947  10.353
 6338TIP3   OH240648   0.108   7.013   8.631
 6338TIP3    H140649   0.203   7.029   8.648
 6338TIP3    H240650   0.109   6.965   8.549
 6339TIP3   OH240651   0.067   7.366   9.304
 6339TIP3    H140652   0.025   7.281   9.327
 6339TIP3    H240653   0.083   7.399   9.393
 6340TIP3   OH240654   1.618   6.978  10.372
 6340TIP3    H140655   1.527   6.979  10.405
 6340TIP3    H240656   1.657   7.061  10.408
 6341TIP3   OH240657   1.753   6.809   8.906
 6341TIP3    H140658   1.835   6.856   8.929
 6341TIP3    H240659   1.749   6.742   8.977
 6342TIP3   OH240660   1.787   6.622   9.097
 6342TIP3    H140661   1.712   6.571   9.135
 6342TIP3    H240662   1.846   6.635   9.174
 6343TIP3   OH240663   1.763   6.891   9.598
 6343TIP3    H140664   1.843   6.854   9.558
 6343TIP3    H240665   1.776   6.986   9.580
 6344TIP3   OH240666   1.615   7.184   9.826
 6344TIP3    H140667   1.548   7.219   9.885
 6344TIP3    H240668   1.562   7.142   9.754
 6345TIP3   OH240669   1.816   6.603   8.733
 6345TIP3    H140670   1.757   6.640   8.666
 6345TIP3    H240671   1.809   6.673   8.802
 6346TIP3   OH240672   1.614   6.330   8.597
 6346TIP3    H140673   1.661   6.388   8.535
 6346TIP3    H240674   1.633   6.245   8.552
 6347TIP3   OH240675   1.569   6.469   9.155
 6347TIP3    H140676   1.554   6.373   9.149
 6347TIP3    H240677   1.537   6.490   9.244
 6348TIP3   OH240678   0.067   6.676   9.558
 6348TIP3    H140679   0.087   6.672   9.461
 6348TIP3    H240680   0.156   6.662   9.596
 6349TIP3   OH240681   1.652   6.663  10.122
 6349TIP3    H140682   1.716   6.591  10.134
 6349TIP3    H240683   1.711   6.742  10.125
 6350TIP3   OH240684   1.798   6.451  10.184
 6350TIP3    H140685   1.714   6.411  10.164
 6350TIP3    H240686   1.861   6.377  10.181
 6351TIP3   OH240687   1.580   6.068   8.497
 6351TIP3    H140688   1.637   6.026   8.565
 6351TIP3    H240689   1.490   6.036   8.518
 6352TIP3   OH240690   1.536   6.227   9.002
 6352TIP3    H140691   1.566   6.134   9.012
 6352TIP3    H240692   1.613   6.267   8.961
 6353TIP3   OH240693   1.600   6.282   9.543
 6353TIP3    H140694   1.696   6.305   9.542
 6353TIP3    H240695   1.581   6.295   9.637
 6354TIP3   OH240696   1.607   6.354   9.821
 6354TIP3    H140697   1.521   6.383   9.857
 6354TIP3    H240698   1.649   6.441   9.799
 6355TIP3   OH240699   0.055   6.198  10.171
 6355TIP3    H140700   0.143   6.175  10.206
 6355TIP3    H240701  -0.005   6.129  10.207
 6356TIP3   OH240702   1.603   5.955   9.004
 6356TIP3    H140703   1.624   5.912   9.090
 6356TIP3    H240704   1.542   5.891   8.960
 6357TIP3   OH240705   0.146   6.031   9.464
 6357TIP3    H140706   0.200   5.952   9.486
 6357TIP3    H240707   0.202   6.102   9.500
 6358TIP3   OH240708   0.052   6.388   9.605
 6358TIP3    H140709   0.060   6.353   9.514
 6358TIP3    H240710   0.029   6.479   9.581
 6359TIP3   OH240711   1.786   5.974  10.186
 6359TIP3    H140712   1.691   5.988  10.186
 6359TIP3    H240713   1.793   5.912  10.112
 6360TIP3   OH240714   1.784   5.962   8.661
 6360TIP3    H140715   1.827   5.891   8.611
 6360TIP3    H240716   1.857   6.027   8.663
 6361TIP3   OH240717   7.399   5.963   8.946
 6361TIP3    H140718   7.304   5.982   8.952
 6361TIP3    H240719   7.428   6.027   8.878
 6362TIP3   OH240720   7.370   5.824   9.813
 6362TIP3    H140721   7.296   5.804   9.871
 6362TIP3    H240722   7.319   5.881   9.752
 6363TIP3   OH240723   0.234   7.155  10.217
 6363TIP3    H140724   0.148   7.168  10.176
 6363TIP3    H240725   0.209   7.140  10.309
 6364TIP3   OH240726   0.531   7.250   9.851
 6364TIP3    H140727   0.483   7.324   9.813
 6364TIP3    H240728   0.618   7.252   9.808
 6365TIP3   OH240729   1.685   5.780   9.977
 6365TIP3    H140730   1.603   5.807   9.932
 6365TIP3    H240731   1.705   5.698   9.926
 6366TIP3   OH240732   0.418   7.294   9.383
 6366TIP3    H140733   0.399   7.208   9.425
 6366TIP3    H240734   0.493   7.320   9.443
 6367TIP3   OH240735   0.635   7.300   9.512
 6367TIP3    H140736   0.697   7.239   9.469
 6367TIP3    H240737   0.681   7.340   9.587
 6368TIP3   OH240738   1.027   5.922   9.405
 6368TIP3    H140739   0.959   5.858   9.434
 6368TIP3    H240740   1.082   5.868   9.347
 6369TIP3   OH240741   1.540   5.726   9.412
 6369TIP3    H140742   1.601   5.785   9.361
 6369TIP3    H240743   1.452   5.762   9.389
 6370TIP3   OH240744   1.706   5.852   9.240
 6370TIP3    H140745   1.774   5.794   9.199
 6370TIP3    H240746   1.758   5.935   9.250
 6371TIP3   OH240747   0.262   5.782   9.192
 6371TIP3    H140748   0.186   5.764   9.133
 6371TIP3    H240749   0.312   5.699   9.181
 6372TIP3   OH240750   0.186   5.773   8.781
 6372TIP3    H140751   0.199   5.827   8.702
 6372TIP3    H240752   0.100   5.804   8.816
 6373TIP3   OH240753   0.710   5.777   9.169
 6373TIP3    H140754   0.800   5.813   9.161
 6373TIP3    H240755   0.708   5.755   9.262
 6374TIP3   OH240756   1.282   5.780   9.332
 6374TIP3    H140757   1.277   5.791   9.236
 6374TIP3    H240758   1.244   5.689   9.344
 6375TIP3   OH240759   1.409   5.781   8.896
 6375TIP3    H140760   1.334   5.841   8.882
 6375TIP3    H240761   1.365   5.696   8.920
 6376TIP3   OH240762   0.130   0.000   8.905
 6376TIP3    H140763   0.081  -0.009   8.819
 6376TIP3    H240764   0.147   0.093   8.903
 6377TIP3   OH240765   0.323   5.954   8.610
 6377TIP3    H140766   0.375   5.889   8.562
 6377TIP3    H240767   0.385   5.985   8.676
 6378TIP3   OH240768   0.825   5.978   8.854
 6378TIP3    H140769   0.853   5.921   8.928
 6378TIP3    H240770   0.833   6.065   8.900
 6379TIP3   OH240771   0.249   5.843  10.135
 6379TIP3    H140772   0.212   5.761  10.171
 6379TIP3    H240773   0.339   5.835  10.174
 6380TIP3   OH240774   0.451   5.773  10.299
 6380TIP3    H140775   0.541   5.742  10.278
 6380TIP3    H240776   0.417   5.693  10.342
 6381TIP3   OH240777   1.602   7.304  10.195
 6381TIP3    H140778   1.534   7.295  10.125
 6381TIP3    H240779   1.615   7.401  10.196
 6382TIP3   OH240780   3.057   6.697   9.176
 6382TIP3    H140781   3.056   6.795   9.173
 6382TIP3    H240782   2.985   6.674   9.115
 6383TIP3   OH240783   2.943   6.623   9.526
 6383TIP3    H140784   2.942   6.559   9.598
 6383TIP3    H240785   2.908   6.572   9.451
 6384TIP3   OH240786   2.178   6.591   9.681
 6384TIP3    H140787   2.187   6.522   9.750
 6384TIP3    H240788   2.254   6.648   9.703
 6385TIP3   OH240789   3.312   6.917   9.355
 6385TIP3    H140790   3.269   6.846   9.404
 6385TIP3    H240791   3.315   6.989   9.421
 6386TIP3   OH240792   2.276   7.036   9.533
 6386TIP3    H140793   2.242   6.950   9.501
 6386TIP3    H240794   2.370   7.015   9.538
 6387TIP3   OH240795   1.935   6.391   9.080
 6387TIP3    H140796   1.892   6.479   9.074
 6387TIP3    H240797   1.879   6.338   9.022
 6388TIP3   OH240798   2.007   6.615   9.296
 6388TIP3    H140799   2.034   6.532   9.340
 6388TIP3    H240800   2.076   6.625   9.228
 6389TIP3   OH240801   2.780   6.861   9.575
 6389TIP3    H140802   2.814   6.801   9.507
 6389TIP3    H240803   2.862   6.879   9.624
 6390TIP3   OH240804   3.641   6.030   9.644
 6390TIP3    H140805   3.658   6.088   9.721
 6390TIP3    H240806   3.698   6.072   9.579
 6391TIP3   OH240807   3.097   6.310   9.604
 6391TIP3    H140808   3.115   6.215   9.606
 6391TIP3    H240809   3.087   6.324   9.508
 6392TIP3   OH240810   2.409   6.120   9.326
 6392TIP3    H140811   2.420   6.203   9.276
 6392TIP3    H240812   2.369   6.062   9.257
 6393TIP3   OH240813   3.183   6.127   9.163
 6393TIP3    H140814   3.248   6.096   9.230
 6393TIP3    H240815   3.239   6.185   9.109
 6394TIP3   OH240816   2.071   6.361   9.399
 6394TIP3    H140817   2.138   6.306   9.445
 6394TIP3    H240818   2.082   6.329   9.308
 6395TIP3   OH240819   2.587   6.516   9.332
 6395TIP3    H140820   2.654   6.458   9.371
 6395TIP3    H240821   2.536   6.451   9.280
 6396TIP3   OH240822   3.683   6.169   9.872
 6396TIP3    H140823   3.625   6.247   9.861
 6396TIP3    H240824   3.689   6.162   9.968
 6397TIP3   OH240825   2.300   6.010   9.730
 6397TIP3    H140826   2.272   6.067   9.655
 6397TIP3    H240827   2.232   6.033   9.797
 6398TIP3   OH240828   3.030   6.957   9.084
 6398TIP3    H140829   3.002   6.931   8.994
 6398TIP3    H240830   3.001   7.050   9.088
 6399TIP3   OH240831   2.551   6.772   9.753
 6399TIP3    H140832   2.481   6.837   9.777
 6399TIP3    H240833   2.622   6.832   9.724
 6400TIP3   OH240834   3.364   6.062   9.362
 6400TIP3    H140835   3.342   5.986   9.416
 6400TIP3    H240836   3.432   6.106   9.416
 6401TIP3   OH240837   2.257   6.195   9.534
 6401TIP3    H140838   2.320   6.264   9.565
 6401TIP3    H240839   2.308   6.154   9.460
 6402TIP3   OH240840   2.397   6.972   9.838
 6402TIP3    H140841   2.392   7.063   9.802
 6402TIP3    H240842   2.307   6.967   9.878
 6403TIP3   OH240843   2.002   6.941   8.915
 6403TIP3    H140844   1.981   6.972   8.825
 6403TIP3    H240845   2.013   7.023   8.967
 6404TIP3   OH240846   3.366   7.105   9.595
 6404TIP3    H140847   3.268   7.110   9.603
 6404TIP3    H240848   3.392   7.195   9.569
 6405TIP3   OH240849   3.396   5.931   9.728
 6405TIP3    H140850   3.325   5.995   9.721
 6405TIP3    H240851   3.469   5.974   9.679
 6406TIP3   OH240852   2.693   5.743   9.476
 6406TIP3    H140853   2.679   5.647   9.469
 6406TIP3    H240854   2.606   5.774   9.507
 6407TIP3   OH240855   3.192   7.260   9.242
 6407TIP3    H140856   3.242   7.195   9.188
 6407TIP3    H240857   3.232   7.341   9.210
 6408TIP3   OH240858   3.314   7.070   9.101
 6408TIP3    H140859   3.282   7.003   9.039
 6408TIP3    H240860   3.315   7.022   9.186
 6409TIP3   OH240861   3.473   6.936   9.951
 6409TIP3    H140862   3.487   6.868   9.881
 6409TIP3    H240863   3.499   7.018   9.906
 6410TIP3   OH240864   2.922   6.623   8.925
 6410TIP3    H140865   2.854   6.681   8.886
 6410TIP3    H240866   2.994   6.631   8.860
 6411TIP3   OH240867   2.927   6.476   8.636
 6411TIP3    H140868   3.001   6.476   8.699
 6411TIP3    H240869   2.960   6.412   8.572
 6412TIP3   OH240870   3.663   6.565   9.755
 6412TIP3    H140871   3.597   6.636   9.759
 6412TIP3    H240872   3.712   6.589   9.674
 6413TIP3   OH240873   3.268   6.644   9.021
 6413TIP3    H140874   3.193   6.667   9.082
 6413TIP3    H240875   3.316   6.577   9.072
 6414TIP3   OH240876   3.261   6.460   9.930
 6414TIP3    H140877   3.263   6.541   9.984
 6414TIP3    H240878   3.198   6.490   9.861
 6415TIP3   OH240879   2.429   6.709   9.211
 6415TIP3    H140880   2.397   6.670   9.126
 6415TIP3    H240881   2.491   6.640   9.244
 6416TIP3   OH240882   2.563   7.045   9.478
 6416TIP3    H140883   2.563   6.993   9.398
 6416TIP3    H240884   2.640   7.012   9.526
 6417TIP3   OH240885   2.462   6.583   9.577
 6417TIP3    H140886   2.517   6.593   9.497
 6417TIP3    H240887   2.502   6.650   9.638
 6418TIP3   OH240888   3.104   7.139   9.647
 6418TIP3    H140889   3.071   7.204   9.709
 6418TIP3    H240890   3.077   7.055   9.690
 6419TIP3   OH240891   2.558   7.030  10.048
 6419TIP3    H140892   2.513   7.103  10.095
 6419TIP3    H240893   2.492   7.006   9.978
 6420TIP3   OH240894   3.157   6.560   8.787
 6420TIP3    H140895   3.210   6.581   8.867
 6420TIP3    H240896   3.197   6.616   8.717
 6421TIP3   OH240897   2.251   6.641   9.965
 6421TIP3    H140898   2.257   6.709  10.035
 6421TIP3    H240899   2.158   6.652   9.939
 6422TIP3   OH240900   2.923   7.232   9.138
 6422TIP3    H140901   2.975   7.266   9.210
 6422TIP3    H240902   2.874   7.309   9.106
 6423TIP3   OH240903   2.379   7.231  10.117
 6423TIP3    H140904   2.376   7.218  10.021
 6423TIP3    H240905   2.286   7.218  10.144
 6424TIP3   OH240906   3.528   5.736   8.776
 6424TIP3    H140907   3.433   5.747   8.801
 6424TIP3    H240908   3.550   5.821   8.736
 6425TIP3   OH240909   2.325   6.611   8.973
 6425TIP3    H140910   2.298   6.689   8.919
 6425TIP3    H240911   2.261   6.544   8.948
 6426TIP3   OH240912   3.642   7.166   8.616
 6426TIP3    H140913   3.647   7.262   8.626
 6426TIP3    H240914   3.735   7.140   8.605
 6427TIP3   OH240915   1.936   6.854   9.861
 6427TIP3    H140916   1.891   6.845   9.776
 6427TIP3    H240917   1.943   6.760   9.884
 6428TIP3   OH240918   1.916   7.133   9.535
 6428TIP3    H140919   2.011   7.118   9.537
 6428TIP3    H240920   1.905   7.208   9.595
 6429TIP3   OH240921   3.733   7.195  10.112
 6429TIP3    H140922   3.722   7.100  10.106
 6429TIP3    H240923   3.646   7.225  10.146
 6430TIP3   OH240924   2.829   7.158   9.992
 6430TIP3    H140925   2.838   7.235  10.049
 6430TIP3    H240926   2.745   7.115  10.019
 6431TIP3   OH240927   2.164   6.987   9.960
 6431TIP3    H140928   2.186   6.948  10.047
 6431TIP3    H240929   2.079   6.945   9.935
 6432TIP3   OH240930   2.432   5.833   9.551
 6432TIP3    H140931   2.342   5.820   9.515
 6432TIP3    H240932   2.419   5.916   9.600
 6433TIP3   OH240933   2.897   5.800   9.889
 6433TIP3    H140934   2.934   5.756   9.968
 6433TIP3    H240935   2.799   5.789   9.904
 6434TIP3   OH240936   3.222   6.184   9.975
 6434TIP3    H140937   3.166   6.164  10.053
 6434TIP3    H240938   3.210   6.278   9.955
 6435TIP3   OH240939   3.308   6.670   8.572
 6435TIP3    H140940   3.309   6.654   8.476
 6435TIP3    H240941   3.395   6.714   8.582
 6436TIP3   OH240942   2.861   6.058   8.623
 6436TIP3    H140943   2.829   6.052   8.714
 6436TIP3    H240944   2.833   5.970   8.593
 6437TIP3   OH240945   2.443   6.331   9.678
 6437TIP3    H140946   2.368   6.330   9.741
 6437TIP3    H240947   2.438   6.421   9.640
 6438TIP3   OH240948   2.438   6.341   9.164
 6438TIP3    H140949   2.344   6.317   9.150
 6438TIP3    H240950   2.476   6.313   9.078
 6439TIP3   OH240951   2.991   6.391   9.037
 6439TIP3    H140952   2.951   6.475   9.005
 6439TIP3    H240953   3.060   6.376   8.970
 6440TIP3   OH240954   2.897   6.414  10.184
 6440TIP3    H140955   2.844   6.337  10.215
 6440TIP3    H240956   2.981   6.401  10.229
 6441TIP3   OH240957   3.094   6.342   9.325
 6441TIP3    H140958   3.065   6.398   9.252
 6441TIP3    H240959   3.103   6.257   9.278
 6442TIP3   OH240960   2.204   6.355   9.845
 6442TIP3    H140961   2.214   6.395   9.933
 6442TIP3    H240962   2.159   6.271   9.866
 6443TIP3   OH240963   2.560   6.117   8.563
 6443TIP3    H140964   2.504   6.055   8.615
 6443TIP3    H240965   2.500   6.156   8.500
 6444TIP3   OH240966   1.870   6.066   9.245
 6444TIP3    H140967   1.939   6.062   9.314
 6444TIP3    H240968   1.915   6.029   9.167
 6445TIP3   OH240969   2.000   6.139   8.780
 6445TIP3    H140970   2.049   6.197   8.719
 6445TIP3    H240971   1.931   6.201   8.811
 6446TIP3   OH240972   3.014   6.500   9.780
 6446TIP3    H140973   3.052   6.431   9.722
 6446TIP3    H240974   2.966   6.447   9.847
 6447TIP3   OH240975   2.694   6.098   9.265
 6447TIP3    H140976   2.600   6.098   9.293
 6447TIP3    H240977   2.742   6.080   9.347
 6448TIP3   OH240978   2.174   6.252   9.151
 6448TIP3    H140979   2.086   6.268   9.111
 6448TIP3    H240980   2.203   6.169   9.110
 6449TIP3   OH240981   2.538   6.259   8.913
 6449TIP3    H140982   2.634   6.269   8.930
 6449TIP3    H240983   2.516   6.324   8.845
 6450TIP3   OH240984   3.135   6.021   9.588
 6450TIP3    H140985   3.066   6.026   9.658
 6450TIP3    H240986   3.084   5.995   9.510
 6451TIP3   OH240987   2.409   6.375   8.673
 6451TIP3    H140988   2.353   6.340   8.601
 6451TIP3    H240989   2.491   6.397   8.627
 6452TIP3   OH240990   2.221   6.833  10.177
 6452TIP3    H140991   2.295   6.856  10.234
 6452TIP3    H240992   2.145   6.843  10.239
 6453TIP3   OH240993   2.822   6.373   9.453
 6453TIP3    H140994   2.882   6.320   9.400
 6453TIP3    H240995   2.807   6.318   9.531
 6454TIP3   OH240996   2.323   5.987   9.099
 6454TIP3    H140997   2.292   5.895   9.096
 6454TIP3    H240998   2.401   5.981   9.042
 6455TIP3   OH240999   2.686   6.206   9.695
 6455TIP3    H141000   2.603   6.258   9.703
 6455TIP3    H241001   2.741   6.241   9.767
 6456TIP3   OH241002   2.746   6.826   8.867
 6456TIP3    H141003   2.665   6.781   8.833
 6456TIP3    H241004   2.722   6.841   8.961
 6457TIP3   OH241005   3.465   6.747   9.746
 6457TIP3    H141006   3.520   6.798   9.683
 6457TIP3    H241007   3.378   6.752   9.700
 6458TIP3   OH241008   3.132   6.107   8.683
 6458TIP3    H141009   3.037   6.123   8.665
 6458TIP3    H241010   3.162   6.195   8.714
 6459TIP3   OH241011   2.895   6.858   9.987
 6459TIP3    H141012   2.864   6.812  10.067
 6459TIP3    H241013   2.868   6.949  10.000
 6460TIP3   OH241014   3.202   6.302   8.849
 6460TIP3    H141015   3.291   6.288   8.886
 6460TIP3    H241016   3.211   6.383   8.797
 6461TIP3   OH241017   2.256   6.768   9.445
 6461TIP3    H141018   2.324   6.761   9.375
 6461TIP3    H241019   2.262   6.682   9.490
 6462TIP3   OH241020   2.956   6.976   8.771
 6462TIP3    H141021   2.919   7.060   8.803
 6462TIP3    H241022   2.881   6.915   8.789
 6463TIP3   OH241023   1.953   6.612   9.974
 6463TIP3    H141024   1.976   6.563  10.056
 6463TIP3    H241025   1.895   6.549   9.926
 6464TIP3   OH241026   2.657   6.561  10.189
 6464TIP3    H141027   2.626   6.534  10.101
 6464TIP3    H241028   2.750   6.534  10.187
 6465TIP3   OH241029   3.123   7.104   9.977
 6465TIP3    H141030   3.029   7.112   9.958
 6465TIP3    H241031   3.121   7.124  10.073
 6466TIP3   OH241032   3.691   6.314   8.824
 6466TIP3    H141033   3.635   6.284   8.751
 6466TIP3    H241034   3.699   6.408   8.797
 6467TIP3   OH241035   3.692   6.899  10.104
 6467TIP3    H141036   3.603   6.923  10.068
 6467TIP3    H241037   3.746   6.897  10.023
 6468TIP3   OH241038   3.526   7.183   8.873
 6468TIP3    H141039   3.481   7.103   8.894
 6468TIP3    H241040   3.548   7.180   8.779
 6469TIP3   OH241041   3.241   6.680   9.573
 6469TIP3    H141042   3.147   6.658   9.561
 6469TIP3    H241043   3.285   6.604   9.529
 6470TIP3   OH241044   2.496   7.110   9.178
 6470TIP3    H141045   2.541   7.193   9.160
 6470TIP3    H241046   2.406   7.132   9.152
 6471TIP3   OH241047   2.066   6.599   8.635
 6471TIP3    H141048   2.128   6.661   8.678
 6471TIP3    H241049   1.979   6.626   8.670
 6472TIP3   OH241050   2.637   6.879   9.136
 6472TIP3    H141051   2.605   6.971   9.143
 6472TIP3    H241052   2.564   6.832   9.180
 6473TIP3   OH241053   2.698   7.275   9.751
 6473TIP3    H141054   2.721   7.369   9.745
 6473TIP3    H241055   2.741   7.254   9.836
 6474TIP3   OH241056   2.470   0.030   9.054
 6474TIP3    H141057   2.387   0.036   9.101
 6474TIP3    H241058   2.525   0.093   9.108
 6475TIP3   OH241059   3.033   6.897   9.737
 6475TIP3    H141060   2.998   6.875   9.827
 6475TIP3    H241061   3.095   6.825   9.720
 6476TIP3   OH241062   3.262   6.994   8.650
 6476TIP3    H141063   3.292   6.957   8.735
 6476TIP3    H241064   3.166   6.985   8.658
 6477TIP3   OH241065   3.306   7.353   9.990
 6477TIP3    H141066   3.242   7.300   9.940
 6477TIP3    H241067   3.327   7.424   9.926
 6478TIP3   OH241068   2.120   6.082   9.923
 6478TIP3    H141069   2.029   6.116   9.921
 6478TIP3    H241070   2.112   5.998   9.970
 6479TIP3   OH241071   3.344   6.866   8.872
 6479TIP3    H141072   3.319   6.786   8.924
 6479TIP3    H241073   3.439   6.874   8.892
 6480TIP3   OH241074   2.081   7.256   9.768
 6480TIP3    H141075   2.113   7.165   9.771
 6480TIP3    H241076   2.101   7.291   9.856
 6481TIP3   OH241077   2.557   7.068   8.738
 6481TIP3    H141078   2.582   7.012   8.813
 6481TIP3    H241079   2.568   7.158   8.772
 6482TIP3   OH241080   2.205   6.791   8.784
 6482TIP3    H141081   2.140   6.831   8.845
 6482TIP3    H241082   2.262   6.867   8.762
 6483TIP3   OH241083   2.990   6.058   9.821
 6483TIP3    H141084   3.064   6.064   9.883
 6483TIP3    H241085   2.954   5.970   9.841
 6484TIP3   OH241086   3.066   6.017   8.932
 6484TIP3    H141087   3.091   6.062   8.849
 6484TIP3    H241088   3.125   6.060   8.995
 6485TIP3   OH241089   2.836   7.232   8.817
 6485TIP3    H141090   2.752   7.280   8.818
 6485TIP3    H241091   2.888   7.281   8.749
 6486TIP3   OH241092   2.789   6.190   9.012
 6486TIP3    H141093   2.868   6.249   9.014
 6486TIP3    H241094   2.763   6.179   9.105
 6487TIP3   OH241095   2.846   6.294   9.928
 6487TIP3    H141096   2.853   6.349  10.009
 6487TIP3    H241097   2.911   6.223   9.939
 6488TIP3   OH241098   2.875   5.896   9.099
 6488TIP3    H141099   2.843   5.961   9.163
 6488TIP3    H241100   2.945   5.951   9.055
 6489TIP3   OH241101   2.582   0.001   8.808
 6489TIP3    H141102   2.589   0.085   8.764
 6489TIP3    H241103   2.546   0.025   8.896
 6490TIP3   OH241104   2.441   6.006   8.777
 6490TIP3    H141105   2.435   6.098   8.809
 6490TIP3    H241106   2.533   5.984   8.802
 6491TIP3   OH241107   3.462   6.078  10.020
 6491TIP3    H141108   3.371   6.114  10.004
 6491TIP3    H241109   3.494   6.080   9.928
 6492TIP3   OH241110   3.325   6.459   9.416
 6492TIP3    H141111   3.243   6.414   9.389
 6492TIP3    H241112   3.373   6.391   9.468
 6493TIP3   OH241113   2.267   7.046   8.679
 6493TIP3    H141114   2.329   7.114   8.705
 6493TIP3    H241115   2.316   7.007   8.605
 6494TIP3   OH241116   2.104   6.319   8.596
 6494TIP3    H141117   2.102   6.416   8.607
 6494TIP3    H241118   2.017   6.300   8.559
 6495TIP3   OH241119   2.180   5.797   9.465
 6495TIP3    H141120   2.161   5.799   9.369
 6495TIP3    H241121   2.139   5.712   9.490
 6496TIP3   OH241122   2.086   7.186   9.088
 6496TIP3    H141123   1.996   7.225   9.078
 6496TIP3    H241124   2.122   7.233   9.012
 6497TIP3   OH241125   2.476   7.296  10.380
 6497TIP3    H141126   2.568   7.297  10.405
 6497TIP3    H241127   2.479   7.310  10.283
 6498TIP3   OH241128   2.906   7.317   8.576
 6498TIP3    H141129   2.828   7.261   8.559
 6498TIP3    H241130   2.962   7.272   8.510
 6499TIP3   OH241131   3.113   7.168  10.234
 6499TIP3    H141132   3.083   7.086  10.274
 6499TIP3    H241133   3.183   7.193  10.297
 6500TIP3   OH241134   3.337   7.274   8.526
 6500TIP3    H141135   3.358   7.194   8.578
 6500TIP3    H241136   3.418   7.289   8.474
 6501TIP3   OH241137   1.986   6.830  10.307
 6501TIP3    H141138   2.004   6.741  10.272
 6501TIP3    H241139   1.914   6.861  10.248
 6502TIP3   OH241140   2.432   6.872   8.525
 6502TIP3    H141141   2.438   6.788   8.571
 6502TIP3    H241142   2.486   6.851   8.446
 6503TIP3   OH241143   2.662   6.829  10.246
 6503TIP3    H141144   2.625   6.861  10.162
 6503TIP3    H241145   2.666   6.731  10.235
 6504TIP3   OH241146   3.230   6.816   9.986
 6504TIP3    H141147   3.308   6.874   9.975
 6504TIP3    H241148   3.158   6.881   9.988
 6505TIP3   OH241149   2.069   6.553  10.246
 6505TIP3    H141150   2.122   6.473  10.232
 6505TIP3    H241151   2.061   6.556  10.342
 6506TIP3   OH241152   2.544   6.671   8.751
 6506TIP3    H141153   2.493   6.617   8.814
 6506TIP3    H241154   2.575   6.602   8.688
 6507TIP3   OH241155   2.469   6.447   9.981
 6507TIP3    H141156   2.410   6.519  10.008
 6507TIP3    H241157   2.510   6.485   9.901
 6508TIP3   OH241158   2.652   6.493   8.571
 6508TIP3    H141159   2.642   6.472   8.477
 6508TIP3    H241160   2.749   6.499   8.582
 6509TIP3   OH241161   2.979   6.702  10.310
 6509TIP3    H141162   3.075   6.707  10.309
 6509TIP3    H241163   2.959   6.633  10.374
 6510TIP3   OH241164   3.569   6.737  17.022
 6510TIP3    H141165   3.559   6.687  16.939
 6510TIP3    H241166   3.591   6.826  16.995
 6511TIP3   OH241167   2.511   6.188  10.085
 6511TIP3    H141168   2.521   6.115  10.021
 6511TIP3    H241169   2.504   6.269  10.030
 6512TIP3   OH241170   2.551   6.024   9.843
 6512TIP3    H141171   2.602   6.070   9.773
 6512TIP3    H241172   2.461   6.017   9.803
 6513TIP3   OH241173   2.704   6.573   9.865
 6513TIP3    H141174   2.780   6.557   9.808
 6513TIP3    H241175   2.668   6.657   9.833
 6514TIP3   OH241176   3.279   6.628  10.176
 6514TIP3    H141177   3.253   6.702  10.117
 6514TIP3    H241178   3.375   6.624  10.157
 6515TIP3   OH241179   2.352   6.314  10.280
 6515TIP3    H141180   2.278   6.252  10.265
 6515TIP3    H241181   2.420   6.278  10.222
 6516TIP3   OH241182   2.629   5.768   9.881
 6516TIP3    H141183   2.611   5.864   9.870
 6516TIP3    H241184   2.554   5.731   9.830
 6517TIP3   OH241185   2.756   6.200  10.242
 6517TIP3    H141186   2.728   6.180  10.333
 6517TIP3    H241187   2.675   6.180  10.191
 6518TIP3   OH241188   3.028   6.119  10.157
 6518TIP3    H141189   2.931   6.121  10.161
 6518TIP3    H241190   3.049   6.047  10.217
 6519TIP3   OH241191   2.163   6.105  10.254
 6519TIP3    H141192   2.191   6.034  10.194
 6519TIP3    H241193   2.167   6.059  10.340
 6520TIP3   OH241194   2.652   5.706  10.151
 6520TIP3    H141195   2.720   5.637  10.150
 6520TIP3    H241196   2.639   5.723  10.056
 6521TIP3   OH241197   1.993   7.014   8.627
 6521TIP3    H141198   2.088   7.028   8.648
 6521TIP3    H241199   1.998   6.959   8.550
 6522TIP3   OH241200   1.939   7.368   9.310
 6522TIP3    H141201   1.908   7.279   9.333
 6522TIP3    H241202   1.968   7.403   9.395
 6523TIP3   OH241203   3.507   6.979  10.371
 6523TIP3    H141204   3.415   6.978  10.402
 6523TIP3    H241205   3.543   7.063  10.407
 6524TIP3   OH241206   3.639   6.809   8.906
 6524TIP3    H141207   3.721   6.856   8.929
 6524TIP3    H241208   3.635   6.742   8.977
 6525TIP3   OH241209   3.672   6.622   9.097
 6525TIP3    H141210   3.597   6.571   9.135
 6525TIP3    H241211   3.732   6.635   9.174
 6526TIP3   OH241212   3.648   6.892   9.598
 6526TIP3    H141213   3.729   6.854   9.558
 6526TIP3    H241214   3.662   6.986   9.579
 6527TIP3   OH241215   3.500   7.181   9.823
 6527TIP3    H141216   3.435   7.218   9.883
 6527TIP3    H241217   3.446   7.140   9.752
 6528TIP3   OH241218   3.702   6.603   8.733
 6528TIP3    H141219   3.642   6.640   8.666
 6528TIP3    H241220   3.695   6.673   8.802
 6529TIP3   OH241221   3.500   6.330   8.597
 6529TIP3    H141222   3.546   6.388   8.535
 6529TIP3    H241223   3.519   6.245   8.552
 6530TIP3   OH241224   3.455   6.469   9.154
 6530TIP3    H141225   3.440   6.373   9.149
 6530TIP3    H241226   3.422   6.490   9.244
 6531TIP3   OH241227   1.954   6.678   9.560
 6531TIP3    H141228   1.972   6.669   9.464
 6531TIP3    H241229   2.044   6.660   9.595
 6532TIP3   OH241230   3.539   6.665  10.128
 6532TIP3    H141231   3.603   6.592  10.136
 6532TIP3    H241232   3.599   6.742  10.120
 6533TIP3   OH241233   3.687   6.452  10.181
 6533TIP3    H141234   3.601   6.412  10.170
 6533TIP3    H241235   3.747   6.376  10.180
 6534TIP3   OH241236   3.465   6.068   8.497
 6534TIP3    H141237   3.523   6.026   8.565
 6534TIP3    H241238   3.376   6.036   8.518
 6535TIP3   OH241239   3.421   6.227   9.002
 6535TIP3    H141240   3.452   6.134   9.012
 6535TIP3    H241241   3.499   6.267   8.961
 6536TIP3   OH241242   3.485   6.281   9.542
 6536TIP3    H141243   3.581   6.305   9.543
 6536TIP3    H241244   3.466   6.295   9.637
 6537TIP3   OH241245   3.493   6.354   9.821
 6537TIP3    H141246   3.405   6.382   9.857
 6537TIP3    H241247   3.535   6.440   9.799
 6538TIP3   OH241248   1.918   6.207  10.180
 6538TIP3    H141249   2.012   6.183  10.194
 6538TIP3    H241250   1.874   6.122  10.204
 6539TIP3   OH241251   3.715   5.755  10.354
 6539TIP3    H141252   3.757   5.691  10.295
 6539TIP3    H241253   3.732   5.839  10.309
 6540TIP3   OH241254   3.489   5.955   9.004
 6540TIP3    H141255   3.510   5.912   9.090
 6540TIP3    H241256   3.428   5.892   8.960
 6541TIP3   OH241257   2.036   6.037   9.461
 6541TIP3    H141258   2.083   5.954   9.486
 6541TIP3    H241259   2.092   6.106   9.499
 6542TIP3   OH241260   1.865   6.336   9.565
 6542TIP3    H141261   1.921   6.311   9.489
 6542TIP3    H241262   1.911   6.417   9.591
 6543TIP3   OH241263   3.669   5.971  10.193
 6543TIP3    H141264   3.577   5.996  10.179
 6543TIP3    H241265   3.678   5.914  10.114
 6544TIP3   OH241266   3.670   5.962   8.660
 6544TIP3    H141267   3.713   5.891   8.611
 6544TIP3    H241268   3.742   6.027   8.663
 6545TIP3   OH241269   1.901   5.962   8.970
 6545TIP3    H141270   1.807   5.981   8.958
 6545TIP3    H241271   1.943   6.012   8.898
 6546TIP3   OH241272   1.896   5.828   9.800
 6546TIP3    H141273   1.830   5.809   9.869
 6546TIP3    H241274   1.850   5.896   9.748
 6547TIP3   OH241275   2.119   7.150  10.216
 6547TIP3    H141276   2.033   7.169  10.173
 6547TIP3    H241277   2.094   7.144  10.310
 6548TIP3   OH241278   2.414   7.248   9.850
 6548TIP3    H141279   2.370   7.326   9.813
 6548TIP3    H241280   2.502   7.250   9.810
 6549TIP3   OH241281   3.572   5.778   9.977
 6549TIP3    H141282   3.490   5.807   9.933
 6549TIP3    H241283   3.591   5.696   9.926
 6550TIP3   OH241284   2.303   7.297   9.383
 6550TIP3    H141285   2.286   7.210   9.423
 6550TIP3    H241286   2.378   7.319   9.443
 6551TIP3   OH241287   2.520   7.301   9.512
 6551TIP3    H141288   2.582   7.241   9.469
 6551TIP3    H241289   2.566   7.340   9.587
 6552TIP3   OH241290   2.912   5.922   9.405
 6552TIP3    H141291   2.845   5.858   9.434
 6552TIP3    H241292   2.967   5.868   9.347
 6553TIP3   OH241293   3.426   5.726   9.411
 6553TIP3    H141294   3.487   5.786   9.361
 6553TIP3    H241295   3.337   5.762   9.389
 6554TIP3   OH241296   3.592   5.852   9.239
 6554TIP3    H141297   3.661   5.794   9.198
 6554TIP3    H241298   3.644   5.935   9.250
 6555TIP3   OH241299   2.149   5.784   9.192
 6555TIP3    H141300   2.070   5.765   9.137
 6555TIP3    H241301   2.195   5.698   9.184
 6556TIP3   OH241302   2.023   5.760   8.761
 6556TIP3    H141303   2.075   5.824   8.708
 6556TIP3    H241304   1.970   5.818   8.818
 6557TIP3   OH241305   2.596   5.777   9.169
 6557TIP3    H141306   2.686   5.813   9.161
 6557TIP3    H241307   2.593   5.755   9.262
 6558TIP3   OH241308   3.168   5.778   9.331
 6558TIP3    H141309   3.163   5.791   9.235
 6558TIP3    H241310   3.130   5.688   9.343
 6559TIP3   OH241311   3.295   5.780   8.895
 6559TIP3    H141312   3.221   5.841   8.882
 6559TIP3    H241313   3.250   5.695   8.920
 6560TIP3   OH241314   1.994  -0.008   8.901
 6560TIP3    H141315   1.958  -0.006   8.811
 6560TIP3    H241316   2.027   0.082   8.906
 6561TIP3   OH241317   2.208   5.945   8.617
 6561TIP3    H141318   2.263   5.891   8.560
 6561TIP3    H241319   2.274   5.988   8.674
 6562TIP3   OH241320   2.712   5.978   8.854
 6562TIP3    H141321   2.738   5.921   8.928
 6562TIP3    H241322   2.719   6.065   8.900
 6563TIP3   OH241323   2.142   5.839  10.140
 6563TIP3    H141324   2.103   5.759  10.181
 6563TIP3    H241325   2.234   5.835  10.171
 6564TIP3   OH241326   3.178   5.709  10.316
 6564TIP3    H141327   3.186   5.656  10.396
 6564TIP3    H241328   3.268   5.702  10.278
 6565TIP3   OH241329   3.491   7.304  10.194
 6565TIP3    H141330   3.421   7.294  10.126
 6565TIP3    H241331   3.499   7.400  10.194
 6566TIP3   OH241332   4.943   6.696   9.176
 6566TIP3    H141333   4.942   6.795   9.173
 6566TIP3    H241334   4.870   6.674   9.114
 6567TIP3   OH241335   4.829   6.624   9.526
 6567TIP3    H141336   4.829   6.560   9.597
 6567TIP3    H241337   4.794   6.573   9.451
 6568TIP3   OH241338   4.066   6.590   9.680
 6568TIP3    H141339   4.072   6.523   9.751
 6568TIP3    H241340   4.138   6.650   9.703
 6569TIP3   OH241341   5.198   6.917   9.355
 6569TIP3    H141342   5.154   6.847   9.404
 6569TIP3    H241343   5.201   6.989   9.421
 6570TIP3   OH241344   4.161   7.036   9.533
 6570TIP3    H141345   4.127   6.950   9.501
 6570TIP3    H241346   4.256   7.015   9.538
 6571TIP3   OH241347   3.821   6.391   9.080
 6571TIP3    H141348   3.778   6.479   9.075
 6571TIP3    H241349   3.765   6.338   9.022
 6572TIP3   OH241350   3.892   6.615   9.296
 6572TIP3    H141351   3.920   6.532   9.340
 6572TIP3    H241352   3.961   6.625   9.228
 6573TIP3   OH241353   4.665   6.860   9.575
 6573TIP3    H141354   4.700   6.801   9.507
 6573TIP3    H241355   4.747   6.880   9.624
 6574TIP3   OH241356   5.527   6.026   9.648
 6574TIP3    H141357   5.543   6.090   9.721
 6574TIP3    H241358   5.581   6.070   9.580
 6575TIP3   OH241359   4.979   6.309   9.606
 6575TIP3    H141360   5.002   6.215   9.605
 6575TIP3    H241361   4.972   6.325   9.510
 6576TIP3   OH241362   4.294   6.119   9.326
 6576TIP3    H141363   4.306   6.203   9.276
 6576TIP3    H241364   4.255   6.062   9.257
 6577TIP3   OH241365   5.069   6.131   9.168
 6577TIP3    H141366   5.136   6.096   9.230
 6577TIP3    H241367   5.123   6.184   9.107
 6578TIP3   OH241368   3.957   6.361   9.399
 6578TIP3    H141369   4.024   6.306   9.445
 6578TIP3    H241370   3.968   6.329   9.308
 6579TIP3   OH241371   4.472   6.517   9.331
 6579TIP3    H141372   4.541   6.459   9.369
 6579TIP3    H241373   4.421   6.451   9.280
 6580TIP3   OH241374   5.562   6.164   9.872
 6580TIP3    H141375   5.511   6.248   9.861
 6580TIP3    H241376   5.575   6.165   9.969
 6581TIP3   OH241377   4.189   6.013   9.732
 6581TIP3    H141378   4.157   6.065   9.655
 6581TIP3    H241379   4.117   6.032   9.797
 6582TIP3   OH241380   4.915   6.957   9.084
 6582TIP3    H141381   4.888   6.931   8.994
 6582TIP3    H241382   4.887   7.050   9.088
 6583TIP3   OH241383   4.437   6.771   9.754
 6583TIP3    H141384   4.367   6.836   9.777
 6583TIP3    H241385   4.507   6.832   9.724
 6584TIP3   OH241386   5.250   6.061   9.362
 6584TIP3    H141387   5.228   5.985   9.417
 6584TIP3    H241388   5.317   6.107   9.415
 6585TIP3   OH241389   4.146   6.193   9.536
 6585TIP3    H141390   4.206   6.266   9.562
 6585TIP3    H241391   4.194   6.155   9.458
 6586TIP3   OH241392   4.283   6.973   9.838
 6586TIP3    H141393   4.278   7.063   9.802
 6586TIP3    H241394   4.192   6.967   9.877
 6587TIP3   OH241395   3.887   6.941   8.915
 6587TIP3    H141396   3.867   6.972   8.825
 6587TIP3    H241397   3.898   7.023   8.967
 6588TIP3   OH241398   5.252   7.106   9.595
 6588TIP3    H141399   5.154   7.110   9.603
 6588TIP3    H241400   5.278   7.196   9.569
 6589TIP3   OH241401   5.285   5.929   9.728
 6589TIP3    H141402   5.210   5.990   9.723
 6589TIP3    H241403   5.350   5.981   9.676
 6590TIP3   OH241404   4.579   5.742   9.477
 6590TIP3    H141405   4.564   5.646   9.470
 6590TIP3    H241406   4.491   5.774   9.507
 6591TIP3   OH241407   5.078   7.259   9.241
 6591TIP3    H141408   5.127   7.194   9.188
 6591TIP3    H241409   5.117   7.341   9.210
 6592TIP3   OH241410   5.200   7.070   9.101
 6592TIP3    H141411   5.168   7.003   9.039
 6592TIP3    H241412   5.201   7.022   9.186
 6593TIP3   OH241413   5.359   6.934   9.951
 6593TIP3    H141414   5.373   6.866   9.881
 6593TIP3    H241415   5.384   7.016   9.906
 6594TIP3   OH241416   4.809   6.627   8.928
 6594TIP3    H141417   4.739   6.679   8.885
 6594TIP3    H241418   4.879   6.628   8.860
 6595TIP3   OH241419   4.815   6.482   8.632
 6595TIP3    H141420   4.882   6.471   8.701
 6595TIP3    H241421   4.842   6.408   8.577
 6596TIP3   OH241422   5.551   6.565   9.757
 6596TIP3    H141423   5.484   6.637   9.760
 6596TIP3    H241424   5.598   6.588   9.675
 6597TIP3   OH241425   5.153   6.643   9.021
 6597TIP3    H141426   5.079   6.667   9.081
 6597TIP3    H241427   5.202   6.576   9.072
 6598TIP3   OH241428   5.147   6.459   9.931
 6598TIP3    H141429   5.147   6.540   9.986
 6598TIP3    H241430   5.084   6.489   9.862
 6599TIP3   OH241431   4.314   6.708   9.212
 6599TIP3    H141432   4.283   6.670   9.126
 6599TIP3    H241433   4.377   6.640   9.244
 6600TIP3   OH241434   4.449   7.045   9.478
 6600TIP3    H141435   4.449   6.992   9.398
 6600TIP3    H241436   4.527   7.011   9.526
 6601TIP3   OH241437   4.351   6.579   9.581
 6601TIP3    H141438   4.401   6.593   9.497
 6601TIP3    H241439   4.386   6.652   9.637
 6602TIP3   OH241440   4.989   7.141   9.648
 6602TIP3    H141441   4.956   7.205   9.710
 6602TIP3    H241442   4.963   7.056   9.689
 6603TIP3   OH241443   4.444   7.032  10.048
 6603TIP3    H141444   4.398   7.100  10.099
 6603TIP3    H241445   4.377   7.006   9.979
 6604TIP3   OH241446   5.041   6.563   8.788
 6604TIP3    H141447   5.096   6.580   8.867
 6604TIP3    H241448   5.083   6.615   8.716
 6605TIP3   OH241449   4.138   6.641   9.967
 6605TIP3    H141450   4.142   6.710  10.037
 6605TIP3    H241451   4.045   6.652   9.940
 6606TIP3   OH241452   4.809   7.232   9.138
 6606TIP3    H141453   4.861   7.267   9.211
 6606TIP3    H241454   4.760   7.308   9.106
 6607TIP3   OH241455   4.266   7.236  10.113
 6607TIP3    H141456   4.260   7.219  10.018
 6607TIP3    H241457   4.175   7.217  10.145
 6608TIP3   OH241458   5.413   5.736   8.776
 6608TIP3    H141459   5.318   5.746   8.800
 6608TIP3    H241460   5.435   5.822   8.736
 6609TIP3   OH241461   4.211   6.611   8.973
 6609TIP3    H141462   4.184   6.689   8.919
 6609TIP3    H241463   4.147   6.544   8.949
 6610TIP3   OH241464   5.526   7.168   8.615
 6610TIP3    H141465   5.533   7.263   8.625
 6610TIP3    H241466   5.619   7.140   8.603
 6611TIP3   OH241467   3.820   6.855   9.862
 6611TIP3    H141468   3.777   6.845   9.776
 6611TIP3    H241469   3.828   6.760   9.885
 6612TIP3   OH241470   3.801   7.133   9.535
 6612TIP3    H141471   3.897   7.118   9.538
 6612TIP3    H241472   3.791   7.208   9.595
 6613TIP3   OH241473   5.618   7.197  10.115
 6613TIP3    H141474   5.606   7.102  10.104
 6613TIP3    H241475   5.530   7.224  10.149
 6614TIP3   OH241476   4.714   7.158   9.990
 6614TIP3    H141477   4.726   7.234  10.047
 6614TIP3    H241478   4.632   7.114  10.020
 6615TIP3   OH241479   5.342   6.346  10.147
 6615TIP3    H141480   5.285   6.390  10.083
 6615TIP3    H241481   5.333   6.252  10.125
 6616TIP3   OH241482   4.051   6.984   9.957
 6616TIP3    H141483   4.071   6.949  10.047
 6616TIP3    H241484   3.964   6.945   9.934
 6617TIP3   OH241485   4.318   5.834   9.552
 6617TIP3    H141486   4.228   5.821   9.515
 6617TIP3    H241487   4.303   5.916   9.601
 6618TIP3   OH241488   4.780   5.804   9.887
 6618TIP3    H141489   4.821   5.760   9.964
 6618TIP3    H241490   4.684   5.786   9.902
 6619TIP3   OH241491   5.111   6.182   9.974
 6619TIP3    H141492   5.057   6.162  10.055
 6619TIP3    H241493   5.096   6.277   9.956
 6620TIP3   OH241494   5.193   6.671   8.572
 6620TIP3    H141495   5.194   6.652   8.477
 6620TIP3    H241496   5.280   6.714   8.582
 6621TIP3   OH241497   4.693   6.023   8.576
 6621TIP3    H141498   4.708   6.060   8.668
 6621TIP3    H241499   4.730   5.937   8.589
 6622TIP3   OH241500   4.331   6.332   9.685
 6622TIP3    H141501   4.248   6.330   9.737
 6622TIP3    H241502   4.322   6.419   9.638
 6623TIP3   OH241503   4.325   6.341   9.163
 6623TIP3    H141504   4.231   6.317   9.149
 6623TIP3    H241505   4.364   6.313   9.076
 6624TIP3   OH241506   4.880   6.396   9.041
 6624TIP3    H141507   4.836   6.475   9.004
 6624TIP3    H241508   4.940   6.371   8.967
 6625TIP3   OH241509   4.784   6.411  10.180
 6625TIP3    H141510   4.731   6.338  10.219
 6625TIP3    H241511   4.866   6.404  10.235
 6626TIP3   OH241512   4.980   6.342   9.326
 6626TIP3    H141513   4.951   6.397   9.251
 6626TIP3    H241514   4.989   6.257   9.277
 6627TIP3   OH241515   4.095   6.352   9.845
 6627TIP3    H141516   4.094   6.399   9.931
 6627TIP3    H241517   4.044   6.272   9.866
 6628TIP3   OH241518   4.441   6.123   8.565
 6628TIP3    H141519   4.392   6.055   8.615
 6628TIP3    H241520   4.383   6.156   8.498
 6629TIP3   OH241521   3.756   6.066   9.244
 6629TIP3    H141522   3.825   6.062   9.314
 6629TIP3    H241523   3.801   6.029   9.166
 6630TIP3   OH241524   3.884   6.138   8.780
 6630TIP3    H141525   3.934   6.197   8.720
 6630TIP3    H241526   3.816   6.202   8.812
 6631TIP3   OH241527   4.895   6.500   9.779
 6631TIP3    H141528   4.938   6.433   9.721
 6631TIP3    H241529   4.856   6.447   9.849
 6632TIP3   OH241530   4.577   6.097   9.268
 6632TIP3    H141531   4.483   6.098   9.296
 6632TIP3    H241532   4.626   6.080   9.350
 6633TIP3   OH241533   4.061   6.252   9.152
 6633TIP3    H141534   3.973   6.268   9.112
 6633TIP3    H241535   4.090   6.170   9.109
 6634TIP3   OH241536   4.421   6.262   8.916
 6634TIP3    H141537   4.518   6.265   8.931
 6634TIP3    H241538   4.404   6.323   8.843
 6635TIP3   OH241539   5.021   6.019   9.589
 6635TIP3    H141540   4.951   6.026   9.657
 6635TIP3    H241541   4.970   5.997   9.509
 6636TIP3   OH241542   4.290   6.380   8.672
 6636TIP3    H141543   4.238   6.340   8.600
 6636TIP3    H241544   4.377   6.395   8.629
 6637TIP3   OH241545   4.107   6.834  10.179
 6637TIP3    H141546   4.179   6.857  10.240
 6637TIP3    H241547   4.030   6.845  10.240
 6638TIP3   OH241548   4.707   6.373   9.455
 6638TIP3    H141549   4.767   6.322   9.399
 6638TIP3    H241550   4.695   6.316   9.531
 6639TIP3   OH241551   4.209   5.987   9.099
 6639TIP3    H141552   4.177   5.895   9.096
 6639TIP3    H241553   4.287   5.981   9.042
 6640TIP3   OH241554   4.570   6.203   9.697
 6640TIP3    H141555   4.491   6.261   9.690
 6640TIP3    H241556   4.637   6.245   9.753
 6641TIP3   OH241557   4.631   6.826   8.867
 6641TIP3    H141558   4.551   6.781   8.833
 6641TIP3    H241559   4.607   6.841   8.961
 6642TIP3   OH241560   5.350   6.748   9.744
 6642TIP3    H141561   5.405   6.799   9.682
 6642TIP3    H241562   5.264   6.753   9.699
 6643TIP3   OH241563   5.067   6.113   8.657
 6643TIP3    H141564   4.970   6.117   8.642
 6643TIP3    H241565   5.061   6.189   8.719
 6644TIP3   OH241566   4.781   6.860   9.987
 6644TIP3    H141567   4.746   6.812  10.064
 6644TIP3    H241568   4.754   6.950  10.001
 6645TIP3   OH241569   5.092   6.303   8.852
 6645TIP3    H141570   5.182   6.290   8.886
 6645TIP3    H241571   5.095   6.381   8.795
 6646TIP3   OH241572   4.142   6.768   9.445
 6646TIP3    H141573   4.210   6.761   9.375
 6646TIP3    H241574   4.147   6.682   9.490
 6647TIP3   OH241575   4.842   6.976   8.771
 6647TIP3    H141576   4.805   7.060   8.803
 6647TIP3    H241577   4.767   6.915   8.789
 6648TIP3   OH241578   3.841   6.608   9.969
 6648TIP3    H141579   3.857   6.565  10.055
 6648TIP3    H241580   3.777   6.547   9.927
 6649TIP3   OH241581   4.542   6.563  10.187
 6649TIP3    H141582   4.512   6.535  10.101
 6649TIP3    H241583   4.635   6.532  10.193
 6650TIP3   OH241584   5.009   7.107   9.978
 6650TIP3    H141585   4.914   7.113   9.961
 6650TIP3    H241586   5.006   7.125  10.075
 6651TIP3   OH241587   5.578   6.316   8.823
 6651TIP3    H141588   5.521   6.285   8.751
 6651TIP3    H241589   5.585   6.410   8.797
 6652TIP3   OH241590   5.576   6.897  10.104
 6652TIP3    H141591   5.487   6.923  10.070
 6652TIP3    H241592   5.630   6.897  10.022
 6653TIP3   OH241593   5.413   7.182   8.873
 6653TIP3    H141594   5.365   7.103   8.894
 6653TIP3    H241595   5.434   7.179   8.778
 6654TIP3   OH241596   5.127   6.680   9.573
 6654TIP3    H141597   5.033   6.660   9.560
 6654TIP3    H241598   5.170   6.604   9.529
 6655TIP3   OH241599   4.382   7.110   9.178
 6655TIP3    H141600   4.427   7.193   9.160
 6655TIP3    H241601   4.292   7.132   9.152
 6656TIP3   OH241602   3.951   6.599   8.635
 6656TIP3    H141603   4.014   6.661   8.678
 6656TIP3    H241604   3.864   6.626   8.670
 6657TIP3   OH241605   4.522   6.879   9.136
 6657TIP3    H141606   4.491   6.972   9.142
 6657TIP3    H241607   4.449   6.832   9.180
 6658TIP3   OH241608   4.582   7.274   9.752
 6658TIP3    H141609   4.606   7.367   9.744
 6658TIP3    H241610   4.626   7.253   9.837
 6659TIP3   OH241611   4.355   0.027   9.055
 6659TIP3    H141612   4.272   0.040   9.100
 6659TIP3    H241613   4.409   0.093   9.105
 6660TIP3   OH241614   4.918   6.897   9.738
 6660TIP3    H141615   4.884   6.876   9.827
 6660TIP3    H241616   4.981   6.825   9.720
 6661TIP3   OH241617   5.147   6.994   8.650
 6661TIP3    H141618   5.178   6.957   8.735
 6661TIP3    H241619   5.051   6.985   8.658
 6662TIP3   OH241620   5.196   7.349   9.987
 6662TIP3    H141621   5.126   7.301   9.940
 6662TIP3    H241622   5.212   7.424   9.927
 6663TIP3   OH241623   4.008   6.081   9.926
 6663TIP3    H141624   3.917   6.117   9.922
 6663TIP3    H241625   3.993   5.996   9.971
 6664TIP3   OH241626   5.229   6.866   8.872
 6664TIP3    H141627   5.205   6.786   8.924
 6664TIP3    H241628   5.324   6.874   8.892
 6665TIP3   OH241629   3.967   7.255   9.766
 6665TIP3    H141630   3.998   7.164   9.771
 6665TIP3    H241631   3.986   7.290   9.854
 6666TIP3   OH241632   4.443   7.068   8.738
 6666TIP3    H141633   4.467   7.012   8.813
 6666TIP3    H241634   4.453   7.158   8.773
 6667TIP3   OH241635   4.091   6.791   8.784
 6667TIP3    H141636   4.025   6.831   8.845
 6667TIP3    H241637   4.147   6.867   8.762
 6668TIP3   OH241638   4.872   6.061   9.825
 6668TIP3    H141639   4.948   6.066   9.886
 6668TIP3    H241640   4.842   5.969   9.842
 6669TIP3   OH241641   4.989   5.995   8.941
 6669TIP3    H141642   4.966   6.053   8.865
 6669TIP3    H241643   5.011   6.066   9.004
 6670TIP3   OH241644   4.722   7.232   8.817
 6670TIP3    H141645   4.637   7.279   8.818
 6670TIP3    H241646   4.774   7.281   8.749
 6671TIP3   OH241647   4.659   6.199   9.025
 6671TIP3    H141648   4.747   6.242   9.008
 6671TIP3    H241649   4.651   6.178   9.119
 6672TIP3   OH241650   4.727   6.290   9.934
 6672TIP3    H141651   4.746   6.350  10.010
 6672TIP3    H241652   4.800   6.226   9.941
 6673TIP3   OH241653   4.762   5.896   9.101
 6673TIP3    H141654   4.728   5.962   9.164
 6673TIP3    H241655   4.830   5.950   9.055
 6674TIP3   OH241656   4.467   0.001   8.808
 6674TIP3    H141657   4.475   0.086   8.765
 6674TIP3    H241658   4.432   0.024   8.897
 6675TIP3   OH241659   4.326   6.005   8.778
 6675TIP3    H141660   4.323   6.097   8.809
 6675TIP3    H241661   4.419   5.984   8.801
 6676TIP3   OH241662   5.346   6.075  10.015
 6676TIP3    H141663   5.255   6.114  10.003
 6676TIP3    H241664   5.381   6.086   9.925
 6677TIP3   OH241665   5.211   6.460   9.419
 6677TIP3    H141666   5.129   6.415   9.389
 6677TIP3    H241667   5.259   6.390   9.468
 6678TIP3   OH241668   4.153   7.045   8.680
 6678TIP3    H141669   4.215   7.115   8.705
 6678TIP3    H241670   4.202   7.007   8.605
 6679TIP3   OH241671   3.990   6.319   8.596
 6679TIP3    H141672   3.987   6.416   8.607
 6679TIP3    H241673   3.903   6.300   8.559
 6680TIP3   OH241674   4.066   5.797   9.465
 6680TIP3    H141675   4.047   5.799   9.369
 6680TIP3    H241676   4.025   5.712   9.490
 6681TIP3   OH241677   3.971   7.186   9.088
 6681TIP3    H141678   3.882   7.225   9.078
 6681TIP3    H241679   4.008   7.233   9.012
 6682TIP3   OH241680   4.349   7.298  10.370
 6682TIP3    H141681   4.437   7.270  10.391
 6682TIP3    H241682   4.353   7.303  10.272
 6683TIP3   OH241683   4.793   7.316   8.576
 6683TIP3    H141684   4.715   7.260   8.559
 6683TIP3    H241685   4.849   7.274   8.508
 6684TIP3   OH241686   5.000   7.169  10.235
 6684TIP3    H141687   4.965   7.087  10.275
 6684TIP3    H241688   5.075   7.190  10.295
 6685TIP3   OH241689   5.223   7.273   8.527
 6685TIP3    H141690   5.244   7.193   8.578
 6685TIP3    H241691   5.304   7.288   8.475
 6686TIP3   OH241692   3.871   6.830  10.305
 6686TIP3    H141693   3.889   6.740  10.273
 6686TIP3    H241694   3.798   6.861  10.249
 6687TIP3   OH241695   4.317   6.872   8.525
 6687TIP3    H141696   4.323   6.788   8.571
 6687TIP3    H241697   4.371   6.851   8.446
 6688TIP3   OH241698   4.554   6.831  10.243
 6688TIP3    H141699   4.509   6.859  10.161
 6688TIP3    H241700   4.551   6.732  10.237
 6689TIP3   OH241701   5.113   6.815   9.984
 6689TIP3    H141702   5.193   6.873   9.978
 6689TIP3    H241703   5.044   6.882   9.989
 6690TIP3   OH241704   3.956   6.552  10.245
 6690TIP3    H141705   4.010   6.473  10.236
 6690TIP3    H241706   3.942   6.556  10.340
 6691TIP3   OH241707   4.432   6.670   8.752
 6691TIP3    H141708   4.378   6.617   8.814
 6691TIP3    H241709   4.462   6.601   8.688
 6692TIP3   OH241710   4.358   6.445   9.975
 6692TIP3    H141711   4.300   6.514  10.011
 6692TIP3    H241712   4.391   6.495   9.897
 6693TIP3   OH241713   4.537   6.497   8.570
 6693TIP3    H141714   4.528   6.469   8.478
 6693TIP3    H241715   4.635   6.497   8.584
 6694TIP3   OH241716   4.863   6.707  10.320
 6694TIP3    H141717   4.959   6.700  10.307
 6694TIP3    H241718   4.846   6.628  10.373
 6695TIP3   OH241719   5.454   6.737  17.022
 6695TIP3    H141720   5.443   6.687  16.939
 6695TIP3    H241721   5.477   6.826  16.995
 6696TIP3   OH241722   4.404   6.187  10.087
 6696TIP3    H141723   4.397   6.110  10.025
 6696TIP3    H241724   4.369   6.267  10.043
 6697TIP3   OH241725   4.434   6.038   9.845
 6697TIP3    H141726   4.487   6.063   9.765
 6697TIP3    H241727   4.347   6.014   9.803
 6698TIP3   OH241728   4.586   6.566   9.860
 6698TIP3    H141729   4.668   6.561   9.808
 6698TIP3    H241730   4.554   6.655   9.836
 6699TIP3   OH241731   5.028   6.349  10.353
 6699TIP3    H141732   5.053   6.257  10.363
 6699TIP3    H241733   5.113   6.393  10.370
 6700TIP3   OH241734   5.162   6.627  10.173
 6700TIP3    H141735   5.139   6.703  10.114
 6700TIP3    H241736   5.259   6.624  10.159
 6701TIP3   OH241737   4.239   6.313  10.279
 6701TIP3    H141738   4.162   6.254  10.264
 6701TIP3    H241739   4.306   6.275  10.220
 6702TIP3   OH241740   4.513   5.768   9.882
 6702TIP3    H141741   4.495   5.863   9.869
 6702TIP3    H241742   4.441   5.726   9.831
 6703TIP3   OH241743   4.642   6.197  10.240
 6703TIP3    H141744   4.616   6.180  10.332
 6703TIP3    H241745   4.559   6.179  10.193
 6704TIP3   OH241746   4.912   6.110  10.145
 6704TIP3    H141747   4.818   6.121  10.166
 6704TIP3    H241748   4.943   6.054  10.220
 6705TIP3   OH241749   5.059   5.979  10.339
 6705TIP3    H141750   5.071   5.883  10.348
 6705TIP3    H241751   5.053   6.010  10.432
 6706TIP3   OH241752   4.056   6.106  10.253
 6706TIP3    H141753   4.073   6.030  10.195
 6706TIP3    H241754   4.044   6.061  10.339
 6707TIP3   OH241755   4.537   5.708  10.150
 6707TIP3    H141756   4.603   5.636  10.147
 6707TIP3    H241757   4.526   5.723  10.054
 6708TIP3   OH241758   4.573   5.870  10.361
 6708TIP3    H141759   4.556   5.817  10.280
 6708TIP3    H241760   4.512   5.946  10.353
 6709TIP3   OH241761   3.878   7.014   8.628
 6709TIP3    H141762   3.973   7.028   8.648
 6709TIP3    H241763   3.884   6.959   8.550
 6710TIP3   OH241764   3.823   7.369   9.310
 6710TIP3    H141765   3.794   7.279   9.333
 6710TIP3    H241766   3.854   7.403   9.395
 6711TIP3   OH241767   5.389   6.981  10.363
 6711TIP3    H141768   5.302   6.977  10.406
 6711TIP3    H241769   5.429   7.060  10.407
 6712TIP3   OH241770   5.524   6.809   8.906
 6712TIP3    H141771   5.606   6.856   8.929
 6712TIP3    H241772   5.521   6.741   8.977
 6713TIP3   OH241773   5.558   6.622   9.097
 6713TIP3    H141774   5.482   6.571   9.135
 6713TIP3    H241775   5.617   6.635   9.174
 6714TIP3   OH241776   5.534   6.892   9.598
 6714TIP3    H141777   5.614   6.854   9.558
 6714TIP3    H241778   5.548   6.987   9.579
 6715TIP3   OH241779   5.386   7.184   9.826
 6715TIP3    H141780   5.319   7.219   9.885
 6715TIP3    H241781   5.333   7.142   9.754
 6716TIP3   OH241782   5.582   6.600   8.735
 6716TIP3    H141783   5.529   6.641   8.665
 6716TIP3    H241784   5.582   6.673   8.801
 6717TIP3   OH241785   5.386   6.329   8.598
 6717TIP3    H141786   5.432   6.388   8.535
 6717TIP3    H241787   5.404   6.245   8.552
 6718TIP3   OH241788   5.340   6.469   9.155
 6718TIP3    H141789   5.325   6.373   9.149
 6718TIP3    H241790   5.308   6.490   9.244
 6719TIP3   OH241791   3.841   6.678   9.560
 6719TIP3    H141792   3.858   6.669   9.464
 6719TIP3    H241793   3.930   6.660   9.595
 6720TIP3   OH241794   5.427   6.664  10.119
 6720TIP3    H141795   5.487   6.589  10.138
 6720TIP3    H241796   5.486   6.743  10.122
 6721TIP3   OH241797   5.582   6.455  10.185
 6721TIP3    H141798   5.491   6.416  10.177
 6721TIP3    H241799   5.634   6.372  10.182
 6722TIP3   OH241800   5.351   6.067   8.496
 6722TIP3    H141801   5.407   6.027   8.565
 6722TIP3    H241802   5.260   6.040   8.521
 6723TIP3   OH241803   5.310   6.228   9.006
 6723TIP3    H141804   5.336   6.134   9.011
 6723TIP3    H241805   5.384   6.267   8.959
 6724TIP3   OH241806   5.371   6.278   9.545
 6724TIP3    H141807   5.466   6.306   9.542
 6724TIP3    H241808   5.352   6.298   9.638
 6725TIP3   OH241809   5.377   6.353   9.818
 6725TIP3    H141810   5.291   6.382   9.855
 6725TIP3    H241811   5.421   6.439   9.800
 6726TIP3   OH241812   3.805   6.207  10.176
 6726TIP3    H141813   3.898   6.185  10.194
 6726TIP3    H241814   3.759   6.125  10.203
 6727TIP3   OH241815   5.604   5.752  10.352
 6727TIP3    H141816   5.645   5.692  10.290
 6727TIP3    H241817   5.614   5.840  10.312
 6728TIP3   OH241818   5.374   5.955   9.004
 6728TIP3    H141819   5.395   5.912   9.089
 6728TIP3    H241820   5.311   5.893   8.960
 6729TIP3   OH241821   3.923   6.037   9.460
 6729TIP3    H141822   3.968   5.954   9.485
 6729TIP3    H241823   3.978   6.106   9.499
 6730TIP3   OH241824   3.751   6.337   9.564
 6730TIP3    H141825   3.807   6.312   9.488
 6730TIP3    H241826   3.798   6.417   9.591
 6731TIP3   OH241827   5.558   5.969  10.189
 6731TIP3    H141828   5.465   5.996  10.185
 6731TIP3    H241829   5.561   5.913  10.111
 6732TIP3   OH241830   5.554   5.962   8.662
 6732TIP3    H141831   5.596   5.891   8.611
 6732TIP3    H241832   5.627   6.027   8.662
 6733TIP3   OH241833   3.787   5.962   8.970
 6733TIP3    H141834   3.693   5.981   8.958
 6733TIP3    H241835   3.828   6.013   8.897
 6734TIP3   OH241836   3.782   5.828   9.801
 6734TIP3    H141837   3.715   5.810   9.869
 6734TIP3    H241838   3.736   5.896   9.747
 6735TIP3   OH241839   4.003   7.158  10.219
 6735TIP3    H141840   3.917   7.170  10.172
 6735TIP3    H241841   3.980   7.137  10.310
 6736TIP3   OH241842   4.299   7.248   9.850
 6736TIP3    H141843   4.255   7.326   9.814
 6736TIP3    H241844   4.388   7.251   9.809
 6737TIP3   OH241845   5.466   5.783   9.981
 6737TIP3    H141846   5.374   5.810   9.960
 6737TIP3    H241847   5.479   5.692   9.947
 6738TIP3   OH241848   4.187   7.295   9.384
 6738TIP3    H141849   4.172   7.208   9.424
 6738TIP3    H241850   4.264   7.320   9.442
 6739TIP3   OH241851   4.406   7.299   9.512
 6739TIP3    H141852   4.468   7.239   9.469
 6739TIP3    H241853   4.451   7.339   9.587
 6740TIP3   OH241854   4.798   5.923   9.403
 6740TIP3    H141855   4.731   5.859   9.433
 6740TIP3    H241856   4.853   5.868   9.346
 6741TIP3   OH241857   5.312   5.731   9.417
 6741TIP3    H141858   5.373   5.785   9.359
 6741TIP3    H241859   5.223   5.761   9.388
 6742TIP3   OH241860   5.481   5.849   9.244
 6742TIP3    H141861   5.547   5.793   9.197
 6742TIP3    H241862   5.529   5.935   9.248
 6743TIP3   OH241863   4.035   5.784   9.192
 6743TIP3    H141864   3.956   5.765   9.137
 6743TIP3    H241865   4.080   5.698   9.184
 6744TIP3   OH241866   3.908   5.759   8.759
 6744TIP3    H141867   3.960   5.824   8.708
 6744TIP3    H241868   3.856   5.817   8.818
 6745TIP3   OH241869   4.481   5.776   9.169
 6745TIP3    H141870   4.571   5.813   9.160
 6745TIP3    H241871   4.479   5.755   9.262
 6746TIP3   OH241872   5.057   5.777   9.334
 6746TIP3    H141873   5.051   5.790   9.238
 6746TIP3    H241874   5.015   5.688   9.343
 6747TIP3   OH241875   5.179   5.780   8.894
 6747TIP3    H141876   5.106   5.844   8.884
 6747TIP3    H241877   5.133   5.697   8.920
 6748TIP3   OH241878   3.880  -0.008   8.900
 6748TIP3    H141879   3.843  -0.006   8.810
 6748TIP3    H241880   3.912   0.082   8.905
 6749TIP3   OH241881   4.094   5.944   8.616
 6749TIP3    H141882   4.151   5.891   8.560
 6749TIP3    H241883   4.160   5.988   8.674
 6750TIP3   OH241884   4.585   5.976   8.861
 6750TIP3    H141885   4.626   5.922   8.930
 6750TIP3    H241886   4.609   6.065   8.894
 6751TIP3   OH241887   4.022   5.838  10.136
 6751TIP3    H141888   3.984   5.757  10.175
 6751TIP3    H241889   4.113   5.832  10.172
 6752TIP3   OH241890   4.226   5.776  10.299
 6752TIP3    H141891   4.314   5.742  10.276
 6752TIP3    H241892   4.188   5.695  10.340
 6753TIP3   OH241893   5.065   5.696  10.310
 6753TIP3    H141894   5.077   5.672  10.402
 6753TIP3    H241895   5.158   5.707  10.280
 6754TIP3   OH241896   5.373   7.303  10.194
 6754TIP3    H141897   5.306   7.294  10.123
 6754TIP3    H241898   5.386   7.398  10.193
 6755TIP3   OH241899   6.828   6.696   9.176
 6755TIP3    H141900   6.829   6.795   9.173
 6755TIP3    H241901   6.756   6.675   9.115
 6756TIP3   OH241902   6.715   6.623   9.525
 6756TIP3    H141903   6.713   6.559   9.598
 6756TIP3    H241904   6.680   6.572   9.450
 6757TIP3   OH241905   5.948   6.592   9.683
 6757TIP3    H141906   5.959   6.521   9.750
 6757TIP3    H241907   6.025   6.648   9.702
 6758TIP3   OH241908   7.085   6.915   9.357
 6758TIP3    H141909   7.041   6.845   9.406
 6758TIP3    H241910   7.092   6.985   9.423
 6759TIP3   OH241911   6.047   7.036   9.533
 6759TIP3    H141912   6.013   6.950   9.501
 6759TIP3    H241913   6.142   7.015   9.538
 6760TIP3   OH241914   5.706   6.392   9.080
 6760TIP3    H141915   5.663   6.479   9.075
 6760TIP3    H241916   5.651   6.340   9.021
 6761TIP3   OH241917   5.778   6.614   9.296
 6761TIP3    H141918   5.806   6.532   9.340
 6761TIP3    H241919   5.846   6.625   9.228
 6762TIP3   OH241920   6.551   6.860   9.576
 6762TIP3    H141921   6.585   6.801   9.507
 6762TIP3    H241922   6.633   6.880   9.624
 6763TIP3   OH241923   6.867   6.311   9.604
 6763TIP3    H141924   6.886   6.215   9.605
 6763TIP3    H241925   6.858   6.324   9.508
 6764TIP3   OH241926   6.180   6.120   9.326
 6764TIP3    H141927   6.191   6.203   9.276
 6764TIP3    H241928   6.141   6.062   9.257
 6765TIP3   OH241929   6.954   6.130   9.164
 6765TIP3    H141930   7.020   6.096   9.230
 6765TIP3    H241931   7.011   6.185   9.108
 6766TIP3   OH241932   5.843   6.361   9.399
 6766TIP3    H141933   5.910   6.306   9.445
 6766TIP3    H241934   5.853   6.329   9.308
 6767TIP3   OH241935   6.357   6.515   9.335
 6767TIP3    H141936   6.426   6.457   9.371
 6767TIP3    H241937   6.307   6.451   9.281
 6768TIP3   OH241938   6.072   6.010   9.730
 6768TIP3    H141939   6.043   6.066   9.655
 6768TIP3    H241940   6.004   6.033   9.798
 6769TIP3   OH241941   6.799   6.955   9.084
 6769TIP3    H141942   6.773   6.930   8.994
 6769TIP3    H241943   6.772   7.049   9.088
 6770TIP3   OH241944   6.322   6.772   9.753
 6770TIP3    H141945   6.253   6.837   9.777
 6770TIP3    H241946   6.393   6.832   9.725
 6771TIP3   OH241947   7.116   6.059   9.368
 6771TIP3    H141948   7.109   5.980   9.421
 6771TIP3    H241949   7.189   6.108   9.413
 6772TIP3   OH241950   6.029   6.195   9.534
 6772TIP3    H141951   6.091   6.264   9.565
 6772TIP3    H241952   6.080   6.154   9.459
 6773TIP3   OH241953   6.168   6.973   9.837
 6773TIP3    H141954   6.163   7.064   9.803
 6773TIP3    H241955   6.078   6.967   9.876
 6774TIP3   OH241956   5.763   6.947   8.919
 6774TIP3    H141957   5.753   6.973   8.825
 6774TIP3    H241958   5.784   7.029   8.967
 6775TIP3   OH241959   7.130   7.100   9.600
 6775TIP3    H141960   7.033   7.110   9.605
 6775TIP3    H241961   7.160   7.187   9.570
 6776TIP3   OH241962   7.161   5.941   9.716
 6776TIP3    H141963   7.085   6.003   9.719
 6776TIP3    H241964   7.230   5.991   9.671
 6777TIP3   OH241965   6.465   5.743   9.476
 6777TIP3    H141966   6.451   5.647   9.469
 6777TIP3    H241967   6.377   5.773   9.507
 6778TIP3   OH241968   6.966   7.258   9.241
 6778TIP3    H141969   7.015   7.193   9.186
 6778TIP3    H241970   7.004   7.341   9.211
 6779TIP3   OH241971   7.085   7.069   9.100
 6779TIP3    H141972   7.054   7.001   9.038
 6779TIP3    H241973   7.089   7.020   9.185
 6780TIP3   OH241974   7.221   6.944   9.956
 6780TIP3    H141975   7.253   6.873   9.898
 6780TIP3    H241976   7.267   7.020   9.915
 6781TIP3   OH241977   6.692   6.623   8.925
 6781TIP3    H141978   6.621   6.678   8.885
 6781TIP3    H241979   6.764   6.632   8.860
 6782TIP3   OH241980   6.700   6.476   8.635
 6782TIP3    H141981   6.772   6.476   8.699
 6782TIP3    H241982   6.732   6.411   8.572
 6783TIP3   OH241983   7.038   6.646   9.018
 6783TIP3    H141984   6.966   6.669   9.080
 6783TIP3    H241985   7.086   6.579   9.073
 6784TIP3   OH241986   7.025   6.456   9.931
 6784TIP3    H141987   7.032   6.538   9.984
 6784TIP3    H241988   6.967   6.491   9.861
 6785TIP3   OH241989   6.201   6.709   9.213
 6785TIP3    H141990   6.169   6.671   9.127
 6785TIP3    H241991   6.262   6.640   9.245
 6786TIP3   OH241992   6.334   7.045   9.479
 6786TIP3    H141993   6.334   6.993   9.398
 6786TIP3    H241994   6.412   7.012   9.526
 6787TIP3   OH241995   6.233   6.584   9.578
 6787TIP3    H141996   6.288   6.593   9.497
 6787TIP3    H241997   6.273   6.650   9.638
 6788TIP3   OH241998   6.871   7.142   9.648
 6788TIP3    H141999   6.843   7.204   9.714
 6788TIP3    H242000   6.849   7.056   9.689
 6789TIP3   OH242001   6.328   7.029  10.050
 6789TIP3    H142002   6.287   7.103  10.099
 6789TIP3    H242003   6.263   7.008   9.980
 6790TIP3   OH242004   6.933   6.558   8.784
 6790TIP3    H142005   6.981   6.583   8.867
 6790TIP3    H242006   6.968   6.617   8.715
 6791TIP3   OH242007   6.021   6.640   9.966
 6791TIP3    H142008   6.031   6.710  10.034
 6791TIP3    H242009   5.929   6.653   9.938
 6792TIP3   OH242010   6.695   7.232   9.138
 6792TIP3    H142011   6.747   7.267   9.210
 6792TIP3    H242012   6.646   7.308   9.106
 6793TIP3   OH242013   6.147   7.232  10.118
 6793TIP3    H142014   6.149   7.218  10.021
 6793TIP3    H242015   6.054   7.215  10.142
 6794TIP3   OH242016   7.274   5.727   8.767
 6794TIP3    H142017   7.187   5.753   8.802
 6794TIP3    H242018   7.308   5.810   8.733
 6795TIP3   OH242019   6.093   6.613   8.979
 6795TIP3    H142020   6.071   6.687   8.917
 6795TIP3    H242021   6.035   6.545   8.946
 6796TIP3   OH242022   5.705   6.855   9.862
 6796TIP3    H142023   5.662   6.847   9.775
 6796TIP3    H242024   5.714   6.760   9.883
 6797TIP3   OH242025   5.688   7.133   9.535
 6797TIP3    H142026   5.783   7.118   9.537
 6797TIP3    H242027   5.677   7.208   9.595
 6798TIP3   OH242028   6.598   7.160   9.988
 6798TIP3    H142029   6.612   7.231  10.051
 6798TIP3    H242030   6.519   7.116  10.025
 6799TIP3   OH242031   7.192   6.354  10.161
 6799TIP3    H142032   7.170   6.392  10.075
 6799TIP3    H242033   7.229   6.267  10.134
 6800TIP3   OH242034   5.935   6.987   9.958
 6800TIP3    H142035   5.958   6.947  10.045
 6800TIP3    H242036   5.850   6.945   9.933
 6801TIP3   OH242037   6.204   5.833   9.551
 6801TIP3    H142038   6.114   5.821   9.514
 6801TIP3    H242039   6.190   5.916   9.600
 6802TIP3   OH242040   6.667   5.799   9.887
 6802TIP3    H142041   6.706   5.759   9.967
 6802TIP3    H242042   6.570   5.789   9.903
 6803TIP3   OH242043   6.992   6.184   9.977
 6803TIP3    H142044   6.941   6.166  10.059
 6803TIP3    H242045   6.978   6.279   9.958
 6804TIP3   OH242046   7.083   6.666   8.570
 6804TIP3    H142047   7.079   6.655   8.474
 6804TIP3    H242048   7.163   6.718   8.579
 6805TIP3   OH242049   6.633   6.058   8.623
 6805TIP3    H142050   6.600   6.052   8.714
 6805TIP3    H242051   6.605   5.970   8.593
 6806TIP3   OH242052   6.214   6.331   9.679
 6806TIP3    H142053   6.140   6.330   9.742
 6806TIP3    H242054   6.209   6.421   9.640
 6807TIP3   OH242055   6.210   6.342   9.163
 6807TIP3    H142056   6.116   6.317   9.150
 6807TIP3    H242057   6.247   6.315   9.076
 6808TIP3   OH242058   6.764   6.392   9.039
 6808TIP3    H142059   6.722   6.474   9.006
 6808TIP3    H242060   6.831   6.376   8.970
 6809TIP3   OH242061   6.673   6.409  10.177
 6809TIP3    H142062   6.617   6.337  10.214
 6809TIP3    H242063   6.751   6.406  10.236
 6810TIP3   OH242064   6.865   6.344   9.326
 6810TIP3    H142065   6.837   6.399   9.251
 6810TIP3    H242066   6.874   6.258   9.280
 6811TIP3   OH242067   5.975   6.355   9.845
 6811TIP3    H142068   5.986   6.394   9.934
 6811TIP3    H242069   5.932   6.271   9.866
 6812TIP3   OH242070   6.333   6.113   8.562
 6812TIP3    H142071   6.275   6.056   8.616
 6812TIP3    H242072   6.272   6.160   8.504
 6813TIP3   OH242073   5.642   6.066   9.244
 6813TIP3    H142074   5.710   6.062   9.314
 6813TIP3    H242075   5.687   6.029   9.166
 6814TIP3   OH242076   5.773   6.141   8.783
 6814TIP3    H142077   5.822   6.199   8.720
 6814TIP3    H242078   5.702   6.203   8.810
 6815TIP3   OH242079   6.785   6.499   9.779
 6815TIP3    H142080   6.824   6.430   9.722
 6815TIP3    H242081   6.738   6.447   9.847
 6816TIP3   OH242082   6.465   6.098   9.265
 6816TIP3    H142083   6.371   6.098   9.293
 6816TIP3    H242084   6.513   6.080   9.346
 6817TIP3   OH242085   5.946   6.252   9.151
 6817TIP3    H142086   5.857   6.268   9.111
 6817TIP3    H242087   5.974   6.169   9.110
 6818TIP3   OH242088   6.310   6.258   8.914
 6818TIP3    H142089   6.405   6.271   8.929
 6818TIP3    H242090   6.286   6.324   8.845
 6819TIP3   OH242091   6.902   6.019   9.587
 6819TIP3    H142092   6.835   6.025   9.658
 6819TIP3    H242093   6.851   5.997   9.508
 6820TIP3   OH242094   6.188   6.355   8.675
 6820TIP3    H142095   6.124   6.347   8.603
 6820TIP3    H242096   6.260   6.403   8.630
 6821TIP3   OH242097   5.993   6.835  10.179
 6821TIP3    H142098   6.067   6.853  10.239
 6821TIP3    H242099   5.916   6.845  10.239
 6822TIP3   OH242100   6.593   6.373   9.453
 6822TIP3    H142101   6.655   6.320   9.401
 6822TIP3    H242102   6.578   6.318   9.531
 6823TIP3   OH242103   6.094   5.987   9.098
 6823TIP3    H142104   6.063   5.895   9.096
 6823TIP3    H242105   6.173   5.981   9.042
 6824TIP3   OH242106   6.457   6.206   9.694
 6824TIP3    H142107   6.375   6.258   9.703
 6824TIP3    H242108   6.513   6.241   9.767
 6825TIP3   OH242109   6.516   6.834   8.868
 6825TIP3    H142110   6.442   6.778   8.833
 6825TIP3    H242111   6.491   6.840   8.962
 6826TIP3   OH242112   7.220   6.754   9.745
 6826TIP3    H142113   7.284   6.772   9.673
 6826TIP3    H242114   7.137   6.751   9.693
 6827TIP3   OH242115   6.901   6.107   8.683
 6827TIP3    H142116   6.807   6.122   8.665
 6827TIP3    H242117   6.928   6.195   8.714
 6828TIP3   OH242118   6.664   6.858   9.985
 6828TIP3    H142119   6.632   6.812  10.064
 6828TIP3    H242120   6.640   6.949  10.001
 6829TIP3   OH242121   6.973   6.302   8.842
 6829TIP3    H142122   7.059   6.291   8.887
 6829TIP3    H242123   6.979   6.389   8.798
 6830TIP3   OH242124   6.027   6.768   9.444
 6830TIP3    H142125   6.094   6.761   9.373
 6830TIP3    H242126   6.033   6.682   9.489
 6831TIP3   OH242127   6.725   6.976   8.771
 6831TIP3    H142128   6.689   7.061   8.804
 6831TIP3    H242129   6.652   6.915   8.789
 6832TIP3   OH242130   5.727   6.608   9.973
 6832TIP3    H142131   5.741   6.558  10.054
 6832TIP3    H242132   5.664   6.549   9.925
 6833TIP3   OH242133   6.426   6.565  10.186
 6833TIP3    H142134   6.397   6.532  10.100
 6833TIP3    H242135   6.518   6.535  10.190
 6834TIP3   OH242136   6.893   7.109   9.977
 6834TIP3    H142137   6.798   7.113   9.961
 6834TIP3    H242138   6.892   7.123  10.075
 6835TIP3   OH242139   7.267   7.185   8.865
 6835TIP3    H142140   7.250   7.098   8.898
 6835TIP3    H242141   7.315   7.178   8.782
 6836TIP3   OH242142   7.006   6.677   9.575
 6836TIP3    H142143   6.912   6.656   9.559
 6836TIP3    H242144   7.053   6.605   9.530
 6837TIP3   OH242145   6.268   7.110   9.178
 6837TIP3    H142146   6.312   7.193   9.160
 6837TIP3    H242147   6.177   7.132   9.152
 6838TIP3   OH242148   5.829   6.598   8.632
 6838TIP3    H142149   5.902   6.652   8.672
 6838TIP3    H242150   5.748   6.631   8.673
 6839TIP3   OH242151   6.408   6.880   9.136
 6839TIP3    H142152   6.376   6.971   9.143
 6839TIP3    H242153   6.335   6.832   9.179
 6840TIP3   OH242154   6.467   7.274   9.751
 6840TIP3    H142155   6.492   7.367   9.744
 6840TIP3    H242156   6.509   7.253   9.837
 6841TIP3   OH242157   6.241   0.027   9.054
 6841TIP3    H142158   6.158   0.040   9.100
 6841TIP3    H242159   6.295   0.093   9.105
 6842TIP3   OH242160   6.805   6.897   9.738
 6842TIP3    H142161   6.770   6.876   9.827
 6842TIP3    H242162   6.867   6.824   9.720
 6843TIP3   OH242163   7.034   6.994   8.651
 6843TIP3    H142164   7.062   6.956   8.736
 6843TIP3    H242165   6.938   6.987   8.657
 6844TIP3   OH242166   7.083   7.355   9.988
 6844TIP3    H142167   7.014   7.305   9.941
 6844TIP3    H242168   7.101   7.428   9.926
 6845TIP3   OH242169   5.890   6.080   9.922
 6845TIP3    H142170   5.800   6.118   9.925
 6845TIP3    H242171   5.882   6.000   9.975
 6846TIP3   OH242172   7.115   6.861   8.870
 6846TIP3    H142173   7.089   6.784   8.927
 6846TIP3    H242174   7.207   6.874   8.896
 6847TIP3   OH242175   5.852   7.256   9.768
 6847TIP3    H142176   5.883   7.165   9.771
 6847TIP3    H242177   5.873   7.291   9.856
 6848TIP3   OH242178   6.326   7.069   8.740
 6848TIP3    H142179   6.354   7.012   8.813
 6848TIP3    H242180   6.338   7.159   8.774
 6849TIP3   OH242181   5.953   6.799   8.820
 6849TIP3    H142182   5.892   6.858   8.867
 6849TIP3    H242183   6.017   6.855   8.772
 6850TIP3   OH242184   6.762   6.057   9.821
 6850TIP3    H142185   6.836   6.065   9.884
 6850TIP3    H242186   6.726   5.970   9.843
 6851TIP3   OH242187   6.839   6.015   8.931
 6851TIP3    H142188   6.863   6.062   8.849
 6851TIP3    H242189   6.896   6.059   8.995
 6852TIP3   OH242190   6.607   7.233   8.817
 6852TIP3    H142191   6.522   7.279   8.817
 6852TIP3    H242192   6.659   7.281   8.749
 6853TIP3   OH242193   6.561   6.190   9.011
 6853TIP3    H142194   6.639   6.249   9.014
 6853TIP3    H242195   6.534   6.180   9.104
 6854TIP3   OH242196   6.619   6.294   9.928
 6854TIP3    H142197   6.628   6.351  10.007
 6854TIP3    H242198   6.684   6.224   9.939
 6855TIP3   OH242199   6.643   5.897   9.098
 6855TIP3    H142200   6.615   5.961   9.165
 6855TIP3    H242201   6.714   5.950   9.055
 6856TIP3   OH242202   6.353   0.001   8.808
 6856TIP3    H142203   6.360   0.086   8.766
 6856TIP3    H242204   6.317   0.023   8.897
 6857TIP3   OH242205   6.212   6.005   8.777
 6857TIP3    H142206   6.207   6.098   8.809
 6857TIP3    H242207   6.304   5.984   8.802
 6858TIP3   OH242208   7.230   6.073  10.007
 6858TIP3    H142209   7.141   6.113  10.002
 6858TIP3    H242210   7.263   6.085   9.918
 6859TIP3   OH242211   7.098   6.460   9.422
 6859TIP3    H142212   7.015   6.418   9.390
 6859TIP3    H242213   7.137   6.386   9.470
 6860TIP3   OH242214   6.036   7.050   8.677
 6860TIP3    H142215   6.102   7.114   8.705
 6860TIP3    H242216   6.087   7.005   8.607
 6861TIP3   OH242217   5.877   6.319   8.595
 6861TIP3    H142218   5.877   6.416   8.608
 6861TIP3    H242219   5.789   6.303   8.560
 6862TIP3   OH242220   5.951   5.797   9.465
 6862TIP3    H142221   5.932   5.799   9.369
 6862TIP3    H242222   5.912   5.711   9.489
 6863TIP3   OH242223   5.857   7.186   9.088
 6863TIP3    H142224   5.767   7.225   9.078
 6863TIP3    H242225   5.893   7.233   9.012
 6864TIP3   OH242226   6.679   7.316   8.576
 6864TIP3    H142227   6.601   7.260   8.559
 6864TIP3    H242228   6.736   7.273   8.509
 6865TIP3   OH242229   6.900   7.162  10.231
 6865TIP3    H142230   6.848   7.093  10.275
 6865TIP3    H242231   6.958   7.191  10.303
 6866TIP3   OH242232   7.102   7.272   8.525
 6866TIP3    H142233   7.128   7.195   8.577
 6866TIP3    H242234   7.182   7.294   8.474
 6867TIP3   OH242235   5.761   6.834  10.307
 6867TIP3    H142236   5.774   6.743  10.275
 6867TIP3    H242237   5.686   6.863  10.251
 6868TIP3   OH242238   6.215   6.893   8.502
 6868TIP3    H142239   6.202   6.812   8.557
 6868TIP3    H242240   6.267   6.849   8.432
 6869TIP3   OH242241   6.441   6.832  10.242
 6869TIP3    H142242   6.392   6.859  10.162
 6869TIP3    H242243   6.435   6.734  10.240
 6870TIP3   OH242244   6.996   6.814   9.980
 6870TIP3    H142245   7.076   6.872   9.976
 6870TIP3    H242246   6.929   6.882   9.990
 6871TIP3   OH242247   6.366   6.637   8.786
 6871TIP3    H142248   6.272   6.622   8.810
 6871TIP3    H242249   6.352   6.605   8.693
 6872TIP3   OH242250   6.241   6.446   9.980
 6872TIP3    H142251   6.184   6.519  10.011
 6872TIP3    H242252   6.281   6.485   9.900
 6873TIP3   OH242253   6.421   6.488   8.568
 6873TIP3    H142254   6.411   6.475   8.473
 6873TIP3    H242255   6.517   6.500   8.582
 6874TIP3   OH242256   6.745   6.706  10.317
 6874TIP3    H142257   6.841   6.706  10.307
 6874TIP3    H242258   6.729   6.630  10.374
 6875TIP3   OH242259   6.285   6.185  10.085
 6875TIP3    H142260   6.290   6.115  10.018
 6875TIP3    H242261   6.276   6.266  10.031
 6876TIP3   OH242262   6.323   6.025   9.843
 6876TIP3    H142263   6.373   6.071   9.772
 6876TIP3    H242264   6.233   6.017   9.804
 6877TIP3   OH242265   6.475   6.573   9.864
 6877TIP3    H142266   6.552   6.558   9.808
 6877TIP3    H242267   6.440   6.658   9.834
 6878TIP3   OH242268   6.913   6.350  10.361
 6878TIP3    H142269   6.942   6.258  10.360
 6878TIP3    H242270   7.000   6.392  10.362
 6879TIP3   OH242271   7.042   6.627  10.175
 6879TIP3    H142272   7.023   6.703  10.118
 6879TIP3    H242273   7.140   6.627  10.167
 6880TIP3   OH242274   6.123   6.313  10.272
 6880TIP3    H142275   6.050   6.251  10.260
 6880TIP3    H242276   6.193   6.274  10.217
 6881TIP3   OH242277   6.401   5.768   9.879
 6881TIP3    H142278   6.382   5.865   9.870
 6881TIP3    H242279   6.325   5.731   9.830
 6882TIP3   OH242280   6.531   6.190  10.241
 6882TIP3    H142281   6.495   6.192  10.329
 6882TIP3    H242282   6.449   6.184  10.187
 6883TIP3   OH242283   6.796   6.112  10.151
 6883TIP3    H142284   6.701   6.120  10.167
 6883TIP3    H242285   6.829   6.051  10.220
 6884TIP3   OH242286   6.958   5.978  10.347
 6884TIP3    H142287   6.953   5.880  10.346
 6884TIP3    H242288   6.935   6.004  10.437
 6885TIP3   OH242289   5.936   6.104  10.252
 6885TIP3    H142290   5.958   6.030  10.193
 6885TIP3    H242291   5.932   6.061  10.340
 6886TIP3   OH242292   6.424   5.705  10.154
 6886TIP3    H142293   6.492   5.637  10.144
 6886TIP3    H242294   6.409   5.725  10.059
 6887TIP3   OH242295   5.762   7.017   8.627
 6887TIP3    H142296   5.858   7.028   8.648
 6887TIP3    H242297   5.770   6.957   8.552
 6888TIP3   OH242298   5.710   7.368   9.310
 6888TIP3    H142299   5.680   7.279   9.333
 6888TIP3    H242300   5.739   7.402   9.395
 6889TIP3   OH242301   7.255   6.998  10.351
 6889TIP3    H142302   7.180   6.975  10.408
 6889TIP3    H242303   7.310   7.053  10.410
 6890TIP3   OH242304   7.271   7.178   9.831
 6890TIP3    H142305   7.204   7.218   9.888
 6890TIP3    H242306   7.219   7.140   9.756
 6891TIP3   OH242307   7.300   6.329   8.591
 6891TIP3    H142308   7.322   6.393   8.521
 6891TIP3    H242309   7.284   6.245   8.545
 6892TIP3   OH242310   7.189   6.475   9.157
 6892TIP3    H142311   7.204   6.379   9.160
 6892TIP3    H242312   7.188   6.496   9.252
 6893TIP3   OH242313   5.727   6.678   9.560
 6893TIP3    H142314   5.744   6.669   9.463
 6893TIP3    H242315   5.816   6.660   9.595
 6894TIP3   OH242316  -0.041   6.669  10.148
 6894TIP3    H142317   0.018   6.592  10.151
 6894TIP3    H242318   0.016   6.742  10.119
 6895TIP3   OH242319   7.225   6.076   8.505
 6895TIP3    H142320   7.290   6.030   8.561
 6895TIP3    H242321   7.144   6.027   8.521
 6896TIP3   OH242322   7.190   6.224   8.989
 6896TIP3    H142323   7.219   6.138   9.024
 6896TIP3    H242324   7.270   6.260   8.950
 6897TIP3   OH242325   7.216   6.230   9.539
 6897TIP3    H142326   7.310   6.242   9.521
 6897TIP3    H242327   7.217   6.280   9.622
 6898TIP3   OH242328   7.260   6.355   9.836
 6898TIP3    H142329   7.171   6.386   9.858
 6898TIP3    H242330   7.301   6.432   9.792
 6899TIP3   OH242331   5.686   6.207  10.174
 6899TIP3    H142332   5.779   6.186  10.195
 6899TIP3    H242333   5.642   6.125  10.204
 6900TIP3   OH242334   7.179   5.936   9.058
 6900TIP3    H142335   7.267   5.909   9.091
 6900TIP3    H242336   7.175   5.882   8.976
 6901TIP3   OH242337   5.807   6.036   9.463
 6901TIP3    H142338   5.857   5.954   9.484
 6901TIP3    H242339   5.863   6.105   9.499
 6902TIP3   OH242340   5.636   6.337   9.564
 6902TIP3    H142341   5.693   6.312   9.488
 6902TIP3    H242342   5.684   6.417   9.591
 6903TIP3   OH242343   5.672   5.962   8.969
 6903TIP3    H142344   5.577   5.982   8.958
 6903TIP3    H242345   5.714   6.013   8.897
 6904TIP3   OH242346   5.659   5.823   9.795
 6904TIP3    H142347   5.610   5.818   9.879
 6904TIP3    H242348   5.628   5.903   9.749
 6905TIP3   OH242349   5.887   7.152  10.218
 6905TIP3    H142350   5.803   7.171  10.171
 6905TIP3    H242351   5.857   7.141  10.309
 6906TIP3   OH242352   6.185   7.248   9.851
 6906TIP3    H142353   6.141   7.325   9.813
 6906TIP3    H242354   6.273   7.251   9.810
 6907TIP3   OH242355   6.072   7.295   9.384
 6907TIP3    H142356   6.058   7.208   9.424
 6907TIP3    H242357   6.149   7.320   9.442
 6908TIP3   OH242358   6.291   7.300   9.512
 6908TIP3    H142359   6.354   7.239   9.469
 6908TIP3    H242360   6.337   7.339   9.587
 6909TIP3   OH242361   6.683   5.922   9.405
 6909TIP3    H142362   6.616   5.858   9.433
 6909TIP3    H242363   6.739   5.868   9.347
 6910TIP3   OH242364   7.199   5.725   9.414
 6910TIP3    H142365   7.253   5.790   9.369
 6910TIP3    H242366   7.109   5.759   9.392
 6911TIP3   OH242367   5.921   5.784   9.190
 6911TIP3    H142368   5.841   5.765   9.137
 6911TIP3    H242369   5.966   5.698   9.184
 6912TIP3   OH242370   5.794   5.760   8.761
 6912TIP3    H142371   5.846   5.824   8.708
 6912TIP3    H242372   5.741   5.818   8.818
 6913TIP3   OH242373   6.367   5.777   9.169
 6913TIP3    H142374   6.457   5.813   9.161
 6913TIP3    H242375   6.364   5.755   9.262
 6914TIP3   OH242376   6.944   5.775   9.329
 6914TIP3    H142377   6.935   5.791   9.234
 6914TIP3    H242378   6.900   5.688   9.343
 6915TIP3   OH242379   7.057   5.776   8.889
 6915TIP3    H142380   6.986   5.841   8.884
 6915TIP3    H242381   7.013   5.693   8.920
 6916TIP3   OH242382   5.766  -0.008   8.901
 6916TIP3    H142383   5.729  -0.008   8.810
 6916TIP3    H242384   5.797   0.082   8.905
 6917TIP3   OH242385   5.979   5.947   8.613
 6917TIP3    H142386   6.035   5.889   8.562
 6917TIP3    H242387   6.044   5.988   8.673
 6918TIP3   OH242388   6.483   5.979   8.854
 6918TIP3    H142389   6.510   5.922   8.928
 6918TIP3    H242390   6.490   6.066   8.900
 6919TIP3   OH242391   5.908   5.839  10.136
 6919TIP3    H142392   5.872   5.759  10.180
 6919TIP3    H242393   6.000   5.834  10.170
 6920TIP3   OH242394   6.111   5.776  10.301
 6920TIP3    H142395   6.199   5.744  10.272
 6920TIP3    H242396   6.073   5.694  10.339
 6921TIP3   OH242397   6.951   5.706  10.310
 6921TIP3    H142398   6.961   5.665  10.399
 6921TIP3    H242399   7.043   5.703  10.276
 6922TIP3   OH242400   7.267   7.309  10.193
 6922TIP3    H142401   7.197   7.290  10.126
 6922TIP3    H242402   7.266   7.405  10.195
 6923TIP3   OH242403   0.654   0.455  10.425
 6923TIP3    H142404   0.620   0.390  10.489
 6923TIP3    H242405   0.584   0.468  10.361
 6924TIP3   OH242406   0.102   0.476  10.661
 6924TIP3    H142407   0.160   0.542  10.619
 6924TIP3    H242408   0.040   0.536  10.704
 6925TIP3   OH242409   0.520   0.719  10.554
 6925TIP3    H142410   0.475   0.675  10.484
 6925TIP3    H242411   0.605   0.735  10.514
 6926TIP3   OH242412   1.065   1.323  10.648
 6926TIP3    H142413   1.037   1.404  10.692
 6926TIP3    H242414   0.999   1.260  10.677
 6927TIP3   OH242415   0.180   0.946  10.515
 6927TIP3    H142416   0.242   1.003  10.568
 6927TIP3    H242417   0.098   0.972  10.559
 6928TIP3   OH242418   0.311   1.130  10.663
 6928TIP3    H142419   0.256   1.166  10.734
 6928TIP3    H242420   0.376   1.203  10.654
 6929TIP3   OH242421   0.373   1.402  10.545
 6929TIP3    H142422   0.440   1.452  10.596
 6929TIP3    H242423   0.433   1.343  10.496
 6930TIP3   OH242424   0.189   0.679  10.536
 6930TIP3    H142425   0.201   0.775  10.521
 6930TIP3    H242426   0.111   0.654  10.482
 6931TIP3   OH242427   0.993   1.639  10.390
 6931TIP3    H142428   0.925   1.580  10.425
 6931TIP3    H242429   1.066   1.580  10.369
 6932TIP3   OH242430   1.451   1.621  10.412
 6932TIP3    H142431   1.476   1.541  10.459
 6932TIP3    H242432   1.525   1.635  10.352
 6933TIP3   OH242433   1.083   1.321  10.372
 6933TIP3    H142434   1.055   1.332  10.465
 6933TIP3    H242435   1.063   1.226  10.358
 6934TIP3   OH242436   0.108   1.372  10.496
 6934TIP3    H142437   0.199   1.374  10.534
 6934TIP3    H242438   0.117   1.293  10.441
 6935TIP3   OH242439   1.582   0.410  10.386
 6935TIP3    H142440   1.637   0.374  10.455
 6935TIP3    H242441   1.492   0.378  10.400
 6936TIP3   OH242442   0.181   0.111  10.653
 6936TIP3    H142443   0.194   0.180  10.590
 6936TIP3    H242444   0.107   0.144  10.708
 6937TIP3   OH242445   0.334   0.312  10.487
 6937TIP3    H142446   0.377   0.233  10.446
 6937TIP3    H242447   0.384   0.322  10.569
 6938TIP3   OH242448   3.177   1.790  10.561
 6938TIP3    H142449   3.229   1.721  10.517
 6938TIP3    H242450   3.187   1.767  10.654
 6939TIP3   OH242451   3.289   1.022  10.442
 6939TIP3    H142452   3.302   0.986  10.351
 6939TIP3    H242453   3.383   1.039  10.461
 6940TIP3   OH242454   2.544   0.437  10.414
 6940TIP3    H142455   2.506   0.400  10.494
 6940TIP3    H242456   2.474   0.486  10.371
 6941TIP3   OH242457   2.062   0.933  10.537
 6941TIP3    H142458   2.131   0.995  10.565
 6941TIP3    H242459   1.981   0.984  10.547
 6942TIP3   OH242460   3.263   1.342  10.532
 6942TIP3    H142461   3.300   1.300  10.611
 6942TIP3    H242462   3.168   1.328  10.542
 6943TIP3   OH242463   2.571   1.683  10.696
 6943TIP3    H142464   2.585   1.764  10.649
 6943TIP3    H242465   2.553   1.711  10.787
 6944TIP3   OH242466   2.870   1.639  10.387
 6944TIP3    H142467   2.812   1.575  10.432
 6944TIP3    H242468   2.948   1.585  10.372
 6945TIP3   OH242469   2.423   1.206  10.391
 6945TIP3    H142470   2.440   1.133  10.452
 6945TIP3    H242471   2.503   1.198  10.336
 6946TIP3   OH242472   2.652   0.838  10.457
 6946TIP3    H142473   2.628   0.816  10.365
 6946TIP3    H242474   2.746   0.837  10.457
 6947TIP3   OH242475   2.025   0.107  10.649
 6947TIP3    H142476   2.075   0.170  10.596
 6947TIP3    H242477   1.960   0.160  10.696
 6948TIP3   OH242478   2.211   0.302  10.501
 6948TIP3    H142479   2.261   0.239  10.444
 6948TIP3    H242480   2.279   0.328  10.565
 6949TIP3   OH242481   2.194   1.790  10.440
 6949TIP3    H142482   2.173   1.820  10.530
 6949TIP3    H242483   2.276   1.739  10.458
 6950TIP3   OH242484   5.377   0.073  10.621
 6950TIP3    H142485   5.316   0.090  10.692
 6950TIP3    H242486   5.437   0.148  10.623
 6951TIP3   OH242487   5.526   1.531  10.481
 6951TIP3    H142488   5.541   1.617  10.520
 6951TIP3    H242489   5.613   1.491  10.498
 6952TIP3   OH242490   4.752   0.397  10.502
 6952TIP3    H142491   4.708   0.404  10.589
 6952TIP3    H242492   4.712   0.314  10.473
 6953TIP3   OH242493   5.151   1.339  10.529
 6953TIP3    H142494   5.180   1.307  10.614
 6953TIP3    H242495   5.055   1.338  10.540
 6954TIP3   OH242496   4.561   1.456  10.383
 6954TIP3    H142497   4.573   1.383  10.319
 6954TIP3    H242498   4.527   1.403  10.455
 6955TIP3   OH242499   3.985   0.662  10.462
 6955TIP3    H142500   3.990   0.748  10.508
 6955TIP3    H242501   3.892   0.648  10.454
 6956TIP3   OH242502   5.224   1.625  10.411
 6956TIP3    H142503   5.244   1.544  10.460
 6956TIP3    H242504   5.301   1.633  10.353
 6957TIP3   OH242505   4.319   1.215  10.404
 6957TIP3    H142506   4.313   1.129  10.449
 6957TIP3    H242507   4.382   1.197  10.332
 6958TIP3   OH242508   4.859   1.314  10.376
 6958TIP3    H142509   4.822   1.336  10.461
 6958TIP3    H242510   4.831   1.222  10.359
 6959TIP3   OH242511   3.879   1.351  10.510
 6959TIP3    H142512   3.971   1.377  10.529
 6959TIP3    H242513   3.885   1.296  10.429
 6960TIP3   OH242514   6.697   0.815  10.511
 6960TIP3    H142515   6.767   0.821  10.579
 6960TIP3    H242516   6.735   0.748  10.453
 6961TIP3   OH242517   6.927   0.899  10.677
 6961TIP3    H142518   6.986   0.920  10.751
 6961TIP3    H242519   6.966   0.948  10.602
 6962TIP3   OH242520   7.263   0.077  10.634
 6962TIP3    H142521   7.192   0.094  10.699
 6962TIP3    H242522   7.309   0.160  10.623
 6963TIP3   OH242523   7.068   1.014  10.445
 6963TIP3    H142524   7.071   0.982  10.352
 6963TIP3    H242525   7.159   1.042  10.455
 6964TIP3   OH242526   6.622   0.399  10.495
 6964TIP3    H142527   6.606   0.402  10.590
 6964TIP3    H242528   6.598   0.308  10.471
 6965TIP3   OH242529   6.315   0.442  10.418
 6965TIP3    H142530   6.270   0.397  10.489
 6965TIP3    H242531   6.244   0.480  10.365
 6966TIP3   OH242532   6.173   0.716  10.559
 6966TIP3    H142533   6.132   0.679  10.480
 6966TIP3    H242534   6.260   0.738  10.521
 6967TIP3   OH242535   6.903   0.464  10.562
 6967TIP3    H142536   6.807   0.472  10.552
 6967TIP3    H242537   6.930   0.547  10.600
 6968TIP3   OH242538   6.725   1.323  10.645
 6968TIP3    H142539   6.697   1.401  10.694
 6968TIP3    H242540   6.659   1.257  10.673
 6969TIP3   OH242541   7.103   1.615  10.415
 6969TIP3    H142542   7.142   1.545  10.467
 6969TIP3    H242543   7.176   1.637  10.354
 6970TIP3   OH242544   6.198   1.210  10.390
 6970TIP3    H142545   6.209   1.139  10.455
 6970TIP3    H242546   6.275   1.196  10.333
 6971TIP3   OH242547   6.749   1.317  10.374
 6971TIP3    H142548   6.703   1.326  10.460
 6971TIP3    H242549   6.714   1.226  10.353
 6972TIP3   OH242550   6.313   1.009  10.633
 6972TIP3    H142551   6.268   0.954  10.696
 6972TIP3    H242552   6.348   0.944  10.569
 6973TIP3   OH242553   6.416   0.828  10.457
 6973TIP3    H142554   6.404   0.822  10.360
 6973TIP3    H242555   6.513   0.838  10.464
 6974TIP3   OH242556   7.278   0.673  10.469
 6974TIP3    H142557   7.308   0.735  10.403
 6974TIP3    H242558   7.279   0.586  10.423
 6975TIP3   OH242559   7.242   0.416  10.389
 6975TIP3    H142560   7.288   0.369  10.459
 6975TIP3    H242561   7.152   0.376  10.397
 6976TIP3   OH242562   5.984   0.293  10.481
 6976TIP3    H142563   6.042   0.233  10.432
 6976TIP3    H242564   6.038   0.321  10.557
 6977TIP3   OH242565   5.976   1.793  10.442
 6977TIP3    H142566   5.944   1.825  10.528
 6977TIP3    H242567   6.051   1.737  10.465
 6978TIP3   OH242568   1.046   2.700  10.512
 6978TIP3    H142569   1.119   2.707  10.576
 6978TIP3    H242570   1.085   2.640  10.447
 6979TIP3   OH242571   1.766   3.401  10.470
 6979TIP3    H142572   1.758   3.487  10.518
 6979TIP3    H242573   1.852   3.372  10.504
 6980TIP3   OH242574   0.661   2.320  10.413
 6980TIP3    H142575   0.616   2.286  10.492
 6980TIP3    H242576   0.589   2.369  10.370
 6981TIP3   OH242577   1.371   3.221  10.525
 6981TIP3    H142578   1.412   3.198  10.610
 6981TIP3    H242579   1.279   3.218  10.547
 6982TIP3   OH242580   1.824   3.671  10.553
 6982TIP3    H142581   1.898   3.731  10.541
 6982TIP3    H242582   1.754   3.726  10.589
 6983TIP3   OH242583   0.791   3.340  10.382
 6983TIP3    H142584   0.799   3.267  10.318
 6983TIP3    H242585   0.750   3.292  10.454
 6984TIP3   OH242586   0.556   2.240  10.656
 6984TIP3    H142587   0.548   2.330  10.690
 6984TIP3    H242588   0.644   2.211  10.684
 6985TIP3   OH242589   0.378   3.283  10.554
 6985TIP3    H142590   0.443   3.341  10.595
 6985TIP3    H242591   0.434   3.229  10.496
 6986TIP3   OH242592   0.537   3.094  10.399
 6986TIP3    H142593   0.556   3.017  10.455
 6986TIP3    H242594   0.610   3.083  10.334
 6987TIP3   OH242595   0.766   2.718  10.458
 6987TIP3    H142596   0.744   2.711  10.364
 6987TIP3    H242597   0.862   2.726  10.461
 6988TIP3   OH242598   0.116   3.253  10.513
 6988TIP3    H142599   0.211   3.260  10.535
 6988TIP3    H242600   0.114   3.186  10.443
 6989TIP3   OH242601   0.326   2.186  10.497
 6989TIP3    H142602   0.384   2.128  10.445
 6989TIP3    H242603   0.391   2.220  10.562
 6990TIP3   OH242604   1.011   3.697  10.581
 6990TIP3    H142605   1.097   3.741  10.571
 6990TIP3    H242606   0.990   3.672  10.493
 6991TIP3   OH242607   3.297   2.900  10.441
 6991TIP3    H142608   3.302   2.871  10.348
 6991TIP3    H242609   3.387   2.930  10.460
 6992TIP3   OH242610   3.699   2.545  10.702
 6992TIP3    H142611   3.634   2.514  10.636
 6992TIP3    H242612   3.695   2.639  10.681
 6993TIP3   OH242613   2.063   2.827  10.529
 6993TIP3    H142614   2.129   2.888  10.566
 6993TIP3    H242615   1.978   2.864  10.553
 6994TIP3   OH242616   3.263   3.232  10.530
 6994TIP3    H142617   3.299   3.184  10.605
 6994TIP3    H242618   3.169   3.212  10.532
 6995TIP3   OH242619   2.684   3.339  10.383
 6995TIP3    H142620   2.686   3.264  10.321
 6995TIP3    H242621   2.636   3.298  10.458
 6996TIP3   OH242622   2.566   3.295  10.626
 6996TIP3    H142623   2.579   3.240  10.705
 6996TIP3    H242624   2.566   3.386  10.662
 6997TIP3   OH242625   2.575   3.562  10.696
 6997TIP3    H142626   2.588   3.645  10.646
 6997TIP3    H242627   2.554   3.599  10.783
 6998TIP3   OH242628   2.263   3.287  10.552
 6998TIP3    H142629   2.331   3.341  10.594
 6998TIP3    H242630   2.320   3.231  10.498
 6999TIP3   OH242631   2.098   2.545  10.468
 6999TIP3    H142632   2.093   2.638  10.497
 6999TIP3    H242633   2.007   2.525  10.448
 7000TIP3   OH242634   2.878   3.524  10.392
 7000TIP3    H142635   2.810   3.459  10.417
 7000TIP3    H242636   2.953   3.467  10.367
 7001TIP3   OH242637   3.332   3.498  10.412
 7001TIP3    H142638   3.364   3.425  10.466
 7001TIP3    H242639   3.407   3.524  10.357
 7002TIP3   OH242640   2.972   3.203  10.381
 7002TIP3    H142641   2.925   3.214  10.463
 7002TIP3    H242642   2.947   3.110  10.358
 7003TIP3   OH242643   2.652   2.699  10.456
 7003TIP3    H142644   2.626   2.713  10.362
 7003TIP3    H242645   2.741   2.732  10.457
 7004TIP3   OH242646   3.585   2.947  10.398
 7004TIP3    H142647   3.565   2.913  10.311
 7004TIP3    H242648   3.594   3.044  10.385
 7005TIP3   OH242649   1.989   3.247  10.504
 7005TIP3    H142650   2.083   3.260  10.532
 7005TIP3    H242651   1.998   3.179  10.436
 7006TIP3   OH242652   3.555   2.555  10.469
 7006TIP3    H142653   3.545   2.626  10.405
 7006TIP3    H242654   3.519   2.477  10.424
 7007TIP3   OH242655   3.462   2.304  10.390
 7007TIP3    H142656   3.524   2.258  10.451
 7007TIP3    H242657   3.380   2.256  10.403
 7008TIP3   OH242658   3.668   2.193  10.538
 7008TIP3    H142659   3.707   2.112  10.497
 7008TIP3    H242660   3.744   2.250  10.549
 7009TIP3   OH242661   2.909   3.704  10.585
 7009TIP3    H142662   2.989   3.753  10.562
 7009TIP3    H242663   2.882   3.665  10.500
 7010TIP3   OH242664   2.195   3.682  10.441
 7010TIP3    H142665   2.172   3.705  10.532
 7010TIP3    H242666   2.275   3.628  10.457
 7011TIP3   OH242667   5.187   2.891  10.442
 7011TIP3    H142668   5.186   2.871  10.346
 7011TIP3    H242669   5.267   2.937  10.457
 7012TIP3   OH242670   4.293   2.606  10.557
 7012TIP3    H142671   4.235   2.567  10.489
 7012TIP3    H242672   4.371   2.627  10.508
 7013TIP3   OH242673   5.091   2.521  10.720
 7013TIP3    H142674   5.174   2.517  10.771
 7013TIP3    H242675   5.094   2.611  10.685
 7014TIP3   OH242676   4.830   3.209  10.638
 7014TIP3    H142677   4.808   3.290  10.686
 7014TIP3    H242678   4.777   3.143  10.683
 7015TIP3   OH242679   3.952   2.824  10.533
 7015TIP3    H142680   4.012   2.892  10.566
 7015TIP3    H242681   3.864   2.861  10.546
 7016TIP3   OH242682   5.154   3.228  10.533
 7016TIP3    H142683   5.177   3.184  10.616
 7016TIP3    H242684   5.057   3.217  10.539
 7017TIP3   OH242685   4.327   2.239  10.652
 7017TIP3    H142686   4.314   2.324  10.697
 7017TIP3    H242687   4.411   2.209  10.688
 7018TIP3   OH242688   4.156   3.280  10.564
 7018TIP3    H142689   4.217   3.349  10.592
 7018TIP3    H242690   4.201   3.238  10.490
 7019TIP3   OH242691   3.989   2.549  10.473
 7019TIP3    H142692   3.982   2.643  10.500
 7019TIP3    H242693   3.898   2.524  10.453
 7020TIP3   OH242694   5.220   3.502  10.412
 7020TIP3    H142695   5.246   3.423  10.460
 7020TIP3    H242696   5.294   3.524  10.355
 7021TIP3   OH242697   4.852   3.204  10.370
 7021TIP3    H142698   4.828   3.216  10.465
 7021TIP3    H242699   4.831   3.109  10.357
 7022TIP3   OH242700   4.520   3.793  10.565
 7022TIP3    H142701   4.618   3.796  10.570
 7022TIP3    H242702   4.507   3.848  10.487
 7023TIP3   OH242703   5.432   2.561  10.473
 7023TIP3    H142704   5.429   2.623  10.402
 7023TIP3    H242705   5.408   2.476  10.430
 7024TIP3   OH242706   5.334   2.318  10.407
 7024TIP3    H142707   5.409   2.267  10.441
 7024TIP3    H242708   5.261   2.255  10.404
 7025TIP3   OH242709   3.912   1.996  10.650
 7025TIP3    H142710   3.959   2.057  10.594
 7025TIP3    H242711   3.847   2.046  10.698
 7026TIP3   OH242712   4.097   2.182  10.502
 7026TIP3    H142713   4.150   2.125  10.443
 7026TIP3    H242714   4.165   2.217  10.563
 7027TIP3   OH242715   4.084   3.683  10.441
 7027TIP3    H142716   4.052   3.705  10.528
 7027TIP3    H242717   4.160   3.624  10.454
 7028TIP3   OH242718   6.698   2.701  10.506
 7028TIP3    H142719   6.760   2.705  10.581
 7028TIP3    H242720   6.743   2.636  10.451
 7029TIP3   OH242721   6.945   3.671  10.564
 7029TIP3    H142722   6.999   3.604  10.516
 7029TIP3    H242723   6.963   3.652  10.657
 7030TIP3   OH242724   7.073   2.894  10.447
 7030TIP3    H142725   7.073   2.871  10.351
 7030TIP3    H242726   7.157   2.938  10.455
 7031TIP3   OH242727   6.628   2.284  10.503
 7031TIP3    H142728   6.603   2.282  10.597
 7031TIP3    H242729   6.607   2.194  10.476
 7032TIP3   OH242730   5.762   2.370  10.660
 7032TIP3    H142731   5.819   2.432  10.613
 7032TIP3    H242732   5.695   2.423  10.705
 7033TIP3   OH242733   6.176   2.610  10.554
 7033TIP3    H142734   6.125   2.563  10.487
 7033TIP3    H242735   6.260   2.632  10.512
 7034TIP3   OH242736   6.899   2.331  10.562
 7034TIP3    H142737   6.805   2.353  10.557
 7034TIP3    H242738   6.931   2.414  10.608
 7035TIP3   OH242739   6.972   2.525  10.712
 7035TIP3    H142740   7.051   2.524  10.770
 7035TIP3    H242741   6.983   2.616  10.686
 7036TIP3   OH242742   7.038   3.223  10.533
 7036TIP3    H142743   7.066   3.191  10.620
 7036TIP3    H242744   6.942   3.218  10.543
 7037TIP3   OH242745   6.033   3.277  10.560
 7037TIP3    H142746   6.093   3.347  10.592
 7037TIP3    H242747   6.090   3.234  10.493
 7038TIP3   OH242748   5.873   2.552  10.460
 7038TIP3    H142749   5.867   2.638  10.504
 7038TIP3    H242750   5.781   2.524  10.450
 7039TIP3   OH242751   7.100   3.502  10.410
 7039TIP3    H142752   7.134   3.430  10.465
 7039TIP3    H242753   7.179   3.523  10.357
 7040TIP3   OH242754   6.198   3.098  10.398
 7040TIP3    H142755   6.206   3.018  10.451
 7040TIP3    H242756   6.270   3.083  10.333
 7041TIP3   OH242757   6.742   3.201  10.378
 7041TIP3    H142758   6.706   3.212  10.465
 7041TIP3    H242759   6.717   3.108  10.357
 7042TIP3   OH242760   6.419   2.700  10.455
 7042TIP3    H142761   6.404   2.716  10.360
 7042TIP3    H242762   6.513   2.726  10.468
 7043TIP3   OH242763   6.408   3.784  10.555
 7043TIP3    H142764   6.499   3.805  10.580
 7043TIP3    H242765   6.391   3.853  10.491
 7044TIP3   OH242766   5.758   3.243  10.512
 7044TIP3    H142767   5.852   3.263  10.531
 7044TIP3    H242768   5.771   3.184  10.435
 7045TIP3   OH242769   7.297   2.559  10.473
 7045TIP3    H142770   7.318   2.618  10.402
 7045TIP3    H242771   7.293   2.474  10.427
 7046TIP3   OH242772   7.238   2.293  10.380
 7046TIP3    H142773   7.291   2.262  10.452
 7046TIP3    H242774   7.149   2.262  10.404
 7047TIP3   OH242775   1.293   5.566  10.564
 7047TIP3    H142776   1.337   5.495  10.513
 7047TIP3    H242777   1.294   5.534  10.654
 7048TIP3   OH242778   0.658   4.208  10.420
 7048TIP3    H142779   0.613   4.168  10.494
 7048TIP3    H242780   0.589   4.254  10.371
 7049TIP3   OH242781   0.130   4.285  10.685
 7049TIP3    H142782   0.152   4.320  10.597
 7049TIP3    H242783   0.035   4.308  10.689
 7050TIP3   OH242784   1.064   5.087  10.650
 7050TIP3    H142785   1.041   5.173  10.688
 7050TIP3    H242786   0.989   5.032  10.674
 7051TIP3   OH242787   1.817   5.556  10.547
 7051TIP3    H142788   1.900   5.604  10.542
 7051TIP3    H242789   1.750   5.613  10.585
 7052TIP3   OH242790   0.795   5.225  10.381
 7052TIP3    H142791   0.800   5.150  10.321
 7052TIP3    H242792   0.748   5.184  10.456
 7053TIP3   OH242793   0.694   5.179  10.625
 7053TIP3    H142794   0.688   5.128  10.705
 7053TIP3    H242795   0.666   5.267  10.655
 7054TIP3   OH242796   0.991   5.412  10.391
 7054TIP3    H142797   0.922   5.348  10.419
 7054TIP3    H242798   1.066   5.355  10.368
 7055TIP3   OH242799   1.445   5.383  10.411
 7055TIP3    H142800   1.486   5.313  10.464
 7055TIP3    H242801   1.522   5.412  10.357
 7056TIP3   OH242802   0.543   4.984  10.396
 7056TIP3    H142803   0.545   4.905  10.452
 7056TIP3    H242804   0.614   4.967  10.333
 7057TIP3   OH242805   1.092   5.087  10.374
 7057TIP3    H142806   1.050   5.107  10.460
 7057TIP3    H242807   1.052   5.001  10.355
 7058TIP3   OH242808   0.666   4.779  10.636
 7058TIP3    H142809   0.607   4.732  10.696
 7058TIP3    H242810   0.680   4.711  10.566
 7059TIP3   OH242811   0.766   4.604  10.459
 7059TIP3    H142812   0.743   4.590  10.365
 7059TIP3    H242813   0.860   4.610  10.455
 7060TIP3   OH242814   0.750   5.670  10.557
 7060TIP3    H142815   0.845   5.681  10.575
 7060TIP3    H242816   0.737   5.739  10.492
 7061TIP3   OH242817   1.584   4.183  10.386
 7061TIP3    H142818   1.643   4.153  10.456
 7061TIP3    H242819   1.502   4.141  10.407
 7062TIP3   OH242820   1.791   4.066  10.547
 7062TIP3    H142821   1.828   3.999  10.487
 7062TIP3    H242822   1.845   4.145  10.541
 7063TIP3   OH242823   0.172   3.878  10.542
 7063TIP3    H142824   0.206   3.962  10.574
 7063TIP3    H242825   0.114   3.872  10.625
 7064TIP3   OH242826   0.338   4.095  10.484
 7064TIP3    H142827   0.370   4.012  10.448
 7064TIP3    H242828   0.384   4.102  10.568
 7065TIP3   OH242829   1.018   5.612  10.576
 7065TIP3    H142830   1.113   5.623  10.561
 7065TIP3    H242831   0.996   5.546  10.507
 7066TIP3   OH242832   2.936   4.598  10.507
 7066TIP3    H142833   3.002   4.589  10.578
 7066TIP3    H242834   2.967   4.525  10.450
 7067TIP3   OH242835   3.639   5.288  10.490
 7067TIP3    H142836   3.652   5.380  10.511
 7067TIP3    H242837   3.731   5.254  10.493
 7068TIP3   OH242838   3.300   4.783  10.446
 7068TIP3    H142839   3.299   4.761  10.350
 7068TIP3    H242840   3.388   4.821  10.457
 7069TIP3   OH242841   2.539   4.204  10.406
 7069TIP3    H142842   2.504   4.165  10.488
 7069TIP3    H242843   2.467   4.251  10.363
 7070TIP3   OH242844   2.415   4.486  10.558
 7070TIP3    H142845   2.364   4.454  10.482
 7070TIP3    H242846   2.495   4.514  10.511
 7071TIP3   OH242847   3.696   4.432  10.702
 7071TIP3    H142848   3.638   4.408  10.629
 7071TIP3    H242849   3.704   4.527  10.682
 7072TIP3   OH242850   3.268   5.114  10.533
 7072TIP3    H142851   3.296   5.072  10.614
 7072TIP3    H242852   3.172   5.099  10.538
 7073TIP3   OH242853   2.681   5.222  10.381
 7073TIP3    H142854   2.686   5.145  10.322
 7073TIP3    H242855   2.634   5.185  10.459
 7074TIP3   OH242856   2.564   5.176  10.623
 7074TIP3    H142857   2.573   5.127  10.705
 7074TIP3    H242858   2.565   5.269  10.657
 7075TIP3   OH242859   2.209   4.903  10.680
 7075TIP3    H142860   2.137   4.944  10.728
 7075TIP3    H242861   2.257   4.981  10.647
 7076TIP3   OH242862   2.839   5.343  10.699
 7076TIP3    H142863   2.756   5.394  10.707
 7076TIP3    H242864   2.888   5.399  10.637
 7077TIP3   OH242865   2.581   5.450  10.697
 7077TIP3    H142866   2.572   5.531  10.642
 7077TIP3    H242867   2.549   5.486  10.781
 7078TIP3   OH242868   2.270   5.164  10.562
 7078TIP3    H142869   2.334   5.230  10.590
 7078TIP3    H242870   2.319   5.120  10.491
 7079TIP3   OH242871   2.881   5.410  10.395
 7079TIP3    H142872   2.808   5.347  10.417
 7079TIP3    H242873   2.952   5.352  10.367
 7080TIP3   OH242874   3.335   5.389  10.416
 7080TIP3    H142875   3.364   5.309  10.462
 7080TIP3    H242876   3.409   5.408  10.356
 7081TIP3   OH242877   2.425   4.982  10.394
 7081TIP3    H142878   2.433   4.904  10.450
 7081TIP3    H242879   2.499   4.969  10.333
 7082TIP3   OH242880   2.974   5.091  10.379
 7082TIP3    H142881   2.930   5.105  10.462
 7082TIP3    H242882   2.949   4.997  10.358
 7083TIP3   OH242883   2.649   4.599  10.458
 7083TIP3    H142884   2.634   4.595  10.361
 7083TIP3    H242885   2.746   4.611  10.460
 7084TIP3   OH242886   3.585   4.837  10.402
 7084TIP3    H142887   3.564   4.798  10.315
 7084TIP3    H242888   3.593   4.933  10.380
 7085TIP3   OH242889   3.701   4.712  10.621
 7085TIP3    H142890   3.651   4.755  10.548
 7085TIP3    H242891   3.701   4.782  10.688
 7086TIP3   OH242892   3.539   4.441  10.475
 7086TIP3    H142893   3.548   4.510  10.408
 7086TIP3    H242894   3.522   4.364  10.420
 7087TIP3   OH242895   2.027   3.875  10.646
 7087TIP3    H142896   2.077   3.936  10.592
 7087TIP3    H242897   1.969   3.929  10.700
 7088TIP3   OH242898   5.187   4.777  10.448
 7088TIP3    H142899   5.186   4.757  10.352
 7088TIP3    H242900   5.272   4.821  10.459
 7089TIP3   OH242901   4.433   4.210  10.413
 7089TIP3    H142902   4.387   4.174  10.491
 7089TIP3    H242903   4.361   4.255  10.365
 7090TIP3   OH242904   4.303   4.474  10.559
 7090TIP3    H142905   4.240   4.457  10.487
 7090TIP3    H242906   4.379   4.512  10.512
 7091TIP3   OH242907   5.010   4.223  10.576
 7091TIP3    H142908   4.920   4.243  10.551
 7091TIP3    H242909   5.051   4.308  10.597
 7092TIP3   OH242910   4.565   5.226  10.386
 7092TIP3    H142911   4.573   5.152  10.322
 7092TIP3    H242912   4.525   5.179  10.461
 7093TIP3   OH242913   4.087   4.908  10.672
 7093TIP3    H142914   4.026   4.943  10.735
 7093TIP3    H242915   4.148   4.979  10.648
 7094TIP3   OH242916   4.152   5.163  10.562
 7094TIP3    H142917   4.215   5.232  10.588
 7094TIP3    H242918   4.203   5.117  10.492
 7095TIP3   OH242919   4.768   5.411  10.390
 7095TIP3    H142920   4.694   5.353  10.420
 7095TIP3    H242921   4.831   5.343  10.370
 7096TIP3   OH242922   4.310   4.986  10.394
 7096TIP3    H142923   4.319   4.908  10.451
 7096TIP3    H242924   4.383   4.969  10.331
 7097TIP3   OH242925   4.856   5.093  10.376
 7097TIP3    H142926   4.819   5.100  10.465
 7097TIP3    H242927   4.834   4.998  10.358
 7098TIP3   OH242928   4.417   4.780  10.626
 7098TIP3    H142929   4.386   4.726  10.699
 7098TIP3    H242930   4.459   4.712  10.572
 7099TIP3   OH242931   4.535   4.592  10.454
 7099TIP3    H142932   4.517   4.596  10.358
 7099TIP3    H242933   4.629   4.614  10.462
 7100TIP3   OH242934   5.473   4.835  10.401
 7100TIP3    H142935   5.450   4.798  10.315
 7100TIP3    H242936   5.480   4.931  10.382
 7101TIP3   OH242937   4.523   5.669  10.559
 7101TIP3    H142938   4.617   5.683  10.578
 7101TIP3    H242939   4.505   5.736  10.493
 7102TIP3   OH242940   3.876   5.135  10.508
 7102TIP3    H142941   3.972   5.140  10.530
 7102TIP3    H242942   3.880   5.064  10.438
 7103TIP3   OH242943   5.348   4.186  10.385
 7103TIP3    H142944   5.407   4.148  10.453
 7103TIP3    H242945   5.264   4.143  10.407
 7104TIP3   OH242946   5.558   4.074  10.543
 7104TIP3    H142947   5.594   3.997  10.493
 7104TIP3    H242948   5.625   4.140  10.549
 7105TIP3   OH242949   4.098   4.068  10.500
 7105TIP3    H142950   4.148   4.009  10.440
 7105TIP3    H242951   4.162   4.104  10.561
 7106TIP3   OH242952   4.792   5.597  10.585
 7106TIP3    H142953   4.874   5.635  10.558
 7106TIP3    H242954   4.762   5.547  10.507
 7107TIP3   OH242955   4.082   5.565  10.444
 7107TIP3    H142956   4.060   5.595  10.533
 7107TIP3    H242957   4.162   5.510  10.457
 7108TIP3   OH242958   6.701   4.588  10.510
 7108TIP3    H142959   6.768   4.590  10.579
 7108TIP3    H242960   6.736   4.519  10.453
 7109TIP3   OH242961   6.958   5.564  10.560
 7109TIP3    H142962   6.999   5.488  10.514
 7109TIP3    H242963   6.955   5.538  10.653
 7110TIP3   OH242964   7.076   4.780  10.448
 7110TIP3    H142965   7.070   4.757  10.352
 7110TIP3    H242966   7.163   4.817  10.453
 7111TIP3   OH242967   6.631   4.168  10.503
 7111TIP3    H142968   6.598   4.172  10.595
 7111TIP3    H242969   6.598   4.081  10.476
 7112TIP3   OH242970   6.162   4.499  10.542
 7112TIP3    H142971   6.127   4.448  10.469
 7112TIP3    H242972   6.255   4.511  10.514
 7113TIP3   OH242973   6.715   5.094  10.639
 7113TIP3    H142974   6.700   5.167  10.701
 7113TIP3    H242975   6.656   5.027  10.678
 7114TIP3   OH242976   5.835   4.705  10.536
 7114TIP3    H142977   5.897   4.775  10.562
 7114TIP3    H242978   5.749   4.748  10.550
 7115TIP3   OH242979   6.964   5.133  10.529
 7115TIP3    H142980   7.024   5.096  10.595
 7115TIP3    H242981   6.880   5.089  10.551
 7116TIP3   OH242982   6.349   5.184  10.626
 7116TIP3    H142983   6.346   5.126  10.702
 7116TIP3    H242984   6.326   5.269  10.664
 7117TIP3   OH242985   5.870   4.427  10.479
 7117TIP3    H142986   5.873   4.524  10.496
 7117TIP3    H242987   5.780   4.415  10.448
 7118TIP3   OH242988   7.104   5.388  10.415
 7118TIP3    H142989   7.135   5.312  10.463
 7118TIP3    H242990   7.179   5.410  10.355
 7119TIP3   OH242991   6.192   4.977  10.394
 7119TIP3    H142992   6.209   4.903  10.453
 7119TIP3    H242993   6.269   4.970  10.335
 7120TIP3   OH242994   6.735   5.093  10.371
 7120TIP3    H142995   6.708   5.101  10.464
 7120TIP3    H242996   6.716   4.997  10.357
 7121TIP3   OH242997   6.420   4.600  10.456
 7121TIP3    H142998   6.406   4.597  10.360
 7121TIP3    H242999   6.517   4.614  10.462
 7122TIP3   OH243000   5.765   5.132  10.508
 7122TIP3    H143001   5.858   5.143  10.531
 7122TIP3    H243002   5.767   5.066  10.436
 7123TIP3   OH243003   7.294   4.446  10.473
 7123TIP3    H143004   7.322   4.505  10.402
 7123TIP3    H243005   7.297   4.359  10.431
 7124TIP3   OH243006   5.972   5.566  10.442
 7124TIP3    H143007   5.944   5.594  10.530
 7124TIP3    H243008   6.047   5.508  10.461
 7125TIP3   OH243009   1.054   6.481  10.504
 7125TIP3    H143010   1.112   6.477  10.583
 7125TIP3    H243011   1.074   6.399  10.460
 7126TIP3   OH243012   1.267   6.561  10.674
 7126TIP3    H143013   1.323   6.572  10.752
 7126TIP3    H243014   1.308   6.610  10.603
 7127TIP3   OH243015   1.758   7.176  10.491
 7127TIP3    H143016   1.773   7.270  10.511
 7127TIP3    H243017   1.848   7.140  10.501
 7128TIP3   OH243018   0.655   6.088  10.413
 7128TIP3    H143019   0.616   6.057  10.495
 7128TIP3    H243020   0.585   6.137  10.369
 7129TIP3   OH243021   0.115   6.146  10.665
 7129TIP3    H143022   0.161   6.209  10.607
 7129TIP3    H243023   0.038   6.198  10.695
 7130TIP3   OH243024   0.523   6.370  10.557
 7130TIP3    H143025   0.468   6.338  10.483
 7130TIP3    H243026   0.605   6.397  10.513
 7131TIP3   OH243027   1.064   6.960  10.631
 7131TIP3    H143028   1.057   7.051  10.669
 7131TIP3    H243029   0.996   6.910  10.675
 7132TIP3   OH243030   1.380   6.991  10.530
 7132TIP3    H143031   1.410   6.964  10.618
 7132TIP3    H243032   1.283   6.991  10.540
 7133TIP3   OH243033   0.787   7.104  10.380
 7133TIP3    H143034   0.798   7.028  10.323
 7133TIP3    H243035   0.747   7.066  10.459
 7134TIP3   OH243036   0.669   7.055  10.627
 7134TIP3    H143037   0.691   7.009  10.708
 7134TIP3    H243038   0.669   7.150  10.649
 7135TIP3   OH243039   1.024   7.230  10.615
 7135TIP3    H143040   0.940   7.255  10.656
 7135TIP3    H243041   1.039   7.321  10.586
 7136TIP3   OH243042   0.583   0.026  10.702
 7136TIP3    H143043   0.652   0.062  10.641
 7136TIP3    H243044   0.635   0.038  10.784
 7137TIP3   OH243045   0.376   7.051  10.564
 7137TIP3    H143046   0.437   7.122  10.593
 7137TIP3    H243047   0.432   7.008  10.497
 7138TIP3   OH243048   0.222   6.316  10.464
 7138TIP3    H143049   0.223   6.405  10.501
 7138TIP3    H243050   0.127   6.297  10.454
 7139TIP3   OH243051   0.996   7.249  10.336
 7139TIP3    H143052   0.937   7.228  10.410
 7139TIP3    H243053   1.081   7.228  10.374
 7140TIP3   OH243054   1.456   7.269  10.418
 7140TIP3    H143055   1.485   7.190  10.466
 7140TIP3    H243056   1.532   7.290  10.361
 7141TIP3   OH243057   1.090   6.972  10.369
 7141TIP3    H143058   1.056   6.990  10.459
 7141TIP3    H243059   1.059   6.881  10.360
 7142TIP3   OH243060   0.763   6.488  10.458
 7142TIP3    H143061   0.744   6.483  10.363
 7142TIP3    H243062   0.860   6.496  10.464
 7143TIP3   OH243063   0.111   7.019  10.518
 7143TIP3    H143064   0.207   7.032  10.535
 7143TIP3    H243065   0.114   6.958  10.443
 7144TIP3   OH243066   0.329   5.959  10.493
 7144TIP3    H143067   0.381   5.893  10.445
 7144TIP3    H243068   0.389   5.987  10.563
 7145TIP3   OH243069   2.930   6.476  10.513
 7145TIP3    H143070   3.001   6.479  10.581
 7145TIP3    H243071   2.959   6.406  10.456
 7146TIP3   OH243072   3.155   6.552  10.673
 7146TIP3    H143073   3.210   6.576  10.749
 7146TIP3    H243074   3.193   6.610  10.603
 7147TIP3   OH243075   3.525   5.733  10.662
 7147TIP3    H143076   3.434   5.749  10.687
 7147TIP3    H243077   3.553   5.813  10.618
 7148TIP3   OH243078   3.641   7.173  10.502
 7148TIP3    H143079   3.650   7.267  10.510
 7148TIP3    H243080   3.733   7.143  10.493
 7149TIP3   OH243081   3.301   6.662  10.449
 7149TIP3    H143082   3.301   6.644  10.353
 7149TIP3    H243083   3.387   6.706  10.458
 7150TIP3   OH243084   2.860   6.055  10.499
 7150TIP3    H143085   2.836   6.054  10.592
 7150TIP3    H243086   2.829   5.967  10.475
 7151TIP3   OH243087   2.410   6.371  10.558
 7151TIP3    H143088   2.355   6.339  10.487
 7151TIP3    H243089   2.490   6.397  10.512
 7152TIP3   OH243090   2.267   7.049  10.560
 7152TIP3    H143091   2.319   7.125  10.594
 7152TIP3    H243092   2.316   7.013  10.486
 7153TIP3   OH243093   2.102   6.319  10.467
 7153TIP3    H143094   2.106   6.409  10.503
 7153TIP3    H243095   2.011   6.295  10.454
 7154TIP3   OH243096   2.874   7.292  10.393
 7154TIP3    H143097   2.816   7.227  10.430
 7154TIP3    H243098   2.955   7.245  10.373
 7155TIP3   OH243099   2.548   6.669  10.640
 7155TIP3    H143100   2.490   6.611  10.692
 7155TIP3    H243101   2.572   6.603  10.570
 7156TIP3   OH243102   2.648   6.482  10.455
 7156TIP3    H143103   2.631   6.483  10.359
 7156TIP3    H243104   2.744   6.499  10.462
 7157TIP3   OH243105   3.585   6.718  10.400
 7157TIP3    H143106   3.564   6.682  10.312
 7157TIP3    H243107   3.597   6.814  10.384
 7158TIP3   OH243108   1.990   7.018  10.505
 7158TIP3    H143109   2.084   7.025  10.533
 7158TIP3    H243110   1.996   6.949  10.437
 7159TIP3   OH243111   5.530   7.170  10.489
 7159TIP3    H143112   5.533   7.265  10.512
 7159TIP3    H243113   5.622   7.141  10.500
 7160TIP3   OH243114   5.181   6.676  10.443
 7160TIP3    H143115   5.186   6.643  10.352
 7160TIP3    H243116   5.273   6.703  10.460
 7161TIP3   OH243117   4.745   6.053  10.504
 7161TIP3    H143118   4.717   6.053  10.596
 7161TIP3    H243119   4.714   5.966  10.473
 7162TIP3   OH243120   4.430   6.094  10.414
 7162TIP3    H143121   4.388   6.056  10.492
 7162TIP3    H243122   4.356   6.137  10.369
 7163TIP3   OH243123   4.294   6.372  10.558
 7163TIP3    H143124   4.241   6.335  10.485
 7163TIP3    H243125   4.375   6.393  10.511
 7164TIP3   OH243126   5.012   6.111  10.576
 7164TIP3    H143127   4.919   6.127  10.552
 7164TIP3    H243128   5.049   6.198  10.599
 7165TIP3   OH243129   4.840   6.976  10.651
 7165TIP3    H143130   4.808   7.061  10.689
 7165TIP3    H243131   4.768   6.916  10.674
 7166TIP3   OH243132   5.153   6.999  10.532
 7166TIP3    H143133   5.180   6.957  10.613
 7166TIP3    H243134   5.057   6.992  10.540
 7167TIP3   OH243135   4.563   7.110  10.380
 7167TIP3    H143136   4.572   7.032  10.322
 7167TIP3    H243137   4.520   7.064  10.453
 7168TIP3   OH243138   4.716   7.217  10.653
 7168TIP3    H143139   4.656   7.265  10.716
 7168TIP3    H243140   4.782   7.287  10.636
 7169TIP3   OH243141   4.374  -0.059  10.692
 7169TIP3    H143142   4.413   0.021  10.657
 7169TIP3    H243143   4.419  -0.040  10.778
 7170TIP3   OH243144   3.987   6.320  10.469
 7170TIP3    H143145   3.982   6.411  10.499
 7170TIP3    H243146   3.895   6.295  10.453
 7171TIP3   OH243147   4.765   7.294  10.399
 7171TIP3    H143148   4.700   7.222  10.414
 7171TIP3    H243149   4.839   7.241  10.367
 7172TIP3   OH243150   5.225   7.269  10.417
 7172TIP3    H143151   5.255   7.191  10.465
 7172TIP3    H243152   5.302   7.288  10.360
 7173TIP3   OH243153   4.851   6.975  10.375
 7173TIP3    H143154   4.824   6.985  10.468
 7173TIP3    H243155   4.833   6.879  10.360
 7174TIP3   OH243156   5.477   6.726  10.396
 7174TIP3    H143157   5.446   6.684  10.314
 7174TIP3    H243158   5.473   6.822  10.376
 7175TIP3   OH243159   5.557   5.955  10.545
 7175TIP3    H143160   5.599   5.882  10.498
 7175TIP3    H243161   5.623   6.025  10.552
 7176TIP3   OH243162   4.100   5.960  10.496
 7176TIP3    H143163   4.147   5.893  10.445
 7176TIP3    H243164   4.161   5.985  10.565
 7177TIP3   OH243165   6.705   6.466  10.511
 7177TIP3    H143166   6.772   6.471  10.580
 7177TIP3    H243167   6.743   6.404  10.448
 7178TIP3   OH243168   5.773   6.141  10.669
 7178TIP3    H143169   5.817   6.201  10.607
 7178TIP3    H243170   5.693   6.188  10.696
 7179TIP3   OH243171   6.729   6.978  10.654
 7179TIP3    H143172   6.692   7.062  10.687
 7179TIP3    H243173   6.656   6.917  10.673
 7180TIP3   OH243174   7.041   6.993  10.533
 7180TIP3    H143175   7.062   6.962  10.620
 7180TIP3    H243176   6.943   6.988  10.538
 7181TIP3   OH243177   6.429   7.105  10.381
 7181TIP3    H143178   6.458   7.032  10.324
 7181TIP3    H243179   6.413   7.058  10.463
 7182TIP3   OH243180   6.587   7.203  10.703
 7182TIP3    H143181   6.521   7.271  10.708
 7182TIP3    H243182   6.651   7.251  10.643
 7183TIP3   OH243183   5.870   6.312  10.475
 7183TIP3    H143184   5.876   6.407  10.495
 7183TIP3    H243185   5.780   6.297  10.446
 7184TIP3   OH243186   6.633   7.253  10.317
 7184TIP3    H143187   6.579   7.241  10.398
 7184TIP3    H243188   6.719   7.252  10.362
 7185TIP3   OH243189   7.113   7.269  10.421
 7185TIP3    H143190   7.138   7.186  10.463
 7185TIP3    H243191   7.186   7.288  10.359
 7186TIP3   OH243192   6.741   6.972  10.372
 7186TIP3    H143193   6.710   6.985  10.463
 7186TIP3    H243194   6.718   6.878  10.361
 7187TIP3   OH243195   5.761   7.029  10.495
 7187TIP3    H143196   5.849   7.026  10.533
 7187TIP3    H243197   5.763   6.952  10.434
 7188TIP3   OH243198   7.305   6.333  10.472
 7188TIP3    H143199   7.310   6.390  10.396
 7188TIP3    H243200   7.281   6.246  10.434
 7189TIP3   OH243201   7.241   6.067  10.378
 7189TIP3    H143202   7.289   6.034  10.454
 7189TIP3    H243203   7.152   6.037  10.404
 7190TIP3   OH243204   5.985   5.956  10.494
 7190TIP3    H143205   6.034   5.892  10.442
 7190TIP3    H243206   6.044   5.981  10.565
   7.34166   7.34166  25.50000
