define                  = -DPOSRES -DPOSRES_FC_LIPID=1000.0 -DDIHRES -DDIHRES_FC=1000.0
integrator              = steep
emtol                   = 1000.0
nsteps                  = 5000
nstlist                 = 100 ;10
cutoff-scheme           = Verlet
rlist                   = 1.2
vdwtype                 = Cut-off
vdw-modifier            = Force-switch
rvdw_switch             = 1.0
rvdw                    = 1.2
coulombtype             = PME
rcoulomb                = 1.2
;
constraints             = h-bonds
constraint_algorithm    = LINCS

;
pbc                     = xy ; periodic boundary conditions
;
ewald-geometry          = 3dc
; Walls
nwall                    = 2
wall-atomtype            = C C      ; atom types for the walls
wall-type                = 12-6     ; Lennard-Jones 12-6 potential for the walls
; wall-r-linpot            = 1.0 ; uncommenting this seems to cause GROMACs to break on CUDA
wall-density             = 10 10
wall-ewald-zfac          = 3

